        9360
Lattice="  42.3235   0.0000   0.0000   0.0000  45.8549   0.0000   0.0000   0.0000  52.9081 " Time=0.000E+00  Step=0  Energy=-41503.049  Barrier=0.000
Ni     5.27081485   37.01599152   47.29368309       1
Ni     7.02411937   37.01286129   45.52849128       2
Ni     5.27265182   38.78240133   49.05327624       3
Ni     7.03229995   37.02028469   49.05468137       4
Ni     8.78761924   37.02069823   47.28742674       5
Ni    10.54357162   38.79149180   47.27469728       6
Ni     8.79047992   38.78937588   49.04551346       7
Ni    10.54936247   37.02930208   49.04413588       8
Ni    14.05702197   38.80849500   47.25356418       9
Ni    15.81919827   40.58404971   47.24107824      10
Ni    12.30269426   38.80451854   49.02887720      11
Ni    14.05468853   37.04733606   49.02257199      12
Ni    15.80980638   37.05103031   47.24594371      13
Ni    17.57216033   38.82763252   47.23478386      14
Ni    15.80903950   38.82563161   49.00765988      15
Ni    17.55740883   37.07158846   48.99684492      16
Ni    19.32762034   37.06913439   47.23053541      17
Ni    21.09489161   38.84324775   47.22472904      18
Ni    19.32161264   38.84657704   48.99095717      19
Ni    21.07360756   37.09595645   48.97913341      20
Ni    22.85668589   37.08181014   47.22680431      21
Ni    24.63853472   38.86560773   47.20903521      22
Ni    22.85074444   38.86620280   48.97613685      23
Ni    24.62674308   37.15190705   48.92834226      24
Ni    26.43043991   37.09540981   47.23085130      25
Ni    28.21312882   38.85986252   47.22071708      26
Ni    26.42444242   38.89410276   48.94920392      27
Ni    28.23300261   37.14147429   48.94449593      28
Ni    29.98359508   38.82480472   45.48897018      29
Ni    31.77474440   38.83882453   47.23452530      30
Ni    30.00786856   38.87085837   48.97566955      31
Ni    31.79809242   37.10283207   48.97091406      32
Ni    33.55221510   37.07472456   47.22878274      33
Ni    35.33092897   37.07661152   48.99188177      34
Ni    33.55750132   38.84401836   48.99576061      35
Ni    35.34831715   35.33067152   50.74283937      36
Ni    37.08143291   37.05266282   47.24614256      37
Ni    38.83171712   40.56855909   49.03586435      38
Ni    38.83302406   38.80268405   47.26579316      39
Ni    40.58123184   37.03125666   47.26650861      40
Ni     0.00448136   37.02646493   49.04667578      41
Ni     0.00846646   38.78687519   47.27975557      42
Ni    40.57329104   37.03734178   50.80582337      43
Ni    40.57621011   35.27366751   49.03961836      44
Ni    40.55514162   35.26661701   52.57276541      45
Ni     3.51420915   38.77939559   47.29035851      46
Ni     1.76044695   38.78441903   49.05089878      47
Ni     3.51312610   37.01800423   49.05558232      48
Ni     7.02800657   38.78143671   47.28849762      49
Ni     7.02862547   42.31272997   47.28004371      50
Ni     5.27565596   42.31399971   49.04731431      51
Ni     7.03179339   40.55050901   49.04635485      52
Ni     8.78571276   40.55133988   47.27796067      53
Ni    10.54682561   42.32444137   47.26460542      54
Ni     8.79128475   42.32125803   49.03583777      55
Ni    10.54779409   40.56273686   49.03270565      56
Ni    12.30269218   40.56614329   47.25983809      57
Ni    14.06633018   42.34066466   47.24698210      58
Ni    12.30761634   42.33714718   49.02053665      59
Ni    14.05926952   40.58067665   49.01527098      60
Ni    17.58658532   42.35309501   47.23655858      61
Ni    19.34417355   42.35821819   49.00374234      62
Ni    15.82280049   42.35119072   49.00832903      63
Ni    17.57211387   40.59762398   49.00131838      64
Ni    19.33927083   40.59817795   47.23074148      65
Ni    21.11192404   42.35877855   47.23595097      66
Ni    21.12068555   44.10932465   49.01270678      67
Ni    21.09544112   40.60774192   48.99488106      68
Ni    22.86891364   40.60698401   47.22760711      69
Ni    24.65031244   42.35170273   47.24638840      70
Ni    22.87657816   42.35141966   49.00927243      71
Ni    24.63749923   40.60223990   48.99593670      72
Ni    26.42451270   40.61294874   47.22607636      73
Ni    28.21022217   42.34406365   47.25730695      74
Ni    26.42298161   42.33915213   49.01760042      75
Ni    28.21053985   40.60747113   48.99579585      76
Ni    29.99268346   40.59809577   47.24226367      77
Ni    31.78048125   44.07395815   45.52869299      78
Ni    29.98804965   42.34143413   49.02227710      79
Ni    31.77677753   40.60040548   49.00597094      80
Ni    31.77121213   42.33468554   47.26616882      81
Ni    35.31248316   42.32739037   47.27322903      82
Ni    33.54329467   42.33997227   49.02947445      83
Ni    35.31594015   40.58572582   49.02055720      84
Ni    37.07477437   40.56989684   47.26775486      85
Ni    38.83137074   42.32167433   47.28032905      86
Ni    37.07401594   42.33391425   49.03953652      87
Ni    35.31450152   38.82108003   47.24875176      88
Ni    40.58290021   38.79844325   49.03910197      89
Ni     0.01294295   42.31533799   47.28641122      90
Ni    40.58494802   42.32110214   49.04593207      91
Ni     0.01210536   40.55396766   49.04700534      92
Ni     1.76269550   40.54696827   47.28687327      93
Ni     3.51742518   42.31080980   47.28756429      94
Ni     1.76585920   42.31613624   49.05104344      95
Ni     3.51751830   40.54795102   49.05150858      96
Ni     5.27427779   44.07640376   47.28216852      97
Ni     7.03485071   45.84314047   47.27315368      98
Ni     5.28206454   45.84288460   49.04355781      99
Ni     7.03566116   44.08126929   49.03922471     100
Ni     8.78988531   44.08282097   47.26870793     101
Ni    10.55440757   45.85192314   47.25758562     102
Ni     8.79656960   45.84894050   49.03097786     103
Ni    10.55249270   44.09249870   49.02543133     104
Ni    12.31227840   44.09751693   47.25214600     105
Ni    12.31719496    1.75508575   43.71525220     106
Ni    14.07880441    0.01165980   50.78157307     107
Ni    14.07322617   44.10793189   49.01299140     108
Ni    15.83470643   44.10958208   47.24188436     109
Ni    17.60876852    0.02036963   47.24060755     110
Ni    14.08219297    0.01257824   47.24623395     111
Ni    17.59388996   44.11358570   49.00737125     112
Ni    19.35931249   44.11530309   47.23861635     113
Ni    21.13436744    0.01794849   47.24743395     114
Ni    19.36662016    0.01630150   49.01038041     115
Ni    22.89879396    1.76424923   50.78863487     116
Ni    22.89678429    0.00621632   49.02330456     117
Ni    26.41838045   42.31818484   52.55604837     118
Ni    26.43905753    1.74696823   50.80747561     119
Ni    24.65675848   44.09538573   49.02580557     120
Ni    26.43678147   44.09304584   47.27057322     121
Ni    26.47165478    1.75000366   47.29759914     122
Ni    28.20325467   45.83499107   50.80946780     123
Ni    28.20648024   44.08491787   49.03665714     124
Ni    28.22992500   45.83754241   47.29417865     125
Ni    31.77947139   45.83290318   47.30327977     126
Ni    31.75111307   45.83704531   50.81615742     127
Ni    33.52918245   44.09158839   50.80496566     128
Ni    31.76393807   44.08529240   49.04300025     129
Ni    35.31574674   44.07221021   45.52907164     130
Ni    31.77152891    1.73928672   49.07295078     131
Ni    35.30859972   44.08901625   49.04792153     132
Ni    37.07566565   44.08099475   47.28920861     133
Ni    38.83576634   45.84144761   47.30109474     134
Ni    37.07308866   45.84619924   49.06309186     135
Ni    38.83193144   44.08823332   49.05311751     136
Ni    40.58625267   44.08141891   47.29192580     137
Ni     0.01537699   45.84144972   47.29473676     138
Ni     0.00094282    0.00392964   50.81708643     139
Ni     0.01356436   44.08356317   49.05435693     140
Ni     1.76612633   44.07748755   47.28938331     141
Ni     3.52173498   45.84068034   47.28632071     142
Ni     1.76819669   45.84495821   49.05547114     143
Ni     8.78662954   44.08510432    1.41982627     144
Ni     5.28170961    1.74968173   47.27897358     145
Ni     7.04277238    3.51244094   47.27207281     146
Ni     5.28738851    3.51235076   49.04551915     147
Ni     7.04163253    1.75254318   49.03753116     148
Ni     8.79794098    1.75385701   47.26417488     149
Ni    10.56185206    3.51686927   47.25961251     150
Ni     8.80303919    3.51472987   49.03323802     151
Ni    10.55988173    1.75889974   49.02540079     152
Ni    12.32048345    1.76266877   47.25182516     153
Ni    14.08875952    3.52811248   47.24593830     154
Ni    12.32637727    3.52135437   49.02168480     155
Ni    14.08730255    1.77044216   49.01278373     156
Ni    15.86031387    1.78586404   47.23984314     157
Ni    17.63634015    3.57597080   47.23087724     158
Ni    15.85629033    3.53266166   49.01067687     159
Ni    17.62290753    1.79291247   49.00233456     160
Ni    19.38202129    1.78698185   47.24392468     161
Ni    21.20118920    5.31267866   45.49501990     162
Ni    22.90880781    3.54181181   49.02892844     163
Ni    21.14718048    3.58096686   47.26927648     164
Ni    22.91002452    1.78162168   47.26785557     165
Ni    24.71442236    3.52487793   47.29327251     166
Ni    26.41898422    3.50296422    3.18799025     167
Ni    24.71330477    1.76256579   45.53122461     168
Ni    24.67522254    1.76193701   49.03806294     169
Ni    28.26896119    3.51160770   47.32705678     170
Ni    26.46952613    3.51277402   49.05861970     171
Ni    28.22810016    1.74179832   49.06104113     172
Ni    30.02127265    1.73874895   47.31798306     173
Ni    30.01254006    3.50586938   49.08114294     174
Ni    31.74744760    5.27112531   52.59432258     175
Ni    33.51163958   45.84294707   52.57701668     176
Ni    33.55633891    1.73994949   47.32144418     177
Ni    35.32811315    3.50802731   47.33529379     178
Ni    33.52417077    1.74279453   50.82909092     179
Ni    35.30512014    1.74444932   49.07313009     180
Ni    37.08470094    1.74473036   47.31987520     181
Ni    38.84255226    3.50752189   47.32307219     182
Ni    37.04860197    3.50906020   52.59099867     183
Ni    38.84502807    1.74887328   49.08331776     184
Ni    40.59060323    1.74660641   47.29344954     185
Ni     0.01957207    3.50873405   47.30641514     186
Ni    40.58784533    3.49871817   49.08553183     187
Ni     0.00668051    1.74971521   49.07142876     188
Ni     1.76796778    1.74811820   47.29622939     189
Ni     3.52772333    3.51059837   47.28890928     190
Ni     1.77172126    3.50949592   49.06181388     191
Ni     3.52989861    1.75021517   49.04934952     192
Ni     5.28737741    5.27190188   47.28256974     193
Ni     7.04633585    7.03154703   47.27893047     194
Ni     5.28960697    7.03162597   49.05263413     195
Ni     7.04647256    5.27238552   49.04207603     196
Ni     8.80422388    5.27323113   47.26833294     197
Ni    10.56495506    7.03481841   47.26839149     198
Ni     8.80585438    7.03159937   49.04060610     199
Ni    10.56603683    5.27538424   49.03103795     200
Ni    12.32659978    5.28037769   47.25775671     201
Ni    14.09153940    7.04500972   47.25854830     202
Ni    12.32910069    7.03646775   49.03090011     203
Ni    14.09322441    5.28276428   49.02075117     204
Ni    15.86590866    3.54780309   45.47753609     205
Ni    17.64450565    7.02128806   47.24557376     206
Ni    15.86042902    7.04301337   49.02022187     207
Ni    17.61318775    5.29082745   49.02811060     208
Ni    19.40839786    7.05449724   45.52290093     209
Ni    21.16942997    7.03826467   47.28732219     210
Ni    19.38459992    7.04174884   52.56136641     211
Ni    19.40560295    7.01519242   49.00928762     212
Ni    22.95771060    5.30040532   47.28841275     213
Ni    24.74704213    7.07756274   47.33166983     214
Ni    22.92805126    7.05013777   49.04278155     215
Ni    24.71630905    5.28837944   49.05282114     216
Ni    26.51453945    5.29351644   47.32963353     217
Ni    28.30083026    7.07567579   47.36684354     218
Ni    26.49225889    7.06166855   49.08255767     219
Ni    28.25424463    5.28157460   49.08362247     220
Ni    33.57827941    5.28213442   47.35480683     221
Ni    31.82893733    7.06609796   47.37248860     222
Ni    28.23689412    7.04954821   50.83779286     223
Ni    33.54694339    3.50640975   49.08781738     224
Ni    35.31872981    5.27537588   49.09819855     225
Ni    33.60993809    7.07180954   45.62456838     226
Ni    33.56423979    7.05134509   49.11116979     227
Ni    37.07597465    3.50687789   49.08540280     228
Ni    37.09211183    5.27710494   47.34081201     229
Ni    38.85052385    7.04597226   47.33833331     230
Ni    35.34354032    7.05502437   47.35943834     231
Ni    38.83688806    5.27319337   49.08869415     232
Ni    40.59687890    5.27171606   47.32400159     233
Ni     0.02949794    7.03906150   47.31557247     234
Ni    40.59405622    7.04329316   49.08410110     235
Ni     0.01910722    5.27184557   49.07393699     236
Ni     1.77663936    5.27249158   47.30144413     237
Ni     3.53458954    7.03396474   47.29491029     238
Ni     1.77847251    7.03485574   49.06846208     239
Ni     3.53106584    5.27175538   49.05654668     240
Ni     5.29132398    8.79371783   47.29056678     241
Ni     7.04441886   10.55492568   47.29123047     242
Ni     5.29094046   10.55495307   49.06163876     243
Ni     7.04640123    8.79083668   49.05105382     244
Ni     8.80281150    8.79234902   47.28013775     245
Ni    14.05994225   12.36559811   45.55585917     246
Ni    10.55603349   10.55839662   47.28705528     247
Ni    10.56410595    8.79254775   49.04170568     248
Ni    12.32404814    8.80000904   47.27370489     249
Ni    15.85245254   10.56826218   49.04287660     250
Ni    14.08232525   10.57206026   47.28771500     251
Ni    14.09186333    8.79947949   49.03315007     252
Ni    15.86436792    8.80690372   47.27072716     253
Ni    17.61617329   10.60400008   47.29885849     254
Ni    17.61733168   10.56529458   50.79971691     255
Ni    17.63199869    8.79646339   49.02357632     256
Ni    19.39812094    8.83488520   47.28380713     257
Ni    21.20606631    8.88037506   45.60130618     258
Ni    21.17733922   10.63724169   47.33363576     259
Ni    22.91822997    8.81527054   50.80548334     260
Ni    22.96073042    8.85220437   47.33200391     261
Ni    24.74997027   10.64849729   47.37738939     262
Ni    22.93818964   10.61188813   49.07956295     263
Ni    24.71446649    8.83504062   49.07952701     264
Ni    26.53276291    8.86464734   47.37380780     265
Ni    30.07316995    8.85562638   47.38572087     266
Ni    26.49712812   10.62033230   49.11316984     267
Ni    29.99927819    5.27447281   50.83848549     268
Ni    30.03497104    7.05759841   49.10733951     269
Ni    31.83743582   10.62777731   47.38926955     270
Ni    30.04409392   10.61674505   49.12801303     271
Ni    31.80751455    8.83318702   49.12133078     272
Ni    33.59370096    8.83992450   47.37644167     273
Ni    35.35424596   10.60709450   47.37076831     274
Ni    33.57406495   10.60374427   49.12506749     275
Ni    35.33001727    8.82242901   49.11449857     276
Ni    35.36782282    8.84256365   45.61883291     277
Ni    38.86193971   10.58844162   47.34603319     278
Ni    37.09258340   10.58892463   49.11100593     279
Ni    37.10355111    8.82430874   47.35555159     280
Ni    40.60778605    8.81226451   47.33032246     281
Ni     0.04089175   10.57310095   47.32163870     282
Ni    40.60401754   10.57512671   49.09277791     283
Ni     0.02959862    8.80427864   49.08026116     284
Ni     1.78624187    8.80096963   47.30814567     285
Ni     3.54124304   10.56103411   47.30244470     286
Ni     1.78673524   10.56384314   49.07528699     287
Ni     3.53617010    8.79511556   49.06398109     288
Ni     5.29217901   12.32283377   47.30112738     289
Ni     7.03846902   14.08959583   47.30490718     290
Ni     5.28959268   14.08742109   49.07112336     291
Ni     7.04195651   12.31754622   49.06249142     292
Ni     8.79328506   12.32156322   47.29742833     293
Ni    10.53908113   14.09584978   47.30810792     294
Ni     8.78975167   14.08505156   49.06676625     295
Ni    10.55200000   12.31927431   49.05771682     296
Ni    12.30640483   12.33323762   47.30040477     297
Ni    14.05481596   14.12007374   47.31866540     298
Ni    12.30126206   14.09311983   49.06663341     299
Ni    14.07458869   12.33142227   49.05664222     300
Ni    17.60570848   12.35732625   49.06345936     301
Ni    17.59591164   14.16104774   47.34301601     302
Ni    15.82686154   14.11640678   49.07299591     303
Ni    19.38620210   12.40508832   47.34071184     304
Ni    19.41012583   10.66765458   45.59926596     305
Ni    21.16474499   14.19580859   47.37869991     306
Ni    19.37074823   14.14540475   49.09107129     307
Ni    21.15626050   12.38261597   49.08516254     308
Ni    22.96098997   12.42944565   47.37902836     309
Ni    24.73654519   14.20494151   47.39762346     310
Ni    22.93164673   14.16968118   49.11674416     311
Ni    24.71755050   12.39849676   49.11460011     312
Ni    26.52533759   12.42849791   47.39837604     313
Ni    28.27149926   12.39778649   49.13142514     314
Ni    26.49201883   14.17530830   49.13223139     315
Ni    28.27163128    8.84046283   49.11148735     316
Ni    30.07094096   12.41349927   47.39700623     317
Ni    31.83491971   14.17055279   47.38639928     318
Ni    30.04144195   14.16408763   49.13453386     319
Ni    31.81176211   12.38544812   49.13195937     320
Ni    33.59891442   12.39068213   47.38156125     321
Ni    35.36034099   14.14571518   47.36660527     322
Ni    33.57865235   14.14440806   49.12550326     323
Ni    35.33842933   12.36715579   49.12045938     324
Ni    37.11374593   12.36753328   47.35883723     325
Ni    38.87180498   14.12424976   47.34472486     326
Ni    37.10246351   14.12399416   49.11034870     327
Ni    38.85460075   12.34921916   49.10334759     328
Ni    40.61916015   12.34795509   47.33472136     329
Ni     0.05007322   14.10658515   47.32431085     330
Ni    40.61407514   14.10754097   49.09447623     331
Ni     0.03868034   12.33486310   49.08602250     332
Ni     1.79513792   12.33273385   47.31393275     333
Ni     3.54514521   14.09454161   47.30981527     334
Ni     1.79274673   14.09542539   49.08061585     335
Ni     3.54040184   12.32399801   49.07172475     336
Ni     5.29057850   15.86074656   47.31006783     337
Ni     7.03330080   17.63148963   47.31323656     338
Ni     5.28693462   17.62722511   49.07798753     339
Ni     7.03544277   15.85523683   49.07357793     340
Ni     8.78184721   15.86231221   47.31203882     341
Ni    10.52613032   17.63845185   47.31922100     342
Ni     8.77999335   17.62693149   49.07737142     343
Ni    10.53579414   15.85777984   49.07322631     344
Ni    12.28497139   15.87694523   47.32065462     345
Ni    14.03744140   17.65761481   47.33166804     346
Ni    12.28336848   17.63338458   49.07972225     347
Ni    14.05133315   15.87333008   49.07808599     348
Ni    15.81168630   15.90909076   47.33921554     349
Ni    17.57844048   17.68874468   47.35573018     350
Ni    15.80825245   17.65225259   49.09029197     351
Ni    17.58758219   15.90234617   49.09386882     352
Ni    19.36850574   15.94872098   47.37222300     353
Ni    21.13822713   17.71323432   47.37676104     354
Ni    19.35272734   17.68609707   49.11666041     355
Ni    21.14019485   15.93078060   49.11796908     356
Ni    22.93857021   15.96571056   47.39094664     357
Ni    24.71036435   17.71429819   47.37848281     358
Ni    22.90718689   17.69753417   49.12380692     359
Ni    24.70463123   15.94375268   49.13036333     360
Ni    26.50777673   15.96333907   47.39324924     361
Ni    28.28123715   17.70432125   47.36932792     362
Ni    26.47886114   17.70023096   49.12331659     363
Ni    28.26444056   15.93836494   49.13211841     364
Ni    30.06178825   15.94302883   47.38365523     365
Ni    31.83203109   17.68316911   47.35991714     366
Ni    30.04083619   17.68431553   49.11482164     367
Ni    31.81219459   15.91702559   49.12455550     368
Ni    33.59994150   15.91875770   47.36745601     369
Ni    35.36197422   17.66818407   47.34697613     370
Ni    33.58441079   17.66226419   49.10532383     371
Ni    35.34593139   15.89608497   49.11192315     372
Ni    37.11986732   15.89866494   47.34950496     373
Ni    38.87634944   17.65184858   47.33390398     374
Ni    37.10956932   17.64859514   49.09808276     375
Ni    38.86364403   15.87972844   49.09907577     376
Ni    40.62697554   15.88065108   47.33169943     377
Ni     0.05361746   17.64066935   47.32223171     378
Ni    40.61979510   17.63783333   49.08959248     379
Ni     0.04544028   15.86727844   49.08705164     380
Ni     1.79997890   15.86781557   47.31721097     381
Ni     3.54539660   17.63303887   47.31396098     382
Ni     1.79434156   17.63112572   49.08248315     383
Ni     3.54157346   15.85949912   49.07797272     384
Ni     5.28839849   19.40213014   47.31372870     385
Ni     7.03218233   21.17191992   47.31320070     386
Ni     5.28340173   21.16791436   49.08057221     387
Ni     7.03119102   19.39817861   49.07936680     388
Ni     8.77700511   19.40370213   47.31602717     389
Ni    12.28550784   22.92132704   50.83448323     390
Ni     8.77830222   21.16804477   49.07885896     391
Ni    10.52666495   19.39925084   49.07941186     392
Ni    12.27586340   19.41273173   47.32247209     393
Ni    14.03338965   21.17937800   47.32127613     394
Ni    15.81538992   17.61764045   52.59111335     395
Ni    14.03635945   19.40535672   49.08383367     396
Ni    15.79851848   19.42996097   47.33789842     397
Ni    17.56031934   21.18755810   47.32696381     398
Ni    15.79663811   21.16902240   49.08585045     399
Ni    17.57141929   19.42367302   49.09947778     400
Ni    19.34474084   19.44765676   47.34923448     401
Ni    21.11264526   21.18925576   47.32358176     402
Ni    19.32854021   21.17906317   49.07809945     403
Ni    21.11143412   19.44665670   49.11413006     404
Ni    22.90778239   19.45393223   47.35632090     405
Ni    24.68055521   21.18458700   47.32334016     406
Ni    22.87660868   21.17402383   49.08032656     407
Ni    24.67889846   19.43946650   49.10455758     408
Ni    26.48635548   19.44299331   47.34283972     409
Ni    30.05771929   24.63469531   49.00034426     410
Ni    26.46237125   21.15059631   49.05007427     411
Ni    28.26168738   19.43321148   49.09288430     412
Ni    30.05884166   19.43916037   47.33632521     413
Ni    31.83162439   21.19099200   47.30129235     414
Ni    31.78522024   19.40229271   52.60813145     415
Ni    31.82042978   19.42326381   49.08663803     416
Ni    33.59788278   19.43111434   47.33475335     417
Ni    35.36067142   21.17588660   47.31214703     418
Ni    33.59166439   21.16849220   49.07179555     419
Ni    35.32959163   19.38359677   52.60573837     420
Ni    37.12075445   19.41748148   47.32857021     421
Ni    38.87174871   21.17568515   47.31651468     422
Ni    37.11215707   21.16287630   49.07532680     423
Ni    38.86761628   19.40411323   49.08648449     424
Ni    40.62692480   19.41040596   47.32266199     425
Ni     0.04916131   21.17228269   47.31507197     426
Ni    40.61597745   21.16848347   49.07915387     427
Ni     0.04521240   19.40165619   49.08363385     428
Ni     1.79926921   19.40454153   47.31650910     429
Ni     1.80115155   21.17451469   45.54680564     430
Ni     1.80609676   19.41194791   43.78129947     431
Ni     3.53965887   19.39778342   49.08035560     432
Ni     5.28658477   22.93811248   47.31145902     433
Ni     7.03435941   24.70139101   47.30869449     434
Ni     3.53372575   22.93738433   49.08220428     435
Ni     7.03035102   22.93469911   49.07973452     436
Ni     8.77989358   22.93949048   47.30855015     437
Ni    10.53285756   24.69930304   47.30470016     438
Ni     8.78286112   24.69515211   49.07749467     439
Ni    10.53039348   22.93205415   49.07491558     440
Ni    12.27975066   22.93739895   47.30858891     441
Ni    14.03880195   24.69258099   47.29822041     442
Ni    12.28952823   24.69217265   49.06930664     443
Ni    14.03632122   22.92752368   49.07259822     444
Ni    15.79464740   22.93491200   47.31104083     445
Ni    17.55432196   24.68515652   47.29044915     446
Ni    15.79533306   24.67990480   49.06040863     447
Ni    17.55650816   22.91887761   49.07541312     448
Ni    19.32380799   22.93520218   47.30109876     449
Ni    21.09290570   24.68574665   47.28547186     450
Ni    19.30644259   24.65703649   49.04180001     451
Ni    21.08543945   22.90951783   49.04192840     452
Ni    22.88390574   22.92857160   47.29880440     453
Ni    24.66537039   24.67601559   47.28659628     454
Ni    22.85302413   24.64318127   49.01341998     455
Ni    24.65165269   22.89792058   49.03530302     456
Ni    28.26193102   22.87451824   49.00644314     457
Ni    28.24561616   24.68020808   47.29764466     458
Ni    26.44476710   24.62486968   49.01120530     459
Ni    30.05180068   21.16011810   49.05443287     460
Ni    30.06446707   21.21659157   45.57373061     461
Ni    31.82021428   24.64662283   47.23205840     462
Ni    30.05569372   22.92487563   47.27769861     463
Ni    31.85666615   24.62044096   50.75214502     464
Ni    33.59240827   22.92811666   47.27421305     465
Ni    35.35651387   24.70973850   47.28661316     466
Ni    33.60859511   24.65761818   48.99500971     467
Ni    35.35170593   22.90569305   49.04999075     468
Ni    37.11289760   22.93829165   47.30364942     469
Ni    38.85728029   24.69714563   47.29375923     470
Ni    37.08638316   24.69304806   49.04712902     471
Ni    38.85713984   22.93110137   49.06653550     472
Ni    40.61743931   22.93594763   47.30753537     473
Ni     0.03979122   24.69733615   47.30362621     474
Ni    40.60988435   24.68886710   49.06192742     475
Ni     0.03990203   22.93149327   49.07556484     476
Ni     1.79352272   22.93596688   47.31109032     477
Ni     3.53657383   24.69910326   47.30559782     478
Ni     1.78230869   24.69885947   49.07547758     479
Ni     1.79093894   21.16743288   49.08082008     480
Ni     5.28725969   26.46098674   47.30087920     481
Ni     7.03670000   28.21681184   47.30348521     482
Ni     5.27624677   28.21684392   49.07150617     483
Ni     5.27893040   24.69969197   49.07891460     484
Ni     8.79096542   28.21769662   49.07245891     485
Ni     7.02928447   24.69400321   50.84489324     486
Ni    10.54282306   28.21376632   47.29670876     487
Ni    10.54441731   26.45580002   49.07104375     488
Ni    12.28904183   26.45408293   47.29269976     489
Ni    14.04591903   28.21101560   47.27931699     490
Ni    12.30402726   28.21262603   49.06057884     491
Ni    14.04932095   26.44706349   49.05845784     492
Ni    15.80036653   24.69447756   45.53106245     493
Ni    17.54887091   28.20982126   47.26020955     494
Ni    15.79612193   28.20485608   49.03406670     495
Ni    17.54121705   26.43145777   49.02881313     496
Ni    19.31746296   26.44251475   47.27670470     497
Ni    21.09265228   28.21539481   47.28479882     498
Ni    19.28417385   28.20152891   48.99399284     499
Ni    21.06793389   26.41297386   49.01567265     500
Ni    22.87231074   26.45175425   47.29324439     501
Ni    24.67307316   28.23036254   47.34381375     502
Ni    22.84189239   28.19066613   49.03234409     503
Ni    24.64534508   26.37932124   48.99558142     504
Ni    26.45775188   26.46062894   47.32205623     505
Ni    28.23570296   28.23021119   47.33675416     506
Ni    26.46970686   28.20324971   49.09510946     507
Ni    28.25210725   26.39329587   49.02826081     508
Ni    30.02551728   26.43919182   47.28157758     509
Ni    31.81517835   28.20037752   47.26440277     510
Ni    30.05078240   28.15232437   49.02251862     511
Ni    31.82898176   26.38359688   48.97381811     512
Ni    33.65080347   28.16004576   48.95842790     513
Ni    35.36080459   28.19968102   47.24594636     514
Ni    33.59880578   26.43706156   47.25263867     515
Ni    35.37342665   28.15182825   50.72450914     516
Ni    38.85126281   26.46340150   45.52037694     517
Ni    38.84629259   28.21256665   47.26381170     518
Ni    37.09770516   28.18713403   49.00701013     519
Ni    38.86039421   26.44355076   49.04056527     520
Ni    40.60833712   26.45676402   47.28906653     521
Ni    40.58926231   28.21625825   49.04678872     522
Ni    42.28059152   29.91970493    6.69072253     523
Ni     0.02702057   26.45698013   49.06757597     524
Ni     1.77875965   26.46133850   47.30058915     525
Ni     3.52685017   28.22263103   47.29913746     526
Ni     1.76855621   28.21874613   49.06653987     527
Ni     3.52673086   26.45991600   49.06057884     528
Ni     5.27930867   29.97692120   47.30082972     529
Ni     7.03536685   31.73415971   47.29925588     530
Ni     5.27428074   31.73559401   49.06419661     531
Ni     7.03424344   29.97539364   49.06793466     532
Ni     7.02831454   26.45800305   49.08024795     533
Ni    10.54891948   31.73467899   47.29109562     534
Ni     8.79513822   31.73429732   49.06222739     535
Ni    10.55278591   29.97473693   49.06296621     536
Ni    12.29889877   29.97319130   47.28500644     537
Ni    14.04750164   31.74002980   47.26679513     538
Ni    12.31055352   31.73749009   49.05266675     539
Ni    14.05630483   29.97282627   49.04564610     540
Ni    15.79634563   29.97653629   47.25979679     541
Ni    17.55724147   31.75092385   47.25279364     542
Ni    15.79038533   31.74692179   49.01336478     543
Ni    17.53622367   29.97806716   49.00160849     544
Ni    19.31437617   29.98644201   47.25763580     545
Ni    21.09490763   31.76047703   47.26405630     546
Ni    19.30386240   31.76306702   49.00339871     547
Ni    21.05085649   29.99279142   48.99270283     548
Ni    22.89249055   29.98629961   47.32032462     549
Ni    24.67329514   31.74974350   47.33962296     550
Ni    22.84380063   31.77586703   49.01280611     551
Ni    24.67470048   29.96929563   49.13008877     552