          33
Lattice="   7.1928   0.0000   0.0000   0.0000   7.1928   0.0000   0.0000   0.0000   7.1928 " Time=0.000E+00  Step=0  Energy=-142.639  Barrier=0.000
Ni     0.03097092    0.03097092    0.03097092       1
Ni     1.79819061    1.79819061    6.77820409       2
Ni     1.79819061    6.77820409    1.79819061       3
Ni     6.77820409    1.79819061    1.79819061       4
Ni     3.56541031    0.03097092    0.03097092       5
Ni     5.39457184    1.79819061    7.08154339       6
Ni     5.39457184    7.08154339    1.79819061       7
Ni     4.01093960    1.79819061    1.79819061       8
Ni     0.03097092    0.03097092    3.56541031       9
Ni     1.79819061    1.79819061    4.01093960      10
Ni     1.79819061    7.08154339    5.39457184      11
Ni     7.08154339    1.79819061    5.39457184      12
Ni     3.56541031    0.03097092    3.56541031      13
Ni     5.39457184    1.79819061    3.70760030      14
Ni     5.39457184    7.15405534    5.39457184      15
Ni     3.70760030    1.79819061    5.39457184      16
Ni     0.03097092    3.56541031    0.03097092      17
Ni     1.79819061    5.39457184    7.08154339      18
Ni     1.79819061    4.01093960    1.79819061      19
Ni     7.08154339    5.39457184    1.79819061      20
Ni     3.56541031    3.56541031    0.03097092      21
Ni     5.39457184    5.39457184    7.15405534      22
Ni     5.39457184    3.70760030    1.79819061      23
Ni     3.70760030    5.39457184    1.79819061      24
Ni     0.03097092    3.56541031    3.56541031      25
Ni     1.79819061    5.39457184    3.70760030      26
Ni     1.79819061    3.70760030    5.39457184      27
Ni     7.15405534    5.39457184    5.39457184      28
Ni     3.56541031    3.56541031    3.56541031      29
Ni     5.39457184    5.39457184    3.63508835      30
Ni     5.39457184    3.63508835    5.39457184      31
Ni     3.63508835    5.39457184    5.39457184      32
Ni     1.79819061    1.79819061    1.79819061      33
          33
Lattice="   7.1928   0.0000   0.0000   0.0000   7.1928   0.0000   0.0000   0.0000   7.1928 " Time=3.753E-12  Step=0.5  Energy=-142.488  Barrier=0.151
Ni    -0.05478114   -0.03003170   -0.02998054       1
Ni     1.63602883    1.79819500    6.93904663       2
Ni     1.63628124    6.93919657    1.79830765       3
Ni     7.13928559    1.79821274    1.79833004       4
Ni     3.54179471    0.10414501    0.10416480       5
Ni     5.44818936    1.79822122    6.93940273       6
Ni     5.44794094    6.93955481    1.79834987       7
Ni     4.60630808    1.79811592    1.79781414       8
Ni    -0.05475955   -0.02999245    3.62644916       9
Ni     1.63664128    1.79818797    3.84980696      10
Ni     1.78531097    7.13066867    5.39457827      11
Ni     7.13816724    1.79819763    5.39410543      12
Ni     3.54178071    0.10420465    3.49222436      13
Ni     5.44758641    1.79821288    3.84936780      14
Ni     5.29804194    7.13081194    5.39456226      15
Ni     3.54223919    1.79821829    5.39477684      16
Ni    -0.05477121    3.62641937   -0.02996135      17
Ni     1.78525948    5.39457413    7.13075081      18
Ni     1.63637995    3.84995349    1.79832021      19
Ni     7.13816311    5.39450343    1.79827720      20
Ni     3.54177794    3.49223555    0.10418923      21
Ni     5.29809122    5.39455573    7.13090393      22
Ni     5.44782859    3.84952074    1.79836259      23
Ni     3.54223489    5.39462097    1.79824438      24
Ni    -0.05475012    3.62637730    3.62643593      25
Ni     1.78534145    5.39458715    3.65856971      26
Ni     1.78529240    3.65848985    5.39456989      27
Ni     7.13762627    5.39457600    5.39460984      28
Ni     3.54176189    3.49218737    3.49220757      29
Ni     5.29799380    5.39456856    3.65844796      30
Ni     5.29804357    3.65835601    5.39455209      31
Ni     3.54214707    5.39457053    5.39473173      32
Ni     2.47791387    1.79817463    1.79787186      33
          33
Lattice="   7.1928   0.0000   0.0000   0.0000   7.1928   0.0000   0.0000   0.0000   7.1928 " Time=3.753E-12  Step=1  Energy=-142.639  Barrier=0.000
Ni    -0.13942204    0.02999541    0.02999553       1
Ni     1.68833532    1.79819182    7.08183946       2
Ni     1.68833510    7.08183978    1.79819241       3
Ni     7.49397686    1.79818949    1.79818776       4
Ni     3.51904862    0.03211417    0.03211417       5
Ni     5.28793303    1.79818647    6.77819563       6
Ni     5.28793375    6.77818804    1.79818278       7
Ni     5.27947064    1.79819790    1.79820755       8
Ni    -0.13942739    0.02999919    3.56638221       9
Ni     1.68833512    1.79819104    3.70730316      10
Ni     1.69011839    7.15426270    5.39456901      11
Ni     7.19601711    1.79819081    5.39457611      12
Ni     3.51905700    0.03212089    3.56426170      13
Ni     5.28793531    1.79818871    4.01097487      14
Ni     5.28484365    7.08130852    5.39457478      15
Ni     3.37686216    1.79819018    5.39457531      16
Ni    -0.13942425    3.56638365    0.02999773      17
Ni     1.69011789    5.39457061    7.15426161      18
Ni     1.68833533    3.70730346    1.79819137      19
Ni     7.19601711    5.39457330    1.79819016      20
Ni     3.51905296    3.56426400    0.03211859      21
Ni     5.28484382    5.39457317    7.08130689      22
Ni     5.28793458    4.01096729    1.79818479      23
Ni     3.37686217    5.39457371    1.79818870      24
Ni    -0.13943120    3.56638087    3.56638096      25
Ni     1.69011976    5.39457039    3.63487859      26
Ni     1.69011927    3.63487968    5.39456900      27
Ni     7.12224807    5.39456979    5.39456769      28
Ni     3.51905990    3.56426017    3.56426013      29
Ni     5.28484307    5.39457431    3.70783027      30
Ni     5.28484322    3.70783188    5.39457617      31
Ni     3.44900251    5.39456977    5.39456789      32
Ni     3.06849310    1.79818880    1.79818697      33
          33
Lattice="   7.1928   0.0000   0.0000   0.0000   7.1928   0.0000   0.0000   0.0000   7.1928 " Time=4.506E-12  Step=1.5  Energy=-142.488  Barrier=0.151
Ni    -0.07890114   -0.05490391   -0.03004702       1
Ni     1.68911634    1.78529181    7.13069266       2
Ni     1.68909053    7.13817406    1.79823852       3
Ni     7.33711612    1.63634873    1.79821020       4
Ni     3.45738970   -0.05466890   -0.02994818       5
Ni     5.28578364    1.63615748    6.93916035       6
Ni     5.28564046    7.13925357    1.79825307       7
Ni     5.28527019    2.47790482    1.79807370       8
Ni    -0.07896858   -0.05485417    3.62645252       9
Ni     1.68909709    1.78528385    3.65851814      10
Ni     1.68926605    7.13761334    5.39457801      11
Ni     7.14596158    1.78531606    5.39460660      12
Ni     3.45746629   -0.05461753    3.62635588      13
Ni     5.28580775    1.63653095    3.84992259      14
Ni     5.28561270    7.13817139    5.39432215      15
Ni     3.42537467    1.78526621    5.39458221      16
Ni    -0.21314124    3.54183790    0.10419549      17
Ni     1.68929383    5.29804053    7.13085151      18
Ni     1.68919159    3.54223879    1.79824071      19
Ni     7.33700481    5.44782804    1.79827999      20
Ni     3.59153227    3.54175314    0.10412565      21
Ni     5.28552258    5.44806148    6.93947968      22
Ni     5.28564886    4.60629653    1.79796563      23
Ni     3.23427333    5.44793964    1.79829478      24
Ni    -0.21314927    3.54181211    3.49221118      25
Ni     1.68927716    5.29805720    3.65839536      26
Ni     1.68932273    3.54214255    5.39461273      27
Ni     7.14576062    5.29795685    5.39456112      28
Ni     3.59154815    3.54172981    3.49227745      29
Ni     5.28554182    5.44770571    3.84944711      30
Ni     5.28559421    3.54223879    5.39471213      31
Ni     3.42545324    5.29813754    5.39454176      32
Ni     3.23359191    1.63634561    1.79822629      33
          33
Lattice="   7.1928   0.0000   0.0000   0.0000   7.1928   0.0000   0.0000   0.0000   7.1928 " Time=4.506E-12  Step=2  Energy=-142.639  Barrier=0.000
Ni    -0.13886674   -0.13936112    0.02988531       1
Ni     1.68921804    1.69025140    7.15426297       2
Ni     1.68920420    7.19610335    1.79819342       3
Ni     7.19470625    1.68817708    1.79818987       4
Ni     3.51729222   -0.13937365    0.02989675       5
Ni     5.28558391    1.68817913    7.08185117       6
Ni     5.28560324    7.49347838    1.79819457       7
Ni     5.28563495    3.06801098    1.79818782       8
Ni    -0.13886570   -0.13935892    3.56649920       9
Ni     1.68921828    1.69025293    3.63488052      10
Ni     1.68922365    7.12229497    5.39457327      11
Ni     7.12227686    1.69024783    5.39457097      12
Ni     3.51729115   -0.13937148    3.56648786      13
Ni     5.28558367    1.68818661    3.70729076      14
Ni     5.28558330    7.19610444    5.39456862      15
Ni     3.44889802    1.69025449    5.39457135      16
Ni    -0.14121026    3.51910975    0.03219957      17
Ni     1.68920387    5.28481814    7.08131101      18
Ni     1.68919651    3.37694809    1.79819210      19
Ni     7.49832257    5.28814100    1.79819254      20
Ni     3.51963619    3.51914574    0.03226411      21
Ni     5.28560619    5.28815333    6.77818337      22
Ni     5.28554864    5.27878168    1.79818627      23
Ni     3.07279055    5.28816261    1.79819262      24
Ni    -0.14121315    3.51911011    3.56418041      25
Ni     1.68920397    5.28482073    3.70783578      26
Ni     1.68922893    3.44905097    5.39457047      27
Ni     7.19523948    5.28482108    5.39457126      28
Ni     3.51963892    3.51914596    3.56411602      29
Ni     5.28560601    5.28815015    4.01095407      30
Ni     5.28555026    3.37694699    5.39457487      31
Ni     3.37595322    5.28481680    5.39457141      32
Ni     3.37650277    1.68819042    1.79818968      33
          33
Lattice="   7.1928   0.0000   0.0000   0.0000   7.1928   0.0000   0.0000   0.0000   7.1928 " Time=4.662E-12  Step=2.5  Energy=-142.488  Barrier=0.151
Ni    -0.16352093   -0.21311491    0.10417577       1
Ni     1.59267543    1.68933983    7.13078184       2
Ni     1.74223474    7.33697272    1.79817330       3
Ni     7.02963878    1.68931580    1.79821437       4
Ni     3.43243352   -0.07888822   -0.03005630       5
Ni     5.27272206    1.68904551    7.13064469       6
Ni     5.12392520    7.33691222    1.79815935       7
Ni     5.12356869    3.23337625    1.79817010       8
Ni    -0.16352835   -0.21312982    3.49219355       9
Ni     1.59273037    1.68934081    3.65833290      10
Ni     1.59253375    7.14581710    5.39456145      11
Ni     7.02955211    1.68945342    5.39452104      12
Ni     3.43243824   -0.07891556    3.62641153      13
Ni     5.27265862    1.68903497    3.65847116      14
Ni     5.27271988    7.14604530    5.39457518      15
Ni     3.43227593    1.68928506    5.39456540      16
Ni    -0.16364333    3.59154300    0.10410346      17
Ni     1.74248699    5.28556438    6.93960757      18
Ni     1.74278401    3.23424297    1.79817347      19
Ni     8.09368678    5.28552449    1.79821855      20
Ni     3.43283891    3.45745262   -0.02998370      21
Ni     5.12376262    5.28598562    6.93922372      22
Ni     5.96529903    5.28491350    1.79824759      23
Ni     3.43390364    5.28573251    1.79816455      24
Ni    -0.16364809    3.59151054    3.49232200      25
Ni     1.74252832    5.28554589    3.84956800      26
Ni     1.59287347    3.42550195    5.39457894      27
Ni     7.02963726    5.28562186    5.39456978      28
Ni     3.43284428    3.45746752    3.62633942      29
Ni     5.12371915    5.28597046    3.84999140      30
Ni     5.27266110    3.42545993    5.39458777      31
Ni     3.43279589    5.28568639    5.39461706      32
Ni     3.43280191    1.68877585    1.79816503      33
          33
Lattice="   7.1928   0.0000   0.0000   0.0000   7.1928   0.0000   0.0000   0.0000   7.1928 " Time=4.662E-12  Step=3  Energy=-142.639  Barrier=0.000
Ni    -0.18634217   -0.14116772    0.03211497       1
Ni     1.57950440    1.68924546    7.08135095       2
Ni     1.58264408    7.49827536    1.79824666       3
Ni     6.86440098    1.68917998    1.79813857       4
Ni     3.34801836   -0.13892610    0.02987726       5
Ni     5.17764716    1.68931385    7.15428486       6
Ni     5.17561950    7.19488663    1.79821542       7
Ni     5.17556195    3.37650105    1.79817205       8
Ni    -0.18622879   -0.14108989    3.56421791       9
Ni     1.57922926    1.68923736    3.70764023      10
Ni     1.57948012    7.19521251    5.39455707      11
Ni     6.93639752    1.68914586    5.39459754      12
Ni     3.34808473   -0.13907851    3.56644384      13
Ni     5.17778424    1.68922199    3.63480850      14
Ni     5.17764669    7.12226715    5.39450154      15
Ni     3.41698522    1.68923817    5.39487453      16
Ni    -0.18612801    3.51952231    0.03223353      17
Ni     1.58290373    5.28560801    6.77798532      18
Ni     1.58260958    3.07276122    1.79812834      19
Ni     8.76629017    5.28548553    1.79842434      20
Ni     3.34802364    3.51733826    0.02993036      21
Ni     5.17553565    5.28567978    7.08178544      22
Ni     6.55560134    5.28542787    1.79818893      23
Ni     3.78818642    5.28564066    1.79817197      24
Ni    -0.18614825    3.51952013    3.56411153      25
Ni     1.58269944    5.28561054    4.01102887      26
Ni     1.57950685    3.37602706    5.39455052      27
Ni     6.86436872    5.28555600    5.39461694      28
Ni     3.34808270    3.51744497    3.56646371      29
Ni     5.17543070    5.28559588    3.70740096      30
Ni     5.17753464    3.44889272    5.39454997      31
Ni     3.49072392    5.28558541    5.39456547      32
Ni     3.49073549    1.68923047    1.79821185      33
          33
Lattice="   7.1928   0.0000   0.0000   0.0000   7.1928   0.0000   0.0000   0.0000   7.1928 " Time=1.498E-11  Step=3.5  Energy=-142.488  Barrier=0.151
Ni    -0.16352093   -0.21311491    0.10417577       1
Ni     1.59267543    1.68933983    7.13078184       2
Ni     1.74223474    7.33697272    1.79817330       3
Ni     7.02963878    1.68931580    1.79821437       4
Ni     3.43243352   -0.07888822   -0.03005630       5
Ni     5.27272206    1.68904551    7.13064469       6
Ni     5.12392520    7.33691222    1.79815935       7
Ni     5.12356869    3.23337625    1.79817010       8
Ni    -0.16352835   -0.21312982    3.49219355       9
Ni     1.59273037    1.68934081    3.65833290      10
Ni     1.59253375    7.14581710    5.39456145      11
Ni     7.02955211    1.68945342    5.39452104      12
Ni     3.43243824   -0.07891556    3.62641153      13
Ni     5.27265862    1.68903497    3.65847116      14
Ni     5.27271988    7.14604530    5.39457518      15
Ni     3.43227593    1.68928506    5.39456540      16
Ni    -0.16364333    3.59154300    0.10410346      17
Ni     1.74248699    5.28556438    6.93960757      18
Ni     1.74278401    3.23424297    1.79817347      19
Ni     8.09368678    5.28552449    1.79821855      20
Ni     3.43283891    3.45745262   -0.02998370      21
Ni     5.12376262    5.28598562    6.93922372      22
Ni     5.96529903    5.28491350    1.79824759      23
Ni     3.43390364    5.28573251    1.79816455      24
Ni    -0.16364809    3.59151054    3.49232200      25
Ni     1.74252832    5.28554589    3.84956800      26
Ni     1.59287347    3.42550195    5.39457894      27
Ni     7.02963726    5.28562186    5.39456978      28
Ni     3.43284428    3.45746752    3.62633942      29
Ni     5.12371915    5.28597046    3.84999140      30
Ni     5.27266110    3.42545993    5.39458777      31
Ni     3.43279589    5.28568639    5.39461706      32
Ni     3.43280191    1.68877585    1.79816503      33
          33
Lattice="   7.1928   0.0000   0.0000   0.0000   7.1928   0.0000   0.0000   0.0000   7.1928 " Time=1.498E-11  Step=4  Energy=-142.639  Barrier=0.000
Ni    -0.13886672   -0.13936107    0.02988529       1
Ni     1.68921804    1.69025146    7.15426263       2
Ni     1.68920420    7.19610335    1.79819342       3
Ni     7.19470659    1.68817681    1.79818987       4
Ni     3.51729221   -0.13937361    0.02989673       5
Ni     5.28558391    1.68817887    7.08185083       6
Ni     5.28560324    7.49347807    1.79819457       7
Ni     5.28563494    3.06801131    1.79818782       8
Ni    -0.13886568   -0.13935888    3.56649921       9
Ni     1.68921828    1.69025299    3.63488087      10
Ni     1.68922364    7.12229562    5.39457327      11
Ni     7.12227720    1.69024789    5.39457097      12
Ni     3.51729114   -0.13937144    3.56648788      13
Ni     5.28558367    1.68818634    3.70729110      14
Ni     5.28558330    7.19610445    5.39456862      15
Ni     3.44889768    1.69025455    5.39457135      16
Ni    -0.14121017    3.51910973    0.03219949      17
Ni     1.68920387    5.28481831    7.08131158      18
Ni     1.68919651    3.37694841    1.79819210      19
Ni     7.49832277    5.28814067    1.79819254      20
Ni     3.51963610    3.51914571    0.03226401      21
Ni     5.28560619    5.28815301    6.77818317      22
Ni     5.28554863    5.27878232    1.79818627      23
Ni     3.07279036    5.28816228    1.79819262      24
Ni    -0.14121306    3.51911008    3.56418049      25
Ni     1.68920396    5.28482089    3.70783520      26
Ni     1.68922892    3.44905044    5.39457047      27
Ni     7.19523891    5.28482124    5.39457126      28
Ni     3.51963884    3.51914593    3.56411612      29
Ni     5.28560601    5.28814983    4.01095427      30
Ni     5.28555027    3.37694731    5.39457486      31
Ni     3.37595380    5.28481696    5.39457141      32
Ni     3.37650242    1.68819015    1.79818968      33
          33
Lattice="   7.1928   0.0000   0.0000   0.0000   7.1928   0.0000   0.0000   0.0000   7.1928 " Time=1.774E-11  Step=4.5  Energy=-142.488  Barrier=0.151
Ni    -0.21293150   -0.21302833    0.05447699       1
Ni     1.68891663    1.68948924    7.24694880       2
Ni     1.68883398    7.14575068    1.81127671       3
Ni     7.14559363    1.68884310    1.81138809       4
Ni     3.59075109   -0.21254820    0.05421323       5
Ni     5.28552268    1.68911901    7.24688637       6
Ni     5.28491211    7.33752179    1.95971239       7
Ni     5.28609554    3.23303339    1.95963729       8
Ni    -0.07948201   -0.07928909    3.65106308       9
Ni     1.68918238    1.68927823    3.65173380      10
Ni     1.68903038    7.14571424    5.49122250      11
Ni     7.14562522    1.68899944    5.49108833      12
Ni     3.45723342   -0.07888506    3.65113286      13
Ni     5.28536894    1.68906408    3.65083908      14
Ni     5.28497221    7.33743350    5.34122277      15
Ni     3.42517191    1.68955789    5.49114899      16
Ni    -0.21247935    3.59089872    0.05453422      17
Ni     1.68875024    5.28543615    7.24722977      18
Ni     1.68943816    3.42580461    1.81159734      19
Ni     7.33777655    5.28545399    1.96067084      20
Ni     3.59134993    3.59145375    0.05481585      21
Ni     5.28635361    5.28572391    6.18280973      22
Ni     5.28603180    5.28523561    1.11898864      23
Ni     3.23368052    5.28664666    1.95939554      24
Ni    -0.07918792    3.45727118    3.65098683      25
Ni     1.69006576    5.28553572    3.65103439      26
Ni     1.68953746    3.42530977    5.49092968      27
Ni     7.33781925    5.28504517    5.34076694      28
Ni     3.45803616    3.45795494    3.65042437      29
Ni     5.28538134    5.28580085    3.64993988      30
Ni     5.28553023    3.23379378    5.34128234      31
Ni     3.23419410    5.28558988    5.34186312      32
Ni     3.42531551    1.68938137    1.81112919      33
          33
Lattice="   7.1928   0.0000   0.0000   0.0000   7.1928   0.0000   0.0000   0.0000   7.1928 " Time=1.774E-11  Step=5  Energy=-142.639  Barrier=0.000
Ni    -0.14065379   -0.14063741    0.07763510       1
Ni     1.68921862    1.68925864    7.34033309       2
Ni     1.68921832    7.12224949    1.90674948       3
Ni     7.12225562    1.68922595    1.90674077       4
Ni     3.51908488   -0.14065333    0.07761623       5
Ni     5.28559644    1.68905404    7.41265080       6
Ni     5.28558674    7.19477156    1.90752612       7
Ni     5.28558975    3.37643553    1.90750201       8
Ni    -0.13936319   -0.13935630    3.73601542       9
Ni     1.68921821    1.68923101    3.66700624      10
Ni     1.68920337    7.19520901    5.50413243      11
Ni     7.19517470    1.68920007    5.50420324      12
Ni     3.51779397   -0.13936803    3.73602956      13
Ni     5.28558910    1.68921667    3.59343669      14
Ni     5.28561097    7.49831821    5.50198786      15
Ni     3.37602329    1.68919245    5.50420511      16
Ni    -0.14058016    3.51913521    0.07755342      17
Ni     1.68920133    5.28547378    7.41264019      18
Ni     1.68921314    3.44892867    1.90673138      19
Ni     7.19478293    5.28559618    1.90751790      20
Ni     3.51900090    3.51914210    0.07754432      21
Ni     5.28555545    5.28556888    5.50719851      22
Ni     5.28559134    5.28564690    0.52619273      23
Ni     3.37640254    5.28559609    1.90751301      24
Ni    -0.13938128    3.51779919    3.73606162      25
Ni     1.68919746    5.28556303    3.59336883      26
Ni     1.68919949    3.37600604    5.50420777      27
Ni     7.49837678    5.28561012    5.50202815      28
Ni     3.51780379    3.51779874    3.73607047      29
Ni     5.28559279    5.28564805    3.29336634      30
Ni     5.28559914    3.07270251    5.50186922      31
Ni     3.07275313    5.28560343    5.50202119      32
Ni     3.44893422    1.68922348    1.90673473      33
          33
Lattice="   7.1928   0.0000   0.0000   0.0000   7.1928   0.0000   0.0000   0.0000   7.1928 " Time=2.352E-11  Step=5.5  Energy=-142.488  Barrier=0.151
Ni    -0.07897870   -0.05424304    0.13897344       1
Ni     1.68924015    1.78568470    7.36364589       2
Ni     1.68919850    7.13893314    1.90713826       3
Ni     7.14570514    1.78573340    1.90713428       4
Ni     3.45736445   -0.05429733    0.13894263       5
Ni     5.28550526    1.63568246    7.55499298       6
Ni     5.28554731    7.13836959    1.90749366       7
Ni     5.28556934    3.54154150    1.90704122       8
Ni    -0.07899713   -0.05414142    3.67530498       9
Ni     1.68922244    1.78578564    3.64333680      10
Ni     1.68937858    7.13837029    5.50348413      11
Ni     7.33704634    1.63578762    5.50350253      12
Ni     3.45738753   -0.05419411    3.67532983      13
Ni     5.28552141    1.63611153    3.45226297      14
Ni     5.28554204    7.13728701    5.50346332      15
Ni     3.23431271    1.63600715    5.50348678      16
Ni    -0.21311070    3.54200237    0.00483235      17
Ni     1.68919936    5.29850378    7.36376634      18
Ni     1.68916468    3.54164037    1.90705921      19
Ni     7.14585990    5.29851057    1.90720703      20
Ni     3.59152350    3.54201916    0.00481572      21
Ni     5.28566837    4.60587107    5.50386995      22
Ni     5.28556476    5.44761949    0.36272985      23
Ni     3.42527133    5.29847294    1.90722441      24
Ni    -0.21316506    3.54197715    3.80950019      25
Ni     1.68918258    5.29848193    3.64317817      26
Ni     1.68912649    3.54154429    5.50350005      27
Ni     7.33737263    5.44755907    5.50340632      28
Ni     3.59157914    3.54199066    3.80951635      29
Ni     5.28557996    5.44724701    3.45197120      30
Ni     5.28575854    2.47748042    5.50373858      31
Ni     3.23385141    5.44731424    5.50338966      32
Ni     3.42539775    1.78573731    1.90715091      33
          33
Lattice="   7.1928   0.0000   0.0000   0.0000   7.1928   0.0000   0.0000   0.0000   7.1928 " Time=2.352E-11  Step=6  Energy=-142.639  Barrier=0.000
Ni    -0.13890959    0.03040607    0.07905738       1
Ni     1.68920383    1.79895839    7.41319003       2
Ni     1.68921637    7.15426589    1.90715783       3
Ni     7.19523890    1.79895521    1.90717882       4
Ni     3.51733199    0.03041619    0.07904924       5
Ni     5.28560160    1.79569228    7.71635315       6
Ni     5.28558985    7.08046501    1.90717815       7
Ni     5.28559211    3.70685812    1.90718412       8
Ni    -0.13889658    0.03039318    3.73527903       9
Ni     1.68920397    1.79895414    3.59390248      10
Ni     1.68920441    7.08046561    5.50355827      11
Ni     7.49833738    1.79569866    5.50353809      12
Ni     3.51731989    0.03040373    3.73528518      13
Ni     5.28559991    1.79570307    3.29081707      14
Ni     5.28559581    6.78290027    5.50354110      15
Ni     3.07280044    1.79569610    5.50353727      16
Ni    -0.14119578    3.56467133    0.07678587      17
Ni     1.68921482    5.39357172    7.34024440      18
Ni     1.68921574    3.63474633    1.90715751      19
Ni     7.12228458    5.39357605    1.90716439      20
Ni     3.51962015    3.56465912    0.07677524      21
Ni     5.28559854    4.01561641    5.50352481      22
Ni     5.28558893    5.39554170    0.21988730      23
Ni     3.44890191    5.39357272    1.90716458      24
Ni    -0.14115430    3.56469541    3.73755099      25
Ni     1.68921418    5.39357626    3.66686455      26
Ni     1.68920280    3.70685773    5.50357669      27
Ni     7.19469704    5.39554881    5.50355913      28
Ni     3.51957866    3.56468437    3.73755878      29
Ni     5.28558935    5.39555450    3.59443830      30
Ni     5.28556435    1.80478188    5.50359317      31
Ni     3.37648677    5.39554773    5.50355883      32
Ni     3.37595194    1.79895595    1.90717821      33
          33
Lattice="   7.1928   0.0000   0.0000   0.0000   7.1928   0.0000   0.0000   0.0000   7.1928 " Time=2.441E-11  Step=6.5  Energy=-142.488  Barrier=0.151
Ni    -0.07887794   -0.03009649    0.16387746       1
Ni     1.68924258    1.79819719    7.35634375       2
Ni     1.68922052    7.13075182    2.00377168       3
Ni     7.33695140    1.79821530    1.85383205       4
Ni     3.45731725   -0.03003501    0.16385576       5
Ni     5.28557504    1.79812248    7.35525332       6
Ni     5.28559525    6.93957742    1.85393131       7
Ni     5.28558416    3.84955017    1.85382679       8
Ni    -0.21310986    0.10409284    3.75990075       9
Ni     1.68914308    1.79819089    3.75950641      10
Ni     1.68921277    7.13054272    5.51638807      11
Ni     7.33731860    1.79789627    5.66544567      12
Ni     3.59154157    0.10412316    3.75991460      13
Ni     5.28561449    1.79817677    2.69545869      14
Ni     5.28562084    6.93950340    5.66539654      15
Ni     3.23379395    1.79792974    5.66534374      16
Ni    -0.07905196    3.62636078    0.16362338      17
Ni     1.68923389    5.39447438    7.35686289      18
Ni     1.68920783    3.65830957    2.00356637      19
Ni     7.14575297    5.39448895    2.00367800      20
Ni     3.45748200    3.62630569    0.16360709      21
Ni     5.28562874    3.85025940    5.66539677      22
Ni     5.28556163    5.39474195    0.16357554      23
Ni     3.42543937    5.39449608    2.00365714      24
Ni    -0.21305186    3.49229289    3.76001251      25
Ni     1.68924588    5.39438309    3.75959317      26
Ni     1.68917715    3.65837252    5.51652458      27
Ni     7.14589492    5.39470034    5.51644195      28
Ni     3.59143910    3.49231657    3.76004033      29
Ni     5.28557603    5.39463040    3.75951154      30
Ni     5.28557082    1.79860244    4.82383722      31
Ni     3.42531558    5.39468660    5.51648468      32
Ni     3.23422418    1.79822961    1.85393024      33
          33
Lattice="   7.1928   0.0000   0.0000   0.0000   7.1928   0.0000   0.0000   0.0000   7.1928 " Time=2.441E-11  Step=7  Energy=-142.639  Barrier=0.000
Ni    -0.13897195    0.03002159    0.24837278       1
Ni     1.68920632    1.79819999    7.29851006       2
Ni     1.68923013    7.08132251    2.01688915       3
Ni     7.49836577    1.79817045    2.01385437       4
Ni     3.51744890    0.02999694    0.24853527       5
Ni     5.28560667    1.79817162    7.00046686       6
Ni     5.28551821    6.77826456    2.01386610       7
Ni     5.28557908    4.01096596    2.01383738       8
Ni    -0.14102206    0.03210524    3.78274864       9
Ni     1.68921095    1.79823978    3.92489040      10
Ni     1.68907539    7.15431495    5.61165276      11
Ni     7.19470366    1.79817980    5.61338248      12
Ni     3.51950175    0.03207921    3.78259355      13
Ni     5.28559877    1.79825117    2.02212957      14
Ni     5.28565248    7.08183204    5.61339253      15
Ni     3.37647610    1.79818814    5.61338567      16
Ni    -0.13899034    3.56635732    0.24843193      17
Ni     1.68920247    5.39454919    7.37222156      18
Ni     1.68920446    3.70779801    2.01689836      19
Ni     7.19523721    5.39451834    2.01690098      20
Ni     3.51741100    3.56638158    0.24844225      21
Ni     5.28557875    3.70719868    5.61338721      22
Ni     5.28557796    5.39463328    0.10577767      23
Ni     3.37595310    5.39458194    2.01689308      24
Ni    -0.14111260    3.56418920    3.78258791      25
Ni     1.68926927    5.39455615    3.85272145      26
Ni     1.68926025    3.63486717    5.61164885      27
Ni     7.12228725    5.39473003    5.61179808      28
Ni     3.51952093    3.56430296    3.78266377      29
Ni     5.28556512    5.39464040    3.92485122      30
Ni     5.28558768    1.79814151    4.23316358      31
Ni     3.44885005    5.39447294    5.61164625      32
Ni     3.07280725    1.79816731    2.01384824      33
          33
Lattice="   7.1928   0.0000   0.0000   0.0000   7.1928   0.0000   0.0000   0.0000   7.1928 " Time=3.593E-11  Step=7.5  Energy=-142.488  Barrier=0.151
Ni    -0.21313025    0.05457143    0.32211318       1
Ni     1.68922742    1.81106472    7.34855386       2
Ni     1.68924548    7.24690732    2.01616401       3
Ni     7.33730749    1.95997185    2.01595667       4
Ni     3.59153676    0.05455181    0.32207043       5
Ni     5.28560257    1.96006373    7.15735334       6
Ni     5.28546415    6.18285218    2.01608644       7
Ni     5.28562239    3.64987067    2.01612256       8
Ni    -0.21306471    0.05465192    3.71022805       9
Ni     1.68919784    1.81112569    3.87637464      10
Ni     1.68927805    7.24699189    5.61242228      11
Ni     7.14590995    1.81106526    5.61264239      12