ITEM: TIMESTEP
0
ITEM: NUMBER OF ATOMS
257
ITEM: BOX BOUNDS pp pp pp
0.0000000000000000e+00 1.4080000000000000e+01
0.0000000000000000e+00 1.4080000000000000e+01
0.0000000000000000e+00 1.4080000000000000e+01
ITEM: ATOMS id type x y z
1 1 0.000e+00 0.000e+00 0.000e+00
2 1 1.760e+00 1.760e+00 0.000e+00
3 1 1.760e+00 0.000e+00 1.760e+00
4 1 0.000e+00 1.760e+00 1.760e+00
257 1 1.760e+00 1.760e+00 1.760e+00
5 1 3.520e+00 0.000e+00 0.000e+00
6 1 5.280e+00 1.760e+00 0.000e+00
7 1 5.280e+00 0.000e+00 1.760e+00
8 1 3.520e+00 1.760e+00 1.760e+00
9 1 7.040e+00 0.000e+00 0.000e+00
12 1 7.040e+00 1.760e+00 1.760e+00
10 1 8.800e+00 1.760e+00 0.000e+00
11 1 8.800e+00 0.000e+00 1.760e+00
13 1 1.056e+01 0.000e+00 0.000e+00
16 1 1.056e+01 1.760e+00 1.760e+00
14 1 1.232e+01 1.760e+00 0.000e+00
15 1 1.232e+01 0.000e+00 1.760e+00
17 1 0.000e+00 3.520e+00 0.000e+00
18 1 1.760e+00 5.280e+00 0.000e+00
19 1 1.760e+00 3.520e+00 1.760e+00
20 1 0.000e+00 5.280e+00 1.760e+00
21 1 3.520e+00 3.520e+00 0.000e+00
22 1 5.280e+00 5.280e+00 0.000e+00
23 1 5.280e+00 3.520e+00 1.760e+00
24 1 3.520e+00 5.280e+00 1.760e+00
25 1 7.040e+00 3.520e+00 0.000e+00
28 1 7.040e+00 5.280e+00 1.760e+00
26 1 8.800e+00 5.280e+00 0.000e+00
27 1 8.800e+00 3.520e+00 1.760e+00
29 1 1.056e+01 3.520e+00 0.000e+00
32 1 1.056e+01 5.280e+00 1.760e+00
30 1 1.232e+01 5.280e+00 0.000e+00
31 1 1.232e+01 3.520e+00 1.760e+00
33 1 0.000e+00 0.000e+00 3.520e+00
34 1 1.760e+00 1.760e+00 3.520e+00
35 1 1.760e+00 0.000e+00 5.280e+00
36 1 0.000e+00 1.760e+00 5.280e+00
37 1 3.520e+00 0.000e+00 3.520e+00
38 1 5.280e+00 1.760e+00 3.520e+00
39 1 5.280e+00 0.000e+00 5.280e+00
40 1 3.520e+00 1.760e+00 5.280e+00
41 1 7.040e+00 0.000e+00 3.520e+00
44 1 7.040e+00 1.760e+00 5.280e+00
42 1 8.800e+00 1.760e+00 3.520e+00
43 1 8.800e+00 0.000e+00 5.280e+00
45 1 1.056e+01 0.000e+00 3.520e+00
48 1 1.056e+01 1.760e+00 5.280e+00
46 1 1.232e+01 1.760e+00 3.520e+00
47 1 1.232e+01 0.000e+00 5.280e+00
49 1 0.000e+00 3.520e+00 3.520e+00
50 1 1.760e+00 5.280e+00 3.520e+00
51 1 1.760e+00 3.520e+00 5.280e+00
52 1 0.000e+00 5.280e+00 5.280e+00
53 1 3.520e+00 3.520e+00 3.520e+00
54 1 5.280e+00 5.280e+00 3.520e+00
55 1 5.280e+00 3.520e+00 5.280e+00
56 1 3.520e+00 5.280e+00 5.280e+00
57 1 7.040e+00 3.520e+00 3.520e+00
60 1 7.040e+00 5.280e+00 5.280e+00
58 1 8.800e+00 5.280e+00 3.520e+00
59 1 8.800e+00 3.520e+00 5.280e+00
61 1 1.056e+01 3.520e+00 3.520e+00
64 1 1.056e+01 5.280e+00 5.280e+00
62 1 1.232e+01 5.280e+00 3.520e+00
63 1 1.232e+01 3.520e+00 5.280e+00
65 1 0.000e+00 0.000e+00 7.040e+00
66 1 1.760e+00 1.760e+00 7.040e+00
67 1 1.760e+00 0.000e+00 8.800e+00
68 1 0.000e+00 1.760e+00 8.800e+00
69 1 3.520e+00 0.000e+00 7.040e+00
70 1 5.280e+00 1.760e+00 7.040e+00
71 1 5.280e+00 0.000e+00 8.800e+00
72 1 3.520e+00 1.760e+00 8.800e+00
73 1 7.040e+00 0.000e+00 7.040e+00
76 1 7.040e+00 1.760e+00 8.800e+00
74 1 8.800e+00 1.760e+00 7.040e+00
75 1 8.800e+00 0.000e+00 8.800e+00
77 1 1.056e+01 0.000e+00 7.040e+00
80 1 1.056e+01 1.760e+00 8.800e+00
78 1 1.232e+01 1.760e+00 7.040e+00
79 1 1.232e+01 0.000e+00 8.800e+00
81 1 0.000e+00 3.520e+00 7.040e+00
82 1 1.760e+00 5.280e+00 7.040e+00
83 1 1.760e+00 3.520e+00 8.800e+00
84 1 0.000e+00 5.280e+00 8.800e+00
85 1 3.520e+00 3.520e+00 7.040e+00
86 1 5.280e+00 5.280e+00 7.040e+00
87 1 5.280e+00 3.520e+00 8.800e+00
88 1 3.520e+00 5.280e+00 8.800e+00
89 1 7.040e+00 3.520e+00 7.040e+00
92 1 7.040e+00 5.280e+00 8.800e+00
90 1 8.800e+00 5.280e+00 7.040e+00
91 1 8.800e+00 3.520e+00 8.800e+00
93 1 1.056e+01 3.520e+00 7.040e+00
96 1 1.056e+01 5.280e+00 8.800e+00
94 1 1.232e+01 5.280e+00 7.040e+00
95 1 1.232e+01 3.520e+00 8.800e+00
97 1 0.000e+00 0.000e+00 1.056e+01
98 1 1.760e+00 1.760e+00 1.056e+01
99 1 1.760e+00 0.000e+00 1.232e+01
100 1 0.000e+00 1.760e+00 1.232e+01
101 1 3.520e+00 0.000e+00 1.056e+01
102 1 5.280e+00 1.760e+00 1.056e+01
103 1 5.280e+00 0.000e+00 1.232e+01
104 1 3.520e+00 1.760e+00 1.232e+01
105 1 7.040e+00 0.000e+00 1.056e+01
108 1 7.040e+00 1.760e+00 1.232e+01
106 1 8.800e+00 1.760e+00 1.056e+01
107 1 8.800e+00 0.000e+00 1.232e+01
109 1 1.056e+01 0.000e+00 1.056e+01
112 1 1.056e+01 1.760e+00 1.232e+01
110 1 1.232e+01 1.760e+00 1.056e+01
111 1 1.232e+01 0.000e+00 1.232e+01
113 1 0.000e+00 3.520e+00 1.056e+01
114 1 1.760e+00 5.280e+00 1.056e+01
115 1 1.760e+00 3.520e+00 1.232e+01
116 1 0.000e+00 5.280e+00 1.232e+01
117 1 3.520e+00 3.520e+00 1.056e+01
118 1 5.280e+00 5.280e+00 1.056e+01
119 1 5.280e+00 3.520e+00 1.232e+01
120 1 3.520e+00 5.280e+00 1.232e+01
121 1 7.040e+00 3.520e+00 1.056e+01
124 1 7.040e+00 5.280e+00 1.232e+01
122 1 8.800e+00 5.280e+00 1.056e+01
123 1 8.800e+00 3.520e+00 1.232e+01
125 1 1.056e+01 3.520e+00 1.056e+01
128 1 1.056e+01 5.280e+00 1.232e+01
126 1 1.232e+01 5.280e+00 1.056e+01
127 1 1.232e+01 3.520e+00 1.232e+01
129 1 0.000e+00 7.040e+00 0.000e+00
130 1 1.760e+00 8.800e+00 0.000e+00
131 1 1.760e+00 7.040e+00 1.760e+00
132 1 0.000e+00 8.800e+00 1.760e+00
133 1 3.520e+00 7.040e+00 0.000e+00
134 1 5.280e+00 8.800e+00 0.000e+00
135 1 5.280e+00 7.040e+00 1.760e+00
136 1 3.520e+00 8.800e+00 1.760e+00
137 1 7.040e+00 7.040e+00 0.000e+00
140 1 7.040e+00 8.800e+00 1.760e+00
138 1 8.800e+00 8.800e+00 0.000e+00
139 1 8.800e+00 7.040e+00 1.760e+00
141 1 1.056e+01 7.040e+00 0.000e+00
144 1 1.056e+01 8.800e+00 1.760e+00
142 1 1.232e+01 8.800e+00 0.000e+00
143 1 1.232e+01 7.040e+00 1.760e+00
145 1 0.000e+00 1.056e+01 0.000e+00
146 1 1.760e+00 1.232e+01 0.000e+00
147 1 1.760e+00 1.056e+01 1.760e+00
148 1 0.000e+00 1.232e+01 1.760e+00
149 1 3.520e+00 1.056e+01 0.000e+00
150 1 5.280e+00 1.232e+01 0.000e+00
151 1 5.280e+00 1.056e+01 1.760e+00
152 1 3.520e+00 1.232e+01 1.760e+00
153 1 7.040e+00 1.056e+01 0.000e+00
156 1 7.040e+00 1.232e+01 1.760e+00
154 1 8.800e+00 1.232e+01 0.000e+00
155 1 8.800e+00 1.056e+01 1.760e+00
157 1 1.056e+01 1.056e+01 0.000e+00
160 1 1.056e+01 1.232e+01 1.760e+00
158 1 1.232e+01 1.232e+01 0.000e+00
159 1 1.232e+01 1.056e+01 1.760e+00
161 1 0.000e+00 7.040e+00 3.520e+00
162 1 1.760e+00 8.800e+00 3.520e+00
163 1 1.760e+00 7.040e+00 5.280e+00
164 1 0.000e+00 8.800e+00 5.280e+00
165 1 3.520e+00 7.040e+00 3.520e+00
166 1 5.280e+00 8.800e+00 3.520e+00
167 1 5.280e+00 7.040e+00 5.280e+00
168 1 3.520e+00 8.800e+00 5.280e+00
169 1 7.040e+00 7.040e+00 3.520e+00
172 1 7.040e+00 8.800e+00 5.280e+00
170 1 8.800e+00 8.800e+00 3.520e+00
171 1 8.800e+00 7.040e+00 5.280e+00
173 1 1.056e+01 7.040e+00 3.520e+00
176 1 1.056e+01 8.800e+00 5.280e+00
174 1 1.232e+01 8.800e+00 3.520e+00
175 1 1.232e+01 7.040e+00 5.280e+00
177 1 0.000e+00 1.056e+01 3.520e+00
178 1 1.760e+00 1.232e+01 3.520e+00
179 1 1.760e+00 1.056e+01 5.280e+00
180 1 0.000e+00 1.232e+01 5.280e+00
181 1 3.520e+00 1.056e+01 3.520e+00
182 1 5.280e+00 1.232e+01 3.520e+00
183 1 5.280e+00 1.056e+01 5.280e+00
184 1 3.520e+00 1.232e+01 5.280e+00
185 1 7.040e+00 1.056e+01 3.520e+00
188 1 7.040e+00 1.232e+01 5.280e+00
186 1 8.800e+00 1.232e+01 3.520e+00
187 1 8.800e+00 1.056e+01 5.280e+00
189 1 1.056e+01 1.056e+01 3.520e+00
192 1 1.056e+01 1.232e+01 5.280e+00
190 1 1.232e+01 1.232e+01 3.520e+00
191 1 1.232e+01 1.056e+01 5.280e+00
193 1 0.000e+00 7.040e+00 7.040e+00
194 1 1.760e+00 8.800e+00 7.040e+00
195 1 1.760e+00 7.040e+00 8.800e+00
196 1 0.000e+00 8.800e+00 8.800e+00
197 1 3.520e+00 7.040e+00 7.040e+00
198 1 5.280e+00 8.800e+00 7.040e+00
199 1 5.280e+00 7.040e+00 8.800e+00
200 1 3.520e+00 8.800e+00 8.800e+00
201 1 7.040e+00 7.040e+00 7.040e+00
204 1 7.040e+00 8.800e+00 8.800e+00
202 1 8.800e+00 8.800e+00 7.040e+00
203 1 8.800e+00 7.040e+00 8.800e+00
205 1 1.056e+01 7.040e+00 7.040e+00
208 1 1.056e+01 8.800e+00 8.800e+00
206 1 1.232e+01 8.800e+00 7.040e+00
207 1 1.232e+01 7.040e+00 8.800e+00
209 1 0.000e+00 1.056e+01 7.040e+00
210 1 1.760e+00 1.232e+01 7.040e+00
211 1 1.760e+00 1.056e+01 8.800e+00
212 1 0.000e+00 1.232e+01 8.800e+00
213 1 3.520e+00 1.056e+01 7.040e+00
214 1 5.280e+00 1.232e+01 7.040e+00
215 1 5.280e+00 1.056e+01 8.800e+00
216 1 3.520e+00 1.232e+01 8.800e+00
217 1 7.040e+00 1.056e+01 7.040e+00
220 1 7.040e+00 1.232e+01 8.800e+00
218 1 8.800e+00 1.232e+01 7.040e+00
219 1 8.800e+00 1.056e+01 8.800e+00
221 1 1.056e+01 1.056e+01 7.040e+00
224 1 1.056e+01 1.232e+01 8.800e+00
222 1 1.232e+01 1.232e+01 7.040e+00
223 1 1.232e+01 1.056e+01 8.800e+00
225 1 0.000e+00 7.040e+00 1.056e+01
226 1 1.760e+00 8.800e+00 1.056e+01
227 1 1.760e+00 7.040e+00 1.232e+01
228 1 0.000e+00 8.800e+00 1.232e+01
229 1 3.520e+00 7.040e+00 1.056e+01
230 1 5.280e+00 8.800e+00 1.056e+01
231 1 5.280e+00 7.040e+00 1.232e+01
232 1 3.520e+00 8.800e+00 1.232e+01
233 1 7.040e+00 7.040e+00 1.056e+01
236 1 7.040e+00 8.800e+00 1.232e+01
234 1 8.800e+00 8.800e+00 1.056e+01
235 1 8.800e+00 7.040e+00 1.232e+01
237 1 1.056e+01 7.040e+00 1.056e+01
240 1 1.056e+01 8.800e+00 1.232e+01
238 1 1.232e+01 8.800e+00 1.056e+01
239 1 1.232e+01 7.040e+00 1.232e+01
241 1 0.000e+00 1.056e+01 1.056e+01
242 1 1.760e+00 1.232e+01 1.056e+01
243 1 1.760e+00 1.056e+01 1.232e+01
244 1 0.000e+00 1.232e+01 1.232e+01
245 1 3.520e+00 1.056e+01 1.056e+01
246 1 5.280e+00 1.232e+01 1.056e+01
247 1 5.280e+00 1.056e+01 1.232e+01
248 1 3.520e+00 1.232e+01 1.232e+01
249 1 7.040e+00 1.056e+01 1.056e+01
252 1 7.040e+00 1.232e+01 1.232e+01
250 1 8.800e+00 1.232e+01 1.056e+01
251 1 8.800e+00 1.056e+01 1.232e+01
253 1 1.056e+01 1.056e+01 1.056e+01
256 1 1.056e+01 1.232e+01 1.232e+01
254 1 1.232e+01 1.232e+01 1.056e+01
255 1 1.232e+01 1.056e+01 1.232e+01
ITEM: TIMESTEP
59
ITEM: NUMBER OF ATOMS
257
ITEM: BOX BOUNDS pp pp pp
0.0000000000000000e+00 1.4080000000000000e+01
0.0000000000000000e+00 1.4080000000000000e+01
0.0000000000000000e+00 1.4080000000000000e+01
ITEM: ATOMS id type x y z
1 1 2.337e-02 2.337e-02 2.337e-02
55 1 5.293e+00 3.540e+00 5.293e+00
63 1 1.231e+01 3.540e+00 5.293e+00
4 1 1.367e+01 1.760e+00 1.760e+00
257 1 1.760e+00 1.760e+00 1.760e+00
5 1 3.497e+00 2.337e-02 2.337e-02
66 1 1.760e+00 1.760e+00 7.023e+00
57 1 7.064e+00 3.534e+00 3.534e+00
8 1 3.933e+00 1.760e+00 1.760e+00
62 1 1.231e+01 5.293e+00 3.540e+00
12 1 7.023e+00 1.760e+00 1.760e+00
54 1 5.293e+00 5.293e+00 3.540e+00
64 1 1.055e+01 5.291e+00 5.291e+00
61 1 1.054e+01 3.534e+00 3.534e+00
16 1 1.058e+01 1.760e+00 1.760e+00
131 1 1.760e+00 7.023e+00 1.760e+00
48 1 1.053e+01 1.760e+00 5.311e+00
17 1 2.337e-02 3.497e+00 2.337e-02
56 1 3.540e+00 5.293e+00 5.293e+00
19 1 1.760e+00 3.933e+00 1.760e+00
20 1 1.400e+01 5.356e+00 1.760e+00
21 1 3.497e+00 3.497e+00 2.337e-02
53 1 3.497e+00 3.497e+00 3.497e+00
23 1 5.356e+00 3.602e+00 1.760e+00
24 1 3.602e+00 5.356e+00 1.760e+00
52 1 1.406e+01 5.293e+00 5.293e+00
28 1 7.066e+00 5.311e+00 1.760e+00
51 1 1.760e+00 3.602e+00 5.356e+00
27 1 8.800e+00 3.521e+00 1.760e+00
50 1 1.760e+00 5.356e+00 3.602e+00
32 1 1.053e+01 5.311e+00 1.760e+00
49 1 2.337e-02 3.497e+00 3.497e+00
31 1 1.224e+01 3.602e+00 1.760e+00
33 1 2.337e-02 2.337e-02 3.497e+00
34 1 1.760e+00 1.760e+00 3.933e+00
46 1 1.224e+01 1.760e+00 3.602e+00
36 1 1.400e+01 1.760e+00 5.356e+00
37 1 3.497e+00 2.337e-02 3.497e+00
38 1 5.356e+00 1.760e+00 3.602e+00
59 1 8.800e+00 3.528e+00 5.293e+00
40 1 3.602e+00 1.760e+00 5.356e+00
58 1 8.800e+00 5.293e+00 3.528e+00
44 1 7.066e+00 1.760e+00 5.311e+00
42 1 8.800e+00 1.760e+00 3.521e+00
60 1 7.049e+00 5.291e+00 5.291e+00
127 1 1.231e+01 3.540e+00 1.231e+01
90 1 8.800e+00 5.289e+00 7.046e+00
126 1 1.231e+01 5.291e+00 1.055e+01
68 1 1.408e+01 1.760e+00 8.800e+00
128 1 1.055e+01 5.291e+00 1.231e+01
70 1 5.311e+00 1.760e+00 7.066e+00
125 1 1.055e+01 3.531e+00 1.055e+01
72 1 3.521e+00 1.760e+00 8.800e+00
123 1 8.800e+00 3.528e+00 1.231e+01
76 1 7.056e+00 1.760e+00 8.800e+00
30 1 1.231e+01 5.293e+00 1.406e+01
14 1 1.224e+01 1.760e+00 1.400e+01
122 1 8.800e+00 5.289e+00 1.055e+01
80 1 1.054e+01 1.760e+00 8.800e+00
78 1 1.229e+01 1.760e+00 7.066e+00
124 1 7.049e+00 5.291e+00 1.231e+01
18 1 1.760e+00 5.356e+00 1.400e+01
82 1 1.760e+00 5.311e+00 7.066e+00
83 1 1.760e+00 3.521e+00 8.800e+00
84 1 1.407e+01 5.293e+00 8.800e+00
74 1 8.800e+00 1.760e+00 7.056e+00
86 1 5.291e+00 5.291e+00 7.049e+00
87 1 5.293e+00 3.528e+00 8.800e+00
88 1 3.528e+00 5.293e+00 8.800e+00
25 1 7.064e+00 3.534e+00 1.407e+01
92 1 7.046e+00 5.289e+00 8.800e+00
6 1 5.356e+00 1.760e+00 1.400e+01
91 1 8.800e+00 3.530e+00 8.800e+00
29 1 1.054e+01 3.534e+00 1.407e+01
96 1 1.055e+01 5.289e+00 8.800e+00
94 1 1.231e+01 5.291e+00 7.049e+00
95 1 1.231e+01 3.528e+00 8.800e+00
121 1 7.048e+00 3.531e+00 1.055e+01
98 1 1.760e+00 1.760e+00 1.058e+01
81 1 1.407e+01 3.534e+00 7.064e+00
100 1 1.400e+01 1.760e+00 1.224e+01
120 1 3.540e+00 5.293e+00 1.231e+01
102 1 5.311e+00 1.760e+00 1.053e+01
119 1 5.293e+00 3.540e+00 1.231e+01
104 1 3.602e+00 1.760e+00 1.224e+01
118 1 5.291e+00 5.291e+00 1.055e+01
108 1 7.066e+00 1.760e+00 1.229e+01
106 1 8.800e+00 1.760e+00 1.054e+01
117 1 3.534e+00 3.534e+00 1.054e+01
116 1 1.406e+01 5.293e+00 1.231e+01
112 1 1.053e+01 1.760e+00 1.229e+01
110 1 1.229e+01 1.760e+00 1.053e+01
115 1 1.760e+00 3.602e+00 1.224e+01
113 1 1.407e+01 3.534e+00 1.054e+01
114 1 1.760e+00 5.311e+00 1.053e+01
2 1 1.760e+00 1.760e+00 1.367e+01
93 1 1.055e+01 3.531e+00 7.048e+00
22 1 5.293e+00 5.293e+00 1.406e+01
85 1 3.534e+00 3.534e+00 7.064e+00
26 1 8.800e+00 5.293e+00 1.407e+01
89 1 7.048e+00 3.531e+00 7.048e+00
10 1 8.800e+00 1.760e+00 1.408e+01
47 1 1.231e+01 1.406e+01 5.293e+00
35 1 1.760e+00 1.400e+01 5.356e+00
185 1 7.048e+00 1.055e+01 3.531e+00
132 1 1.408e+01 8.800e+00 1.760e+00
43 1 8.800e+00 1.407e+01 5.293e+00
7 1 5.356e+00 1.400e+01 1.760e+00
135 1 5.311e+00 7.066e+00 1.760e+00
136 1 3.521e+00 8.800e+00 1.760e+00
39 1 5.293e+00 1.406e+01 5.293e+00
140 1 7.056e+00 8.800e+00 1.760e+00
15 1 1.224e+01 1.400e+01 1.760e+00
184 1 3.540e+00 1.231e+01 5.293e+00
169 1 7.048e+00 7.048e+00 3.531e+00
144 1 1.054e+01 8.800e+00 1.760e+00
3 1 1.760e+00 1.367e+01 1.760e+00
143 1 1.229e+01 7.066e+00 1.760e+00
191 1 1.231e+01 1.055e+01 5.291e+00
171 1 8.800e+00 7.046e+00 5.289e+00
147 1 1.760e+00 1.058e+01 1.760e+00
148 1 1.400e+01 1.224e+01 1.760e+00
190 1 1.231e+01 1.231e+01 3.540e+00
192 1 1.055e+01 1.231e+01 5.291e+00
151 1 5.311e+00 1.053e+01 1.760e+00
152 1 3.602e+00 1.224e+01 1.760e+00
189 1 1.055e+01 1.055e+01 3.531e+00
156 1 7.066e+00 1.229e+01 1.760e+00
187 1 8.800e+00 1.055e+01 5.289e+00
155 1 8.800e+00 1.054e+01 1.760e+00
186 1 8.800e+00 1.231e+01 3.528e+00
160 1 1.053e+01 1.229e+01 1.760e+00
188 1 7.049e+00 1.231e+01 5.291e+00
159 1 1.229e+01 1.053e+01 1.760e+00
41 1 7.064e+00 1.407e+01 3.534e+00
162 1 1.760e+00 8.800e+00 3.521e+00
163 1 1.760e+00 7.066e+00 5.311e+00
164 1 1.407e+01 8.800e+00 5.293e+00
45 1 1.054e+01 1.407e+01 3.534e+00
166 1 5.293e+00 8.800e+00 3.528e+00
167 1 5.291e+00 7.049e+00 5.291e+00
168 1 3.528e+00 8.800e+00 5.293e+00
11 1 8.800e+00 1.408e+01 1.760e+00
172 1 7.046e+00 8.800e+00 5.289e+00
170 1 8.800e+00 8.800e+00 3.530e+00
183 1 5.291e+00 1.055e+01 5.291e+00
165 1 3.534e+00 7.064e+00 3.534e+00
176 1 1.055e+01 8.800e+00 5.289e+00
174 1 1.231e+01 8.800e+00 3.528e+00
175 1 1.231e+01 7.049e+00 5.291e+00
177 1 1.407e+01 1.054e+01 3.534e+00
178 1 1.760e+00 1.224e+01 3.602e+00
179 1 1.760e+00 1.053e+01 5.311e+00
180 1 1.406e+01 1.231e+01 5.293e+00
181 1 3.534e+00 1.054e+01 3.534e+00
182 1 5.293e+00 1.231e+01 3.540e+00
139 1 8.800e+00 7.056e+00 1.760e+00
161 1 1.407e+01 7.064e+00 3.534e+00
173 1 1.055e+01 7.048e+00 3.531e+00
202 1 8.800e+00 8.800e+00 7.045e+00
142 1 1.231e+01 8.800e+00 1.407e+01
158 1 1.231e+01 1.231e+01 1.406e+01
196 1 1.407e+01 8.800e+00 8.800e+00
203 1 8.800e+00 7.045e+00 8.800e+00
218 1 8.800e+00 1.231e+01 7.046e+00
157 1 1.055e+01 1.055e+01 1.407e+01
200 1 3.530e+00 8.800e+00 8.800e+00
154 1 8.800e+00 1.231e+01 1.407e+01
204 1 7.045e+00 8.800e+00 8.800e+00
199 1 5.289e+00 7.046e+00 8.800e+00
206 1 1.231e+01 8.800e+00 7.046e+00
153 1 7.048e+00 1.055e+01 1.407e+01
208 1 1.055e+01 8.800e+00 8.800e+00
138 1 8.800e+00 8.800e+00 1.407e+01
150 1 5.293e+00 1.231e+01 1.406e+01
201 1 7.046e+00 7.046e+00 7.046e+00
210 1 1.760e+00 1.229e+01 7.066e+00
211 1 1.760e+00 1.054e+01 8.800e+00
212 1 1.407e+01 1.231e+01 8.800e+00
221 1 1.055e+01 1.055e+01 7.046e+00
214 1 5.291e+00 1.231e+01 7.049e+00
215 1 5.289e+00 1.055e+01 8.800e+00
216 1 3.528e+00 1.231e+01 8.800e+00
75 1 8.800e+00 1.407e+01 8.800e+00
220 1 7.046e+00 1.231e+01 8.800e+00
134 1 5.293e+00 8.800e+00 1.407e+01
219 1 8.800e+00 1.055e+01 8.800e+00
207 1 1.231e+01 7.046e+00 8.800e+00
224 1 1.055e+01 1.231e+01 8.800e+00
222 1 1.231e+01 1.231e+01 7.049e+00
223 1 1.231e+01 1.055e+01 8.800e+00
217 1 7.046e+00 1.055e+01 7.046e+00
226 1 1.760e+00 8.800e+00 1.054e+01
227 1 1.760e+00 7.066e+00 1.229e+01
228 1 1.407e+01 8.800e+00 1.231e+01
205 1 1.055e+01 7.046e+00 7.046e+00
230 1 5.289e+00 8.800e+00 1.055e+01
231 1 5.291e+00 7.049e+00 1.231e+01
232 1 3.528e+00 8.800e+00 1.231e+01
235 1 8.800e+00 7.046e+00 1.231e+01
236 1 7.046e+00 8.800e+00 1.231e+01
234 1 8.800e+00 8.800e+00 1.055e+01
109 1 1.055e+01 1.407e+01 1.055e+01
198 1 5.289e+00 8.800e+00 7.046e+00
240 1 1.055e+01 8.800e+00 1.231e+01
238 1 1.231e+01 8.800e+00 1.055e+01
239 1 1.231e+01 7.049e+00 1.231e+01
241 1 1.407e+01 1.055e+01 1.055e+01
242 1 1.760e+00 1.229e+01 1.053e+01
243 1 1.760e+00 1.053e+01 1.229e+01
244 1 1.406e+01 1.231e+01 1.231e+01
245 1 3.531e+00 1.055e+01 1.055e+01
246 1 5.291e+00 1.231e+01 1.055e+01
247 1 5.291e+00 1.055e+01 1.231e+01
248 1 3.540e+00 1.231e+01 1.231e+01
249 1 7.046e+00 1.055e+01 1.055e+01
252 1 7.049e+00 1.231e+01 1.231e+01
250 1 8.800e+00 1.231e+01 1.055e+01
251 1 8.800e+00 1.055e+01 1.231e+01
253 1 1.055e+01 1.055e+01 1.055e+01
256 1 1.055e+01 1.231e+01 1.231e+01
254 1 1.231e+01 1.231e+01 1.055e+01
255 1 1.231e+01 1.055e+01 1.231e+01
194 1 1.760e+00 8.800e+00 7.056e+00
111 1 1.231e+01 1.406e+01 1.231e+01
146 1 1.760e+00 1.224e+01 1.400e+01
71 1 5.293e+00 1.407e+01 8.800e+00
233 1 7.046e+00 7.046e+00 1.055e+01
237 1 1.055e+01 7.046e+00 1.055e+01
79 1 1.231e+01 1.407e+01 8.800e+00
99 1 1.760e+00 1.400e+01 1.224e+01
195 1 1.760e+00 7.056e+00 8.800e+00
103 1 5.293e+00 1.406e+01 1.231e+01
105 1 7.048e+00 1.407e+01 1.055e+01
107 1 8.800e+00 1.407e+01 1.231e+01
101 1 3.534e+00 1.407e+01 1.054e+01
97 1 1.407e+01 1.407e+01 1.054e+01
65 1 1.407e+01 1.407e+01 7.064e+00
69 1 3.534e+00 1.407e+01 7.064e+00
145 1 1.407e+01 1.054e+01 1.407e+01
149 1 3.534e+00 1.054e+01 1.407e+01
133 1 3.534e+00 7.064e+00 1.407e+01
13 1 1.054e+01 1.407e+01 1.407e+01
9 1 7.064e+00 1.407e+01 1.407e+01
129 1 1.407e+01 7.064e+00 1.407e+01
229 1 3.531e+00 7.048e+00 1.055e+01
225 1 1.407e+01 7.048e+00 1.055e+01
141 1 1.055e+01 7.048e+00 1.407e+01
137 1 7.048e+00 7.048e+00 1.407e+01
77 1 1.055e+01 1.407e+01 7.048e+00
193 1 1.407e+01 7.048e+00 7.048e+00
73 1 7.048e+00 1.407e+01 7.048e+00
209 1 1.407e+01 1.055e+01 7.048e+00
197 1 3.531e+00 7.048e+00 7.048e+00
213 1 3.531e+00 1.055e+01 7.048e+00
67 1 1.760e+00 1.408e+01 8.800e+00
130 1 1.760e+00 8.800e+00 1.408e+01
