ITEM: TIMESTEP
0
ITEM: NUMBER OF ATOMS
109
ITEM: BOX BOUNDS pp pp pp
0.0000000000000000e+00 1.0560000000000000e+01
0.0000000000000000e+00 1.0560000000000000e+01
0.0000000000000000e+00 1.0560000000000000e+01
ITEM: ATOMS id type x y z
1 1 0.000e+00 0.000e+00 0.000e+00
2 1 1.760e+00 1.760e+00 0.000e+00
3 1 1.760e+00 0.000e+00 1.760e+00
4 1 0.000e+00 1.760e+00 1.760e+00
109 1 1.760e+00 1.760e+00 1.760e+00
5 1 3.520e+00 0.000e+00 0.000e+00
8 1 3.520e+00 1.760e+00 1.760e+00
6 1 5.280e+00 1.760e+00 0.000e+00
7 1 5.280e+00 0.000e+00 1.760e+00
9 1 7.040e+00 0.000e+00 0.000e+00
12 1 7.040e+00 1.760e+00 1.760e+00
10 1 8.800e+00 1.760e+00 0.000e+00
11 1 8.800e+00 0.000e+00 1.760e+00
13 1 0.000e+00 3.520e+00 0.000e+00
14 1 1.760e+00 3.520e+00 1.760e+00
15 1 3.520e+00 3.520e+00 0.000e+00
16 1 5.280e+00 3.520e+00 1.760e+00
17 1 7.040e+00 3.520e+00 0.000e+00
18 1 8.800e+00 3.520e+00 1.760e+00
19 1 0.000e+00 0.000e+00 3.520e+00
20 1 1.760e+00 1.760e+00 3.520e+00
21 1 3.520e+00 0.000e+00 3.520e+00
22 1 5.280e+00 1.760e+00 3.520e+00
23 1 7.040e+00 0.000e+00 3.520e+00
24 1 8.800e+00 1.760e+00 3.520e+00
25 1 0.000e+00 3.520e+00 3.520e+00
26 1 3.520e+00 3.520e+00 3.520e+00
27 1 7.040e+00 3.520e+00 3.520e+00
28 1 1.760e+00 0.000e+00 5.280e+00
29 1 0.000e+00 1.760e+00 5.280e+00
37 1 0.000e+00 0.000e+00 7.040e+00
38 1 1.760e+00 1.760e+00 7.040e+00
31 1 3.520e+00 1.760e+00 5.280e+00
41 1 3.520e+00 0.000e+00 7.040e+00
30 1 5.280e+00 0.000e+00 5.280e+00
33 1 7.040e+00 1.760e+00 5.280e+00
42 1 5.280e+00 1.760e+00 7.040e+00
45 1 7.040e+00 0.000e+00 7.040e+00
32 1 8.800e+00 0.000e+00 5.280e+00
46 1 8.800e+00 1.760e+00 7.040e+00
34 1 1.760e+00 3.520e+00 5.280e+00
49 1 0.000e+00 3.520e+00 7.040e+00
51 1 3.520e+00 3.520e+00 7.040e+00
35 1 5.280e+00 3.520e+00 5.280e+00
53 1 7.040e+00 3.520e+00 7.040e+00
36 1 8.800e+00 3.520e+00 5.280e+00
39 1 1.760e+00 0.000e+00 8.800e+00
40 1 0.000e+00 1.760e+00 8.800e+00
44 1 3.520e+00 1.760e+00 8.800e+00
43 1 5.280e+00 0.000e+00 8.800e+00
48 1 7.040e+00 1.760e+00 8.800e+00
47 1 8.800e+00 0.000e+00 8.800e+00
50 1 1.760e+00 3.520e+00 8.800e+00
52 1 5.280e+00 3.520e+00 8.800e+00
54 1 8.800e+00 3.520e+00 8.800e+00
55 1 1.760e+00 5.280e+00 0.000e+00
56 1 0.000e+00 5.280e+00 1.760e+00
61 1 0.000e+00 7.040e+00 0.000e+00
63 1 1.760e+00 7.040e+00 1.760e+00
58 1 3.520e+00 5.280e+00 1.760e+00
65 1 3.520e+00 7.040e+00 0.000e+00
57 1 5.280e+00 5.280e+00 0.000e+00
60 1 7.040e+00 5.280e+00 1.760e+00
67 1 5.280e+00 7.040e+00 1.760e+00
69 1 7.040e+00 7.040e+00 0.000e+00
59 1 8.800e+00 5.280e+00 0.000e+00
71 1 8.800e+00 7.040e+00 1.760e+00
62 1 1.760e+00 8.800e+00 0.000e+00
64 1 0.000e+00 8.800e+00 1.760e+00
68 1 3.520e+00 8.800e+00 1.760e+00
66 1 5.280e+00 8.800e+00 0.000e+00
72 1 7.040e+00 8.800e+00 1.760e+00
70 1 8.800e+00 8.800e+00 0.000e+00
73 1 1.760e+00 5.280e+00 3.520e+00
76 1 0.000e+00 7.040e+00 3.520e+00
78 1 3.520e+00 7.040e+00 3.520e+00
74 1 5.280e+00 5.280e+00 3.520e+00
80 1 7.040e+00 7.040e+00 3.520e+00
75 1 8.800e+00 5.280e+00 3.520e+00
77 1 1.760e+00 8.800e+00 3.520e+00
79 1 5.280e+00 8.800e+00 3.520e+00
81 1 8.800e+00 8.800e+00 3.520e+00
82 1 0.000e+00 5.280e+00 5.280e+00
85 1 1.760e+00 7.040e+00 5.280e+00
91 1 1.760e+00 5.280e+00 7.040e+00
97 1 0.000e+00 7.040e+00 7.040e+00
83 1 3.520e+00 5.280e+00 5.280e+00
101 1 3.520e+00 7.040e+00 7.040e+00
84 1 7.040e+00 5.280e+00 5.280e+00
87 1 5.280e+00 7.040e+00 5.280e+00
93 1 5.280e+00 5.280e+00 7.040e+00
105 1 7.040e+00 7.040e+00 7.040e+00
89 1 8.800e+00 7.040e+00 5.280e+00
95 1 8.800e+00 5.280e+00 7.040e+00
86 1 0.000e+00 8.800e+00 5.280e+00
98 1 1.760e+00 8.800e+00 7.040e+00
88 1 3.520e+00 8.800e+00 5.280e+00
90 1 7.040e+00 8.800e+00 5.280e+00
102 1 5.280e+00 8.800e+00 7.040e+00
106 1 8.800e+00 8.800e+00 7.040e+00
92 1 0.000e+00 5.280e+00 8.800e+00
99 1 1.760e+00 7.040e+00 8.800e+00
94 1 3.520e+00 5.280e+00 8.800e+00
96 1 7.040e+00 5.280e+00 8.800e+00
103 1 5.280e+00 7.040e+00 8.800e+00
107 1 8.800e+00 7.040e+00 8.800e+00
100 1 0.000e+00 8.800e+00 8.800e+00
104 1 3.520e+00 8.800e+00 8.800e+00
108 1 7.040e+00 8.800e+00 8.800e+00
ITEM: TIMESTEP
52
ITEM: NUMBER OF ATOMS
109
ITEM: BOX BOUNDS pp pp pp
0.0000000000000000e+00 1.0560000000000000e+01
0.0000000000000000e+00 1.0560000000000000e+01
0.0000000000000000e+00 1.0560000000000000e+01
ITEM: ATOMS id type x y z
1 1 2.652e-02 2.652e-02 2.652e-02
20 1 1.760e+00 1.760e+00 3.928e+00
27 1 7.040e+00 3.542e+00 3.542e+00
4 1 1.015e+01 1.760e+00 1.760e+00
109 1 1.760e+00 1.760e+00 1.760e+00
5 1 3.493e+00 2.652e-02 2.652e-02
8 1 3.928e+00 1.760e+00 1.760e+00
24 1 8.727e+00 1.760e+00 3.596e+00
25 1 2.652e-02 3.493e+00 3.493e+00
26 1 3.493e+00 3.493e+00 3.493e+00
12 1 7.040e+00 1.760e+00 1.760e+00
19 1 2.652e-02 2.652e-02 3.493e+00
22 1 5.353e+00 1.760e+00 3.596e+00
13 1 2.652e-02 3.493e+00 2.652e-02
14 1 1.760e+00 3.928e+00 1.760e+00
15 1 3.493e+00 3.493e+00 2.652e-02
16 1 5.353e+00 3.596e+00 1.760e+00
21 1 3.493e+00 2.652e-02 3.493e+00
18 1 8.727e+00 3.596e+00 1.760e+00
40 1 1.048e+01 1.760e+00 8.727e+00
17 1 7.040e+00 3.542e+00 1.054e+01
54 1 8.794e+00 3.540e+00 8.794e+00
38 1 1.760e+00 1.760e+00 7.040e+00
31 1 3.596e+00 1.760e+00 5.353e+00
52 1 5.286e+00 3.540e+00 8.794e+00
50 1 1.760e+00 3.596e+00 8.727e+00
33 1 7.040e+00 1.760e+00 5.320e+00
42 1 5.320e+00 1.760e+00 7.040e+00
48 1 7.040e+00 1.760e+00 8.760e+00
44 1 3.596e+00 1.760e+00 8.727e+00
46 1 8.760e+00 1.760e+00 7.040e+00
53 1 7.040e+00 3.542e+00 7.040e+00
49 1 1.054e+01 3.542e+00 7.040e+00
51 1 3.542e+00 3.542e+00 7.040e+00
34 1 1.760e+00 3.596e+00 5.353e+00
2 1 1.760e+00 1.760e+00 1.015e+01
6 1 5.353e+00 1.760e+00 1.048e+01
10 1 8.727e+00 1.760e+00 1.048e+01
29 1 1.048e+01 1.760e+00 5.353e+00
36 1 8.794e+00 3.540e+00 5.286e+00
35 1 5.286e+00 3.540e+00 5.286e+00
81 1 8.794e+00 8.794e+00 3.540e+00
79 1 5.286e+00 8.794e+00 3.540e+00
11 1 8.727e+00 1.048e+01 1.760e+00
63 1 1.760e+00 7.040e+00 1.760e+00
77 1 1.760e+00 8.727e+00 3.596e+00
3 1 1.760e+00 1.015e+01 1.760e+00
80 1 7.040e+00 7.040e+00 3.542e+00
60 1 7.040e+00 5.320e+00 1.760e+00
67 1 5.320e+00 7.040e+00 1.760e+00
56 1 1.048e+01 5.353e+00 1.760e+00
78 1 3.542e+00 7.040e+00 3.542e+00
71 1 8.760e+00 7.040e+00 1.760e+00
58 1 3.596e+00 5.353e+00 1.760e+00
64 1 1.048e+01 8.727e+00 1.760e+00
68 1 3.596e+00 8.727e+00 1.760e+00
76 1 1.054e+01 7.040e+00 3.542e+00
72 1 7.040e+00 8.760e+00 1.760e+00
73 1 1.760e+00 5.353e+00 3.596e+00
7 1 5.353e+00 1.048e+01 1.760e+00
23 1 7.040e+00 1.054e+01 3.542e+00
74 1 5.286e+00 5.286e+00 3.540e+00
75 1 8.794e+00 5.286e+00 3.540e+00
28 1 1.760e+00 1.048e+01 5.353e+00
85 1 1.760e+00 7.040e+00 5.320e+00
91 1 1.760e+00 5.320e+00 7.040e+00
97 1 1.054e+01 7.040e+00 7.040e+00
55 1 1.760e+00 5.353e+00 1.048e+01
101 1 3.542e+00 7.040e+00 7.040e+00
84 1 7.040e+00 5.290e+00 5.290e+00
87 1 5.290e+00 7.040e+00 5.290e+00
93 1 5.290e+00 5.290e+00 7.040e+00
105 1 7.040e+00 7.040e+00 7.040e+00
89 1 8.790e+00 7.040e+00 5.290e+00
95 1 8.790e+00 5.290e+00 7.040e+00
66 1 5.286e+00 8.794e+00 1.054e+01
98 1 1.760e+00 8.760e+00 7.040e+00
43 1 5.286e+00 1.054e+01 8.794e+00
90 1 7.040e+00 8.790e+00 5.290e+00
102 1 5.290e+00 8.790e+00 7.040e+00
106 1 8.790e+00 8.790e+00 7.040e+00
69 1 7.040e+00 7.040e+00 1.054e+01
99 1 1.760e+00 7.040e+00 8.760e+00
70 1 8.794e+00 8.794e+00 1.054e+01
96 1 7.040e+00 5.290e+00 8.790e+00
103 1 5.290e+00 7.040e+00 8.790e+00
107 1 8.790e+00 7.040e+00 8.790e+00
100 1 1.054e+01 8.794e+00 8.794e+00
104 1 3.540e+00 8.794e+00 8.794e+00
108 1 7.040e+00 8.790e+00 8.790e+00
62 1 1.760e+00 8.727e+00 1.048e+01
39 1 1.760e+00 1.048e+01 8.727e+00
47 1 8.794e+00 1.054e+01 8.794e+00
45 1 7.040e+00 1.054e+01 7.040e+00
41 1 3.542e+00 1.054e+01 7.040e+00
37 1 1.054e+01 1.054e+01 7.040e+00
61 1 1.054e+01 7.040e+00 1.054e+01
65 1 3.542e+00 7.040e+00 1.054e+01
9 1 7.040e+00 1.054e+01 1.054e+01
92 1 1.054e+01 5.286e+00 8.794e+00
59 1 8.794e+00 5.286e+00 1.054e+01
57 1 5.286e+00 5.286e+00 1.054e+01
94 1 3.540e+00 5.286e+00 8.794e+00
32 1 8.794e+00 1.054e+01 5.286e+00
86 1 1.054e+01 8.794e+00 5.286e+00
88 1 3.540e+00 8.794e+00 5.286e+00
82 1 1.054e+01 5.286e+00 5.286e+00
83 1 3.540e+00 5.286e+00 5.286e+00
30 1 5.286e+00 1.054e+01 5.286e+00
