ITEM: TIMESTEP
0
ITEM: NUMBER OF ATOMS
33
ITEM: BOX BOUNDS pp pp pp
0.0000000000000000e+00 7.0400000000000000e+00
0.0000000000000000e+00 7.0400000000000000e+00
0.0000000000000000e+00 7.0400000000000000e+00
ITEM: ATOMS id type x y z
1 1 0.000e+00 0.000e+00 0.000e+00
2 1 1.760e+00 1.760e+00 0.000e+00
3 1 1.760e+00 0.000e+00 1.760e+00
4 1 0.000e+00 1.760e+00 1.760e+00
33 1 1.760e+00 1.760e+00 1.760e+00
5 1 3.520e+00 0.000e+00 0.000e+00
6 1 5.280e+00 1.760e+00 0.000e+00
7 1 5.280e+00 0.000e+00 1.760e+00
8 1 3.520e+00 1.760e+00 1.760e+00
9 1 0.000e+00 3.520e+00 0.000e+00
10 1 1.760e+00 5.280e+00 0.000e+00
11 1 1.760e+00 3.520e+00 1.760e+00
12 1 0.000e+00 5.280e+00 1.760e+00
13 1 3.520e+00 3.520e+00 0.000e+00
14 1 5.280e+00 5.280e+00 0.000e+00
15 1 5.280e+00 3.520e+00 1.760e+00
16 1 3.520e+00 5.280e+00 1.760e+00
17 1 0.000e+00 0.000e+00 3.520e+00
18 1 1.760e+00 1.760e+00 3.520e+00
19 1 1.760e+00 0.000e+00 5.280e+00
20 1 0.000e+00 1.760e+00 5.280e+00
21 1 3.520e+00 0.000e+00 3.520e+00
22 1 5.280e+00 1.760e+00 3.520e+00
23 1 5.280e+00 0.000e+00 5.280e+00
24 1 3.520e+00 1.760e+00 5.280e+00
25 1 0.000e+00 3.520e+00 3.520e+00
26 1 1.760e+00 5.280e+00 3.520e+00
27 1 1.760e+00 3.520e+00 5.280e+00
28 1 0.000e+00 5.280e+00 5.280e+00
29 1 3.520e+00 3.520e+00 3.520e+00
30 1 5.280e+00 5.280e+00 3.520e+00
31 1 5.280e+00 3.520e+00 5.280e+00
32 1 3.520e+00 5.280e+00 5.280e+00
ITEM: TIMESTEP
1000
ITEM: NUMBER OF ATOMS
33
ITEM: BOX BOUNDS pp pp pp
-7.6381000333897386e-02 7.1163810003339734e+00
-7.6381000333897386e-02 7.1163810003339734e+00
-7.6381000333897386e-02 7.1163810003339734e+00
ITEM: ATOMS id type x y z
1 1 -4.541e-02 -4.541e-02 -4.541e-02
33 1 1.722e+00 1.722e+00 1.722e+00
5 1 3.489e+00 -4.541e-02 -4.541e-02
9 1 -4.541e-02 3.489e+00 -4.541e-02
13 1 3.489e+00 3.489e+00 -4.541e-02
17 1 -4.541e-02 -4.541e-02 3.489e+00
21 1 3.489e+00 -4.541e-02 3.489e+00
25 1 -4.541e-02 3.489e+00 3.489e+00
29 1 3.489e+00 3.489e+00 3.489e+00
4 1 6.702e+00 1.722e+00 1.722e+00
8 1 3.935e+00 1.722e+00 1.722e+00
3 1 1.722e+00 6.702e+00 1.722e+00
11 1 1.722e+00 3.935e+00 1.722e+00
7 1 5.318e+00 7.005e+00 1.722e+00
12 1 7.005e+00 5.318e+00 1.722e+00
15 1 5.318e+00 3.631e+00 1.722e+00
16 1 3.631e+00 5.318e+00 1.722e+00
2 1 1.722e+00 1.722e+00 6.702e+00
18 1 1.722e+00 1.722e+00 3.935e+00
6 1 5.318e+00 1.722e+00 7.005e+00
20 1 7.005e+00 1.722e+00 5.318e+00
22 1 5.318e+00 1.722e+00 3.631e+00
24 1 3.631e+00 1.722e+00 5.318e+00
10 1 1.722e+00 5.318e+00 7.005e+00
19 1 1.722e+00 7.005e+00 5.318e+00
26 1 1.722e+00 5.318e+00 3.631e+00
27 1 1.722e+00 3.631e+00 5.318e+00
14 1 5.318e+00 5.318e+00 7.078e+00
23 1 5.318e+00 7.078e+00 5.318e+00
28 1 7.078e+00 5.318e+00 5.318e+00
30 1 5.318e+00 5.318e+00 3.559e+00
31 1 5.318e+00 3.559e+00 5.318e+00
32 1 3.559e+00 5.318e+00 5.318e+00
ITEM: TIMESTEP
1010
ITEM: NUMBER OF ATOMS
33
ITEM: BOX BOUNDS pp pp pp
-7.6381229336297388e-02 7.1163812293363753e+00
-7.6381229336297388e-02 7.1163812293363753e+00
-7.6381229336297388e-02 7.1163812293363753e+00
ITEM: ATOMS id type x y z
1 1 -4.541e-02 -4.541e-02 -4.541e-02
33 1 1.722e+00 1.722e+00 1.722e+00
5 1 3.489e+00 -4.541e-02 -4.541e-02
9 1 -4.541e-02 3.489e+00 -4.541e-02
13 1 3.489e+00 3.489e+00 -4.541e-02
17 1 -4.541e-02 -4.541e-02 3.489e+00
21 1 3.489e+00 -4.541e-02 3.489e+00
25 1 -4.541e-02 3.489e+00 3.489e+00
29 1 3.489e+00 3.489e+00 3.489e+00
4 1 6.702e+00 1.722e+00 1.722e+00
8 1 3.935e+00 1.722e+00 1.722e+00
3 1 1.722e+00 6.702e+00 1.722e+00
11 1 1.722e+00 3.935e+00 1.722e+00
7 1 5.318e+00 7.005e+00 1.722e+00
12 1 7.005e+00 5.318e+00 1.722e+00
15 1 5.318e+00 3.631e+00 1.722e+00
16 1 3.631e+00 5.318e+00 1.722e+00
2 1 1.722e+00 1.722e+00 6.702e+00
18 1 1.722e+00 1.722e+00 3.935e+00
6 1 5.318e+00 1.722e+00 7.005e+00
20 1 7.005e+00 1.722e+00 5.318e+00
22 1 5.318e+00 1.722e+00 3.631e+00
24 1 3.631e+00 1.722e+00 5.318e+00
10 1 1.722e+00 5.318e+00 7.005e+00
19 1 1.722e+00 7.005e+00 5.318e+00
26 1 1.722e+00 5.318e+00 3.631e+00
27 1 1.722e+00 3.631e+00 5.318e+00
14 1 5.318e+00 5.318e+00 7.078e+00
23 1 5.318e+00 7.078e+00 5.318e+00
28 1 7.078e+00 5.318e+00 5.318e+00
30 1 5.318e+00 5.318e+00 3.559e+00
31 1 5.318e+00 3.559e+00 5.318e+00
32 1 3.559e+00 5.318e+00 5.318e+00
