LAMMPS data file via write_data, version 27 May 2021, timestep = 2841

5 atoms
1 atom types

-0.4102297237474831 3.9302297237477393 xlo xhi
-0.4102297237474831 3.9302297237477393 ylo yhi
-0.4102297237474831 3.9302297237477393 zlo zhi

Masses

1 58.71

Atoms # atomic

1 1 -0.4102297237474825 -0.4102297237474825 -0.4102297237474825 0 0 0
2 1 1.7600000000001061 1.7600000000001061 3.930229723747734 0 0 -1
3 1 1.7600000000001061 3.930229723747734 1.7600000000001061 0 -1 0
4 1 3.930229723747734 1.7600000000001061 1.7600000000001061 -1 0 0
5 1 1.760000000000115 1.760000000000115 1.760000000000115 0 0 0

Velocities

1 0 0 0
2 0 0 0
3 0 0 0
4 0 0 0
5 0 0 0
