ITEM: TIMESTEP
0
ITEM: NUMBER OF ATOMS
18
ITEM: BOX BOUNDS pp pp pp
0.0 24.8920002
0.0 24.8920002
0.0 24.8920002
ITEM: ATOMS id type x y z DisplacementX DisplacementY DisplacementZ
1 3 0.0226512 -0.0438963 3.4919741 0.0 0.0 0.0
2 1 0.0058869 3.4015801 -0.0344211 0.0 0.0 0.0
3 1 -0.0088818 -0.0608649 -3.5631795 0.0 0.0 0.0
4 1 0.0035433 -3.5337553 -0.0160236 0.0 0.0 0.0
5 1 -3.5681119 -0.0545083 -0.0667777 0.0 0.0 0.0
6 1 3.5762916 -0.0457832 -0.0499078 0.0 0.0 0.0
7 3 -1.7701522 -0.0080684 1.7340489 0.0 0.0 0.0
8 1 1.767934 -0.0382956 1.7269836 0.0 0.0 0.0
9 1 -1.8295557 1.6537327 -0.1107491 0.0 0.0 0.0
10 1 1.821469 1.6862473 -0.0670827 0.0 0.0 0.0
11 2 -0.0022836 -1.8054476 1.7540828 0.0 0.0 0.0
12 1 -0.0063601 1.6774848 -1.8369897 0.0 0.0 0.0
13 3 0.0051141 -1.777423 -1.7947924 0.0 0.0 0.0
14 2 -1.8725288 -1.7522568 -0.0938509 0.0 0.0 0.0
15 2 1.8592308 -1.7420248 -0.0755723 0.0 0.0 0.0
16 2 -1.8268888 0.032821 -1.762026 0.0 0.0 0.0
17 2 1.8219348 -0.0393915 -1.8041232 0.0 0.0 0.0
18 3 0.0 0.0 0.0 0.0 0.0 0.0
ITEM: TIMESTEP
1
ITEM: NUMBER OF ATOMS
18
ITEM: BOX BOUNDS pp pp pp
0.0 24.8920002
0.0 24.8920002
0.0 24.8920002
ITEM: ATOMS id type x y z DisplacementX DisplacementY DisplacementZ
1 3 0.0141343 -0.0412881 3.486697 -0.0085169 0.0026082 -0.0052772
2 1 0.00275 3.4071069 -0.0596882 -0.0031369 0.0055268 -0.0252671
3 1 -0.0063273 -0.0585523 -3.5759828 0.0025545 0.0023126 -0.0128033
4 1 0.0038956 -3.536479 -0.0112873 3.523e-04 -0.0027237 0.0047363
5 1 -3.6255985 -0.0761905 -0.0666571 -0.0574865 -0.0216822 1.205951e-04
6 1 3.6469012 -0.0558521 -0.0631574 0.0706096 -0.0100689 -0.0132496
7 3 -1.906053 -0.0625464 1.7664012 -0.1359007 -0.054478 0.0323523
8 1 1.8928528 -0.1058677 1.7325772 0.1249188 -0.0675721 0.0055937
9 1 -1.9417982 1.6358332 -0.1511747 -0.1122426 -0.0178995 -0.0404256
10 1 1.9497646 1.6794716 -0.1317596 0.1282957 -0.0067756 -0.0646769
11 2 -0.0074418 -1.6645612 1.6505714 -0.0051582 0.1408864 -0.1035115
12 1 -0.0221102 1.5861846 -1.73648 -0.0157501 -0.0913001 0.1005096
13 3 0.0065311 -1.7482528 -1.764964 0.001417 0.0291703 0.0298284
14 2 -1.8122634 -1.682498 -0.0627505 0.0602654 0.0697588 0.0311004
15 2 1.8052752 -1.6713168 -0.0519252 -0.0539556 0.070708 0.0236471
16 2 -1.7683696 0.0248217 -1.7351786 0.0585192 -0.0079993 0.0268474
17 2 1.7528755 -0.0072445 -1.7525093 -0.0690594 0.032147 0.0516139
18 3 -3.2363e-04 1.1567426 1.1319877 -3.2363e-04 1.1567426 1.1319877
ITEM: TIMESTEP
2
ITEM: NUMBER OF ATOMS
18
ITEM: BOX BOUNDS pp pp pp
0.0 24.8920002
0.0 24.8920002
0.0 24.8920002
ITEM: ATOMS id type x y z DisplacementX DisplacementY DisplacementZ
1 3 0.0226078 -0.0679494 3.5274627 -4.339963e-05 -0.0240531 0.0354886
2 1 5.3511e-04 3.4547332 -0.0623389 -0.0053518 0.053153 -0.0279178
3 1 -0.0089281 -0.0660402 -3.587236 -4.6299773e-05 -0.0051753 -0.0240564
4 1 0.0062029 -3.5669825 -0.0222426 0.0026596 -0.0332272 -0.006219
5 1 -3.5837069 -0.0627552 -0.0698748 -0.015595 -0.0082469 -0.0030971
6 1 3.60498 -0.041012 -0.0631917 0.0286884 0.0047712 -0.0132839
7 3 -1.7721032 -0.0494113 1.716249 -0.001951 -0.0413429 -0.0177999
8 1 1.7359178 -0.083384 1.6523795 -0.0320162 -0.0450884 -0.074604
9 1 -1.7932452 1.6083545 -0.1046979 0.0363104 -0.0453782 0.0060512
10 1 1.7785595 1.6384713 -0.095041 -0.0429095 -0.047776 -0.0279583
11 2 0.0086733 -1.7480697 1.6768333 0.0109569 0.0573779 -0.0772495
12 1 -0.0311286 1.5914061 -1.7715708 -0.0247685 -0.0860786 0.0654188
13 3 0.0088533 -1.7420495 -1.756737 0.0037392 0.0353736 0.0380554
14 2 -1.8274784 -1.7423656 -0.0871122 0.0450504 0.0098912 0.0067387
15 2 1.8202092 -1.717808 -0.0748553 -0.0390216 0.0242168 7.1699915e-04
16 2 -1.7808236 0.024543 -1.7423548 0.0460652 -0.008278 0.0196712
17 2 1.7678032 -0.020197 -1.7763832 -0.0541316 0.0191945 0.02774
18 3 -0.0074088 1.6809812 1.7000176 -0.0074088 1.6809812 1.7000176
