ITEM: TIMESTEP
0
ITEM: NUMBER OF ATOMS
18
ITEM: BOX BOUNDS pp pp pp
0.0 24.8920002
0.0 24.8920002
0.0 24.8920002
ITEM: ATOMS id type x y z
1 3 0.0226512 -0.0438963 3.4919739
2 1 0.0058869 3.4015801 -0.0344211
3 1 -0.0088818 -0.0608649 -3.5631795
4 1 0.0035433 -3.5337553 -0.0160236
5 1 -3.5681119 -0.0545083 -0.0667777
6 1 3.5762916 -0.0457832 -0.0499078
7 3 -1.7701522 -0.0080684 1.7340489
8 1 1.7679341 -0.0382956 1.7269836
9 1 -1.8295555 1.6537327 -0.1107491
10 1 1.821469 1.6862473 -0.0670827
11 2 -0.0022836 -1.8054476 1.7540829
12 1 -0.0063601 1.6774848 -1.8369897
13 3 0.0051141 -1.777423 -1.7947923
14 2 -1.8725288 -1.7522568 -0.0938509
15 2 1.8592308 -1.7420248 -0.0755723
16 2 -1.8268887 0.032821 -1.7620261
17 2 1.8219347 -0.0393915 -1.8041232
18 3 0.0 0.0 0.0
ITEM: TIMESTEP
1
ITEM: NUMBER OF ATOMS
18
ITEM: BOX BOUNDS pp pp pp
0.0 24.8920002
0.0 24.8920002
0.0 24.8920002
ITEM: ATOMS id type x y z
1 3 0.0141343 -0.0412881 3.486697
2 1 0.00275 3.4071069 -0.0596882
3 1 -0.0063273 -0.0585523 -3.5759828
4 1 0.0038956 -3.536479 -0.0112873
5 1 -3.6255985 -0.0761905 -0.0666571
6 1 3.6469012 -0.0558521 -0.0631574
7 3 -1.906053 -0.0625464 1.7664013
8 1 1.8928528 -0.1058677 1.7325773
9 1 -1.9417982 1.6358332 -0.1511747
10 1 1.9497646 1.6794715 -0.1317596
11 2 -0.0074418 -1.6645612 1.6505714
12 1 -0.0221102 1.5861846 -1.7364801
13 3 0.0065311 -1.7482528 -1.7649641
14 2 -1.8122634 -1.682498 -0.0627505
15 2 1.8052751 -1.6713168 -0.0519252
16 2 -1.7683695 0.0248217 -1.7351786
17 2 1.7528754 -0.0072445 -1.7525091
18 3 -3.2363e-04 1.1567426 1.1319877
ITEM: TIMESTEP
2
ITEM: NUMBER OF ATOMS
18
ITEM: BOX BOUNDS pp pp pp
0.0 24.8920002
0.0 24.8920002
0.0 24.8920002
ITEM: ATOMS id type x y z
1 3 0.0226078 -0.0679494 3.5274627
2 1 5.3511e-04 3.4547332 -0.0623389
3 1 -0.0089281 -0.0660402 -3.5872362
4 1 0.0062029 -3.5669825 -0.0222426
5 1 -3.5837069 -0.0627552 -0.0698748
6 1 3.6049798 -0.041012 -0.0631917
7 3 -1.7721031 -0.0494113 1.716249
8 1 1.7359178 -0.083384 1.6523795
9 1 -1.7932451 1.6083545 -0.1046979
10 1 1.7785594 1.6384713 -0.095041
11 2 0.0086733 -1.7480697 1.6768333
12 1 -0.0311286 1.5914061 -1.7715707
13 3 0.0088533 -1.7420494 -1.756737
14 2 -1.8274784 -1.7423657 -0.0871122
15 2 1.8202093 -1.717808 -0.0748553
16 2 -1.7808237 0.024543 -1.7423548
17 2 1.7678031 -0.020197 -1.7763831
18 3 -0.0074088 1.6809812 1.7000175
