1453
Lattice=" 38.72 0.0 0.0 0.0 38.72 0.0 0.0 0.0 10.56 " Time=0.000000e+00  Step=0  Energy=0.0  Barrier=0.000000e+00
Ni -1.759510e+01 -1.760491e+01 -3.521022e+00 1
Ni -1.583825e+01 -1.584292e+01 -3.521351e+00 2
Ni -1.583787e+01 -1.760420e+01 -1.761370e+00 3
Ni -1.759586e+01 -1.584369e+01 -1.761082e+00 4
Ni -1.408017e+01 -1.760323e+01 -3.521681e+00 5
Ni -1.232198e+01 -1.584318e+01 -3.521438e+00 6
Ni -1.232275e+01 -1.760427e+01 -1.761318e+00 7
Ni -1.408036e+01 -1.584289e+01 -1.761870e+00 8
Ni -1.056490e+01 -1.760508e+01 -3.520794e+00 9
Ni -8.807495e+00 -1.584559e+01 -3.520517e+00 10
Ni -8.808139e+00 -1.760701e+01 -1.760360e+00 11
Ni -1.056462e+01 -1.584398e+01 -1.761035e+00 12
Ni -7.051445e+00 -1.761008e+01 -3.520099e+00 13
Ni -5.295279e+00 -1.585293e+01 -3.520464e+00 14
Ni -5.293774e+00 -1.761318e+01 -1.760059e+00 15
Ni -7.050878e+00 -1.584890e+01 -1.760001e+00 16
Ni -3.536404e+00 -1.761669e+01 -3.521176e+00 17
Ni -1.781660e+00 -1.586166e+01 -3.521479e+00 18
Ni -1.777862e+00 -1.761916e+01 -1.760174e+00 19
Ni -3.538989e+00 -1.585775e+01 -1.760032e+00 20
Ni -1.669397e-02 -1.761967e+01 -3.521774e+00 21
Ni 1.738724e+00 -1.586710e+01 -3.523626e+00 22
Ni 1.745472e+00 -1.761925e+01 -1.760184e+00 23
Ni -2.375710e-02 -1.586588e+01 -1.760343e+00 24
Ni 3.513436e+00 -1.761490e+01 -3.525123e+00 25
Ni 5.279609e+00 -1.586515e+01 -3.532190e+00 26
Ni 5.280021e+00 -1.760952e+01 -1.761191e+00 27
Ni 3.501624e+00 -1.587323e+01 -1.760447e+00 28
Ni 7.046600e+00 -1.761478e+01 -3.525173e+00 29
Ni 8.821035e+00 -1.586694e+01 -3.523766e+00 30
Ni 8.814731e+00 -1.761893e+01 -1.760240e+00 31
Ni 7.058206e+00 -1.587342e+01 -1.760731e+00 32
Ni 1.057668e+01 -1.761905e+01 -3.521772e+00 33
Ni 1.234194e+01 -1.586152e+01 -3.521229e+00 34
Ni 1.233756e+01 -1.761895e+01 -1.759864e+00 35
Ni 1.058364e+01 -1.586558e+01 -1.760258e+00 36
Ni 1.409581e+01 -1.761701e+01 -3.520712e+00 37
Ni 1.585465e+01 -1.585306e+01 -3.520257e+00 38
Ni 1.585308e+01 -1.761358e+01 -1.760104e+00 39
Ni 1.409876e+01 -1.585742e+01 -1.760011e+00 40
Ni 1.761077e+01 -1.761014e+01 -3.519857e+00 41
Ni 1.936685e+01 -1.584571e+01 -3.520695e+00 42
Ni 1.936786e+01 -1.760697e+01 -1.760590e+00 43
Ni 1.761034e+01 -1.584877e+01 -1.760154e+00 44
Ni -1.759658e+01 -1.408270e+01 -3.521689e+00 45
Ni -1.583836e+01 -1.232108e+01 -3.522875e+00 46
Ni -1.583813e+01 -1.408184e+01 -1.762309e+00 47
Ni -1.759666e+01 -1.232187e+01 -1.762115e+00 48
Ni -1.407996e+01 -1.408191e+01 -3.522483e+00 49
Ni -1.232113e+01 -1.232108e+01 -3.522682e+00 50
Ni -1.232210e+01 -1.408193e+01 -1.762411e+00 51
Ni -1.407984e+01 -1.232064e+01 -1.763322e+00 52
Ni -1.056373e+01 -1.408276e+01 -3.521284e+00 53
Ni -8.804880e+00 -1.232263e+01 -3.520776e+00 54
Ni -8.806072e+00 -1.408413e+01 -1.760510e+00 55
Ni -1.056300e+01 -1.232169e+01 -1.761690e+00 56
Ni -7.049496e+00 -1.408653e+01 -3.520513e+00 57
Ni -5.291010e+00 -1.232731e+01 -3.521358e+00 58
Ni -5.294066e+00 -1.409098e+01 -1.759856e+00 59
Ni -7.046546e+00 -1.232354e+01 -1.760786e+00 60
Ni -3.539644e+00 -1.409679e+01 -3.521640e+00 61
Ni -1.787141e+00 -1.234124e+01 -3.523585e+00 62
Ni -1.785729e+00 -1.410364e+01 -1.760354e+00 63
Ni -3.539247e+00 -1.233431e+01 -1.760189e+00 64
Ni -2.837691e-02 -1.410841e+01 -3.522702e+00 65
Ni 1.723222e+00 -1.235695e+01 -3.515115e+00 66
Ni 1.728385e+00 -1.411707e+01 -1.760629e+00 67
Ni -3.687749e-02 -1.235162e+01 -1.760790e+00 68
Ni 3.493524e+00 -1.412114e+01 -3.517969e+00 69
Ni 5.279863e+00 -1.242595e+01 -3.425103e+00 70
Ni 5.280081e+00 -1.416958e+01 -1.760836e+00 71
Ni 3.482221e+00 -1.236847e+01 -1.760597e+00 72
Ni 7.065973e+00 -1.412152e+01 -3.517925e+00 73
Ni 8.836609e+00 -1.235748e+01 -3.514532e+00 74
Ni 8.831191e+00 -1.411743e+01 -1.760635e+00 75
Ni 7.077692e+00 -1.236857e+01 -1.760609e+00 76
Ni 1.058814e+01 -1.410866e+01 -3.522551e+00 77
Ni 1.234665e+01 -1.234158e+01 -3.523684e+00 78
Ni 1.234563e+01 -1.410346e+01 -1.760449e+00 79
Ni 1.059663e+01 -1.235203e+01 -1.760561e+00 80
Ni 1.409980e+01 -1.409625e+01 -3.521627e+00 81
Ni 1.585146e+01 -1.232666e+01 -3.521230e+00 82
Ni 1.585386e+01 -1.409039e+01 -1.760215e+00 83
Ni 1.409889e+01 -1.233401e+01 -1.760463e+00 84
Ni 1.760912e+01 -1.408659e+01 -3.520280e+00 85
Ni 1.936464e+01 -1.232267e+01 -3.521035e+00 86
Ni 1.936607e+01 -1.408412e+01 -1.760859e+00 87
Ni 1.760699e+01 -1.232326e+01 -1.760774e+00 88
Ni -1.759721e+01 -1.056129e+01 -3.522194e+00 89
Ni -1.583870e+01 -8.800052e+00 -3.523106e+00 90
Ni -1.583849e+01 -1.056049e+01 -1.763003e+00 91
Ni -1.759728e+01 -8.799792e+00 -1.762630e+00 92
Ni -1.407978e+01 -1.056030e+01 -3.523460e+00 93
Ni -1.232084e+01 -8.800059e+00 -3.522650e+00 94
Ni -1.232119e+01 -1.056050e+01 -1.762494e+00 95
Ni -1.407976e+01 -8.800122e+00 -1.763213e+00 96
Ni -1.056239e+01 -1.056109e+01 -3.521739e+00 97
Ni -8.803197e+00 -8.800118e+00 -3.521274e+00 98
Ni -8.803272e+00 -1.056070e+01 -1.761699e+00 99
Ni -1.056190e+01 -8.799756e+00 -1.762352e+00 100
Ni -7.045224e+00 -1.056171e+01 -3.520978e+00 101
Ni -5.287255e+00 -8.799338e+00 -3.522181e+00 102
Ni -5.286745e+00 -1.056279e+01 -1.760946e+00 103
Ni -7.043758e+00 -8.799330e+00 -1.761161e+00 104
Ni -3.534991e+00 -1.056633e+01 -3.524715e+00 105
Ni -1.785682e+00 -8.800247e+00 -3.532166e+00 106
Ni -1.793132e+00 -1.057831e+01 -1.760492e+00 107
Ni -3.529630e+00 -8.799896e+00 -1.760956e+00 108
Ni -4.094391e-02 -1.058639e+01 -3.518132e+00 109
Ni 1.654977e+00 -8.800204e+00 -3.425949e+00 110
Ni 1.711562e+00 -1.059767e+01 -1.760750e+00 111
Ni -8.925392e-02 -8.799801e+00 -1.761716e+00 112
Ni 3.483763e+00 -1.059617e+01 -3.483164e+00 113
Ni 5.279980e+00 -8.800171e+00 -3.541231e+00 114
Ni 5.280186e+00 -1.057364e+01 -1.761939e+00 115
Ni 3.506302e+00 -8.799663e+00 -1.761509e+00 116
Ni 7.076378e+00 -1.059662e+01 -3.483213e+00 117
Ni 8.906388e+00 -8.800354e+00 -3.424820e+00 118
Ni 8.848296e+00 -1.059788e+01 -1.760399e+00 119
Ni 7.054049e+00 -8.799652e+00 -1.761957e+00 120
Ni 1.060099e+01 -1.058695e+01 -3.517546e+00 121
Ni 1.234504e+01 -8.800213e+00 -3.530967e+00 122
Ni 1.235261e+01 -1.057851e+01 -1.760301e+00 123
Ni 1.064906e+01 -8.799832e+00 -1.760522e+00 124
Ni 1.409453e+01 -1.056645e+01 -3.524130e+00 125
Ni 1.584722e+01 -8.799646e+00 -3.521368e+00 126
Ni 1.584694e+01 -1.056267e+01 -1.760612e+00 127
Ni 1.408952e+01 -8.799685e+00 -1.760735e+00 128
Ni 1.760583e+01 -1.056130e+01 -3.520764e+00 129
Ni 1.936403e+01 -8.799966e+00 -3.521472e+00 130
Ni 1.936406e+01 -1.056080e+01 -1.761822e+00 131
Ni 1.760451e+01 -8.799301e+00 -1.761036e+00 132
Ni -1.759750e+01 -7.039140e+00 -3.522646e+00 133
Ni -1.583829e+01 -5.279141e+00 -3.523785e+00 134
Ni -1.583807e+01 -7.039342e+00 -1.763382e+00 135
Ni -1.759620e+01 -5.278336e+00 -1.762859e+00 136
Ni -1.407974e+01 -7.039704e+00 -3.523961e+00 137
Ni -1.232140e+01 -5.279376e+00 -3.523380e+00 138
Ni -1.232138e+01 -7.039487e+00 -1.763177e+00 139
Ni -1.407981e+01 -5.279261e+00 -1.763394e+00 140
Ni -1.056213e+01 -7.039380e+00 -3.522160e+00 141
Ni -8.805110e+00 -5.277002e+00 -3.521475e+00 142
Ni -8.803098e+00 -7.038248e+00 -1.761927e+00 143
Ni -1.056339e+01 -5.278094e+00 -1.762550e+00 144
Ni -7.045551e+00 -7.037407e+00 -3.521348e+00 145
Ni -5.291255e+00 -5.272167e+00 -3.521599e+00 146
Ni -5.286946e+00 -7.036238e+00 -1.761127e+00 147
Ni -7.046973e+00 -5.275164e+00 -1.761034e+00 148
Ni -3.534852e+00 -7.033243e+00 -3.525093e+00 149
Ni -1.786672e+00 -5.259023e+00 -3.523987e+00 150
Ni -1.793458e+00 -7.021860e+00 -1.760987e+00 151
Ni -3.538945e+00 -5.265332e+00 -1.760505e+00 152
Ni -4.135298e-02 -7.014190e+00 -3.518229e+00 153
Ni 1.722488e+00 -5.243387e+00 -3.514925e+00 154
Ni 1.711553e+00 -7.002300e+00 -1.761091e+00 155
Ni -3.728162e-02 -5.248912e+00 -1.760986e+00 156
Ni 3.483545e+00 -7.004012e+00 -3.483802e+00 157
Ni 5.279558e+00 -5.173926e+00 -3.425952e+00 158
Ni 5.280146e+00 -7.025880e+00 -1.762481e+00 159
Ni 3.481977e+00 -5.231914e+00 -1.761244e+00 160
Ni 7.076273e+00 -7.003806e+00 -3.483853e+00 161
Ni 8.837150e+00 -5.243097e+00 -3.515217e+00 162
Ni 8.848258e+00 -7.002055e+00 -1.760812e+00 163
Ni 7.077959e+00 -5.231823e+00 -1.761413e+00 164
Ni 1.060119e+01 -7.013709e+00 -3.517975e+00 165
Ni 1.234633e+01 -5.258743e+00 -3.523951e+00 166
Ni 1.235274e+01 -7.021297e+00 -1.760688e+00 167
Ni 1.059658e+01 -5.248500e+00 -1.760774e+00 168
Ni 1.409472e+01 -7.033158e+00 -3.524504e+00 169
Ni 1.585172e+01 -5.272626e+00 -3.521614e+00 170
Ni 1.584708e+01 -7.036234e+00 -1.761013e+00 171
Ni 1.409883e+01 -5.265423e+00 -1.760871e+00 172
Ni 1.760588e+01 -7.037859e+00 -3.521037e+00 173
Ni 1.936495e+01 -5.277151e+00 -3.521858e+00 174
Ni 1.936412e+01 -7.038309e+00 -1.761977e+00 175
Ni 1.760739e+01 -5.275510e+00 -1.761046e+00 176
Ni -1.759627e+01 -3.517250e+00 -3.522261e+00 177
Ni -1.583795e+01 -1.757389e+00 -3.522114e+00 178
Ni -1.583790e+01 -3.518453e+00 -1.762801e+00 179
Ni -1.759531e+01 -1.756059e+00 -1.761366e+00 180
Ni -1.407989e+01 -3.518545e+00 -3.523218e+00 181
Ni -1.232229e+01 -1.757176e+00 -3.522064e+00 182
Ni -1.232210e+01 -3.518212e+00 -1.762693e+00 183
Ni -1.408019e+01 -1.757825e+00 -1.761888e+00 184
Ni -1.056409e+01 -3.517203e+00 -3.522091e+00 185
Ni -8.807728e+00 -1.754267e+00 -3.520842e+00 186
Ni -8.806796e+00 -3.515550e+00 -1.761124e+00 187
Ni -1.056495e+01 -1.756070e+00 -1.761177e+00 188
Ni -7.049840e+00 -3.513257e+00 -3.521081e+00 189
Ni -5.295272e+00 -1.747654e+00 -3.520892e+00 190
Ni -5.293835e+00 -3.508577e+00 -1.760113e+00 191
Ni -7.051133e+00 -1.751472e+00 -1.760373e+00 192
Ni -3.539180e+00 -3.503486e+00 -3.521823e+00 193
Ni -1.781738e+00 -1.738183e+00 -3.521240e+00 194
Ni -1.785471e+00 -3.496586e+00 -1.760536e+00 195
Ni -3.538981e+00 -1.742574e+00 -1.760039e+00 196
Ni -2.865981e-02 -3.491675e+00 -3.522725e+00 197
Ni 1.738400e+00 -1.733231e+00 -3.523807e+00 198
Ni 1.728030e+00 -3.483474e+00 -1.760826e+00 199
Ni -2.343526e-02 -1.734539e+00 -1.760604e+00 200
Ni 3.492833e+00 -3.478968e+00 -3.517926e+00 201
Ni 5.279851e+00 -1.735051e+00 -3.530844e+00 202
Ni 5.280090e+00 -3.431266e+00 -1.761355e+00 203
Ni 3.501487e+00 -1.727484e+00 -1.760582e+00 204
Ni 7.066485e+00 -3.478954e+00 -3.518085e+00 205
Ni 8.821457e+00 -1.733683e+00 -3.523913e+00 206
Ni 8.831530e+00 -3.483446e+00 -1.760828e+00 207
Ni 7.058646e+00 -1.727360e+00 -1.760660e+00 208
Ni 1.058833e+01 -3.491650e+00 -3.522815e+00 209
Ni 1.234171e+01 -1.738274e+00 -3.520798e+00 210
Ni 1.234515e+01 -3.496865e+00 -1.760540e+00 211
Ni 1.058314e+01 -1.734952e+00 -1.760459e+00 212
Ni 1.409935e+01 -3.503667e+00 -3.521593e+00 213
Ni 1.585488e+01 -1.747530e+00 -3.520657e+00 214
Ni 1.585405e+01 -3.509142e+00 -1.760303e+00 215
Ni 1.409892e+01 -1.742753e+00 -1.760031e+00 216
Ni 1.760972e+01 -3.513138e+00 -3.521024e+00 217
Ni 1.936733e+01 -1.754115e+00 -3.520945e+00 218
Ni 1.936682e+01 -3.515751e+00 -1.761287e+00 219
Ni 1.761075e+01 -1.751530e+00 -1.760389e+00 220
Ni -1.759494e+01 4.846653e-03 -3.520991e+00 221
Ni -1.583742e+01 1.764155e+00 -3.521700e+00 222
Ni -1.583730e+01 3.687582e-03 -1.761394e+00 223
Ni -1.759448e+01 1.765648e+00 -1.760970e+00 224
Ni -1.408023e+01 2.718032e-03 -3.522182e+00 225
Ni -1.232273e+01 1.763924e+00 -3.521566e+00 226
Ni -1.232296e+01 3.658899e-03 -1.761367e+00 227
Ni -1.408022e+01 1.763931e+00 -1.761765e+00 228
Ni -1.056509e+01 4.787479e-03 -3.520877e+00 229
Ni -8.808070e+00 1.767476e+00 -3.520443e+00 230
Ni -8.808151e+00 6.984896e-03 -1.760497e+00 231
Ni -1.056562e+01 1.765739e+00 -1.761016e+00 232
Ni -7.051463e+00 9.743948e-03 -3.520393e+00 233
Ni -5.292733e+00 1.771689e+00 -3.520328e+00 234
Ni -5.294568e+00 1.234363e-02 -1.759872e+00 235
Ni -7.050307e+00 1.769471e+00 -1.760282e+00 236
Ni -3.537069e+00 1.608898e-02 -3.520600e+00 237
Ni -1.772933e+00 1.774760e+00 -3.520288e+00 238
Ni -1.777315e+00 1.873308e-02 -1.760211e+00 239
Ni -3.533633e+00 1.773012e+00 -1.760193e+00 240
Ni -1.636862e-02 1.969453e-02 -3.521884e+00 241
Ni 1.753385e+00 1.771714e+00 -3.521238e+00 242
Ni 1.745844e+00 1.886080e-02 -1.760770e+00 243
Ni -1.045224e-02 1.773795e+00 -1.760422e+00 244
Ni 3.513618e+00 1.467223e-02 -3.524128e+00 245
Ni 5.280430e+00 1.767524e+00 -3.521190e+00 246
Ni 5.280219e+00 9.620761e-03 -1.760604e+00 247
Ni 3.517147e+00 1.767121e+00 -1.760573e+00 248
Ni 7.046719e+00 1.474367e-02 -3.524226e+00 249
Ni 8.806942e+00 1.771948e+00 -3.521393e+00 250
Ni 8.814523e+00 1.876659e-02 -1.760767e+00 251
Ni 7.043649e+00 1.767169e+00 -1.760561e+00 252
Ni 1.057621e+01 1.940898e-02 -3.521676e+00 253
Ni 1.233267e+01 1.774802e+00 -3.520533e+00 254
Ni 1.233715e+01 1.894325e-02 -1.760021e+00 255
Ni 1.057070e+01 1.773926e+00 -1.760458e+00 256
Ni 1.409647e+01 1.617599e-02 -3.520602e+00 257
Ni 1.585248e+01 1.772354e+00 -3.520076e+00 258
Ni 1.585394e+01 1.293983e-02 -1.760029e+00 259
Ni 1.409326e+01 1.773570e+00 -1.760052e+00 260
Ni 1.761109e+01 9.920030e-03 -3.520133e+00 261
Ni 1.936785e+01 1.767466e+00 -3.520264e+00 262
Ni 1.936792e+01 6.857662e-03 -1.760597e+00 263
Ni 1.761009e+01 1.769943e+00 -1.760308e+00 264
Ni -1.759521e+01 3.525630e+00 -3.521087e+00 265
Ni -1.583784e+01 5.284247e+00 -3.521701e+00 266
Ni -1.583744e+01 3.524685e+00 -1.761441e+00 267
Ni -1.759545e+01 5.285160e+00 -1.761308e+00 268
Ni -1.408002e+01 3.524120e+00 -3.522013e+00 269
Ni -1.232218e+01 5.284219e+00 -3.521942e+00 270
Ni -1.232276e+01 3.524713e+00 -1.761648e+00 271
Ni -1.408000e+01 5.284123e+00 -1.762124e+00 272
Ni -1.056503e+01 3.525573e+00 -3.521385e+00 273
Ni -8.806080e+00 5.286094e+00 -3.521221e+00 274
Ni -8.807170e+00 3.527031e+00 -1.761201e+00 275
Ni -1.056447e+01 5.285098e+00 -1.761941e+00 276
Ni -7.048990e+00 3.528833e+00 -3.520531e+00 277
Ni -5.287699e+00 5.287804e+00 -3.520239e+00 278
Ni -5.289997e+00 3.529614e+00 -1.760354e+00 279
Ni -7.047279e+00 5.287025e+00 -1.760911e+00 280
Ni -3.530254e+00 3.530643e+00 -3.519919e+00 281
Ni -1.765686e+00 5.286659e+00 -3.520767e+00 282
Ni -1.768917e+00 3.530150e+00 -1.760241e+00 283
Ni -3.526982e+00 5.287749e+00 -1.760645e+00 284
Ni -6.580192e-03 3.529257e+00 -3.520256e+00 285
Ni 1.757249e+00 5.284652e+00 -3.520868e+00 286
Ni 1.756552e+00 3.527027e+00 -1.760753e+00 287
Ni -4.183648e-03 5.285973e+00 -1.760641e+00 288
Ni 3.518809e+00 3.525917e+00 -3.520541e+00 289
Ni 5.279950e+00 5.284379e+00 -3.521296e+00 290
Ni 5.280551e+00 3.524775e+00 -1.760861e+00 291
Ni 3.519084e+00 5.284215e+00 -1.761652e+00 292
Ni 7.041942e+00 3.526122e+00 -3.520638e+00 293
Ni 8.802869e+00 5.284962e+00 -3.521369e+00 294
Ni 8.804292e+00 3.527429e+00 -1.760799e+00 295
Ni 7.041609e+00 5.284460e+00 -1.761832e+00 296
Ni 1.056672e+01 3.529632e+00 -3.520644e+00 297
Ni 1.232577e+01 5.287145e+00 -3.520662e+00 298
Ni 1.232865e+01 3.530426e+00 -1.760305e+00 299
Ni 1.056418e+01 5.286504e+00 -1.760878e+00 300
Ni 1.409015e+01 3.531002e+00 -3.519948e+00 301
Ni 1.584764e+01 5.287955e+00 -3.520001e+00 302
Ni 1.585003e+01 3.530087e+00 -1.760196e+00 303
Ni 1.408677e+01 5.287902e+00 -1.760479e+00 304
Ni 1.760918e+01 3.529168e+00 -3.520439e+00 305
Ni 1.936625e+01 5.286306e+00 -3.520857e+00 306
Ni 1.936729e+01 3.527338e+00 -1.760840e+00 307
Ni 1.760746e+01 5.287373e+00 -1.760644e+00 308
Ni -1.759608e+01 7.043948e+00 -3.521604e+00 309
Ni -1.583798e+01 8.801854e+00 -3.522359e+00 310
Ni -1.583786e+01 7.043548e+00 -1.761895e+00 311
Ni -1.759642e+01 8.802380e+00 -1.761723e+00 312
Ni -1.407992e+01 7.043070e+00 -3.522179e+00 313
Ni -1.232172e+01 8.801887e+00 -3.522241e+00 314
Ni -1.232187e+01 7.043502e+00 -1.762145e+00 315
Ni -1.407999e+01 8.801789e+00 -1.762221e+00 316
Ni -1.056376e+01 7.044063e+00 -3.521923e+00 317
Ni -8.804534e+00 8.802316e+00 -3.521876e+00 318
Ni -8.805228e+00 7.044612e+00 -1.761531e+00 319
Ni -1.056349e+01 8.802364e+00 -1.761664e+00 320
Ni -7.046011e+00 7.044871e+00 -3.521319e+00 321
Ni -5.284671e+00 8.802579e+00 -3.521654e+00 322
Ni -5.286042e+00 7.045413e+00 -1.761312e+00 323
Ni -7.045250e+00 8.802704e+00 -1.761733e+00 324
Ni -3.524885e+00 7.044767e+00 -3.521282e+00 325
Ni -1.762677e+00 8.801574e+00 -3.521848e+00 326
Ni -1.763617e+00 7.043987e+00 -1.761350e+00 327
Ni -3.523987e+00 8.801857e+00 -1.761704e+00 328
Ni -2.599101e-03 7.043236e+00 -3.521918e+00 329
Ni 1.758638e+00 8.801975e+00 -3.523121e+00 330
Ni 1.758056e+00 7.043354e+00 -1.762050e+00 331
Ni -1.727209e-03 8.801807e+00 -1.762533e+00 332
Ni 3.518495e+00 7.043163e+00 -3.522243e+00 333
Ni 5.279892e+00 8.801689e+00 -3.523375e+00 334
Ni 5.280028e+00 7.043045e+00 -1.762722e+00 335
Ni 3.519239e+00 8.801677e+00 -1.763204e+00 336
Ni 7.041123e+00 7.042856e+00 -3.522477e+00 337
Ni 8.801105e+00 8.802040e+00 -3.523455e+00 338
Ni 8.801774e+00 7.043774e+00 -1.762524e+00 339
Ni 7.040617e+00 8.801997e+00 -1.763317e+00 340
Ni 1.056260e+01 7.043613e+00 -3.521927e+00 341
Ni 1.232253e+01 8.801914e+00 -3.521803e+00 342
Ni 1.232378e+01 7.044493e+00 -1.761200e+00 343
Ni 1.056159e+01 8.802057e+00 -1.762399e+00 344
Ni 1.408480e+01 7.045068e+00 -3.520963e+00 345
Ni 1.584429e+01 8.802477e+00 -3.521578e+00 346
Ni 1.584567e+01 7.045471e+00 -1.760855e+00 347
Ni 1.408374e+01 8.802336e+00 -1.761225e+00 348
Ni 1.760577e+01 7.044807e+00 -3.520999e+00 349
Ni 1.936430e+01 8.802197e+00 -3.521624e+00 350
Ni 1.936531e+01 7.044655e+00 -1.761225e+00 351
Ni 1.760473e+01 8.802588e+00 -1.761573e+00 352
Ni -1.759680e+01 1.056000e+01 -3.521980e+00 353
Ni -1.583815e+01 1.231826e+01 -3.521932e+00 354
Ni -1.583820e+01 1.056001e+01 -1.762070e+00 355
Ni -1.759652e+01 1.231820e+01 -1.761888e+00 356
Ni -1.407989e+01 1.056010e+01 -3.522422e+00 357
Ni -1.232162e+01 1.231854e+01 -3.521997e+00 358
Ni -1.232168e+01 1.056018e+01 -1.762018e+00 359
Ni -1.407986e+01 1.231823e+01 -1.761975e+00 360
Ni -1.056317e+01 1.056017e+01 -3.522121e+00 361
Ni -8.804358e+00 1.231796e+01 -3.522044e+00 362
Ni -8.804565e+00 1.056018e+01 -1.761947e+00 363
Ni -1.056328e+01 1.231815e+01 -1.761851e+00 364
Ni -7.044704e+00 1.055997e+01 -3.522214e+00 365
Ni -5.284557e+00 1.231719e+01 -3.521392e+00 366
Ni -5.284450e+00 1.055972e+01 -1.761800e+00 367
Ni -7.045304e+00 1.231731e+01 -1.761858e+00 368
Ni -3.523201e+00 1.055960e+01 -3.521839e+00 369
Ni -1.763284e+00 1.231784e+01 -3.521860e+00 370
Ni -1.762611e+00 1.055942e+01 -1.762199e+00 371
Ni -3.524090e+00 1.231687e+01 -1.761342e+00 372
Ni -1.737928e-03 1.056021e+01 -3.522852e+00 373
Ni 1.759166e+00 1.231890e+01 -3.522974e+00 374
Ni 1.759282e+00 1.056025e+01 -1.763270e+00 375
Ni -1.899183e-03 1.231783e+01 -1.762702e+00 376
Ni 3.519549e+00 1.056045e+01 -3.523520e+00 377
Ni 5.279785e+00 1.231926e+01 -3.522671e+00 378
Ni 5.279719e+00 1.056017e+01 -1.763302e+00 379
Ni 3.519435e+00 1.231898e+01 -1.762671e+00 380
Ni 7.040211e+00 1.056053e+01 -3.523763e+00 381
Ni 8.800728e+00 1.231892e+01 -3.523117e+00 382
Ni 8.800690e+00 1.056031e+01 -1.763204e+00 383
Ni 7.040399e+00 1.231873e+01 -1.763073e+00 384
Ni 1.056152e+01 1.056028e+01 -3.522766e+00 385
Ni 1.232326e+01 1.231779e+01 -3.521695e+00 386
Ni 1.232231e+01 1.055960e+01 -1.761828e+00 387
Ni 1.056191e+01 1.231795e+01 -1.762446e+00 388
Ni 1.408291e+01 1.055970e+01 -3.521712e+00 389
Ni 1.584405e+01 1.231727e+01 -3.521146e+00 390
Ni 1.584397e+01 1.055967e+01 -1.761609e+00 391
Ni 1.408379e+01 1.231679e+01 -1.760844e+00 392
Ni 1.760430e+01 1.055993e+01 -3.521982e+00 393
Ni 1.936427e+01 1.231770e+01 -3.521830e+00 394
Ni 1.936426e+01 1.056017e+01 -1.761792e+00 395
Ni 1.760470e+01 1.231725e+01 -1.761591e+00 396
Ni -1.759595e+01 1.407619e+01 -3.521631e+00 397
Ni -1.583789e+01 1.583548e+01 -3.521700e+00 398
Ni -1.583764e+01 1.407654e+01 -1.761447e+00 399
Ni -1.759548e+01 1.583483e+01 -1.761374e+00 400
Ni -1.408011e+01 1.407675e+01 -3.521974e+00 401
Ni -1.232215e+01 1.583547e+01 -3.521803e+00 402
Ni -1.232202e+01 1.407671e+01 -1.761661e+00 403
Ni -1.407995e+01 1.583538e+01 -1.761919e+00 404
Ni -1.056360e+01 1.407642e+01 -3.521783e+00 405
Ni -8.805985e+00 1.583402e+01 -3.521699e+00 406
Ni -8.804958e+00 1.407578e+01 -1.761978e+00 407
Ni -1.056423e+01 1.583494e+01 -1.761717e+00 408
Ni -7.045713e+00 1.407512e+01 -3.521659e+00 409
Ni -5.287515e+00 1.583221e+01 -3.520429e+00 410
Ni -5.286015e+00 1.407440e+01 -1.761223e+00 411
Ni -7.047209e+00 1.583302e+01 -1.761419e+00 412
Ni -3.525177e+00 1.407497e+01 -3.520742e+00 413
Ni -1.765695e+00 1.583224e+01 -3.520818e+00 414
Ni -1.764082e+00 1.407511e+01 -1.761189e+00 415
Ni -3.527004e+00 1.583180e+01 -1.760380e+00 416
Ni -2.879354e-03 1.407583e+01 -3.521771e+00 417
Ni 1.757302e+00 1.583480e+01 -3.521198e+00 418
Ni 1.758352e+00 1.407707e+01 -1.762255e+00 419
Ni -4.213612e-03 1.583366e+01 -1.761060e+00 420
Ni 3.519471e+00 1.407801e+01 -3.522075e+00 421
Ni 5.280249e+00 1.583741e+01 -3.521286e+00 422
Ni 5.280169e+00 1.407831e+01 -1.762275e+00 423
Ni 3.519289e+00 1.583704e+01 -1.761832e+00 424
Ni 7.040545e+00 1.407802e+01 -3.522084e+00 425
Ni 8.803054e+00 1.583477e+01 -3.521363e+00 426
Ni 8.801898e+00 1.407675e+01 -1.762496e+00 427
Ni 7.041530e+00 1.583707e+01 -1.761815e+00 428
Ni 1.056309e+01 1.407578e+01 -3.521934e+00 429
Ni 1.232592e+01 1.583212e+01 -3.520703e+00 430
Ni 1.232411e+01 1.407488e+01 -1.760902e+00 431
Ni 1.056458e+01 1.583318e+01 -1.761013e+00 432
Ni 1.408512e+01 1.407486e+01 -3.520461e+00 433
Ni 1.584754e+01 1.583206e+01 -3.520309e+00 434
Ni 1.584582e+01 1.407438e+01 -1.760647e+00 435
Ni 1.408705e+01 1.583186e+01 -1.760413e+00 436
Ni 1.760557e+01 1.407501e+01 -3.521237e+00 437
Ni 1.936608e+01 1.583378e+01 -3.521088e+00 438
Ni 1.936503e+01 1.407556e+01 -1.761698e+00 439
Ni 1.760705e+01 1.583288e+01 -1.760991e+00 440
Ni -1.759516e+01 1.759399e+01 -3.521185e+00 441
Ni -1.583731e+01 1.935540e+01 -3.521468e+00 442
Ni -1.583725e+01 1.759477e+01 -1.761572e+00 443
Ni -1.759464e+01 1.935387e+01 -1.761191e+00 444
Ni -1.407999e+01 1.759528e+01 -3.522055e+00 445
Ni -1.232280e+01 1.935542e+01 -3.521331e+00 446
Ni -1.232274e+01 1.759463e+01 -1.761639e+00 447
Ni -1.408012e+01 1.935550e+01 -1.761702e+00 448
Ni -1.056506e+01 1.759416e+01 -3.521401e+00 449
Ni -8.807866e+00 1.935236e+01 -3.520315e+00 450
Ni -8.806928e+00 1.759270e+01 -1.761328e+00 451
Ni -1.056546e+01 1.935389e+01 -1.761204e+00 452
Ni -7.048561e+00 1.759141e+01 -3.520671e+00 453
Ni -5.292114e+00 1.934780e+01 -3.520595e+00 454
Ni -5.289568e+00 1.758998e+01 -1.760384e+00 455
Ni -7.049879e+00 1.935037e+01 -1.760252e+00 456
Ni -3.530016e+00 1.758853e+01 -3.520314e+00 457
Ni -1.772697e+00 1.934446e+01 -3.520759e+00 458
Ni -1.768820e+00 1.758885e+01 -1.760335e+00 459
Ni -3.533117e+00 1.934590e+01 -1.760230e+00 460
Ni -6.429803e-03 1.759024e+01 -3.520884e+00 461
Ni 1.752546e+00 1.934891e+01 -3.521459e+00 462
Ni 1.756253e+00 1.759324e+01 -1.761189e+00 463
Ni -1.110646e-02 1.934582e+01 -1.760101e+00 464
Ni 3.518118e+00 1.759478e+01 -3.520967e+00 465
Ni 5.280306e+00 1.935279e+01 -3.522300e+00 466
Ni 5.280558e+00 1.759659e+01 -1.761009e+00 467
Ni 3.517069e+00 1.935336e+01 -1.760953e+00 468
Ni 7.042712e+00 1.759475e+01 -3.521288e+00 469
Ni 8.807990e+00 1.934889e+01 -3.521476e+00 470
Ni 8.804686e+00 1.759308e+01 -1.761174e+00 471
Ni 7.043657e+00 1.935324e+01 -1.761079e+00 472
Ni 1.056667e+01 1.759010e+01 -3.521057e+00 473
Ni 1.233217e+01 1.934472e+01 -3.520894e+00 474
Ni 1.232865e+01 1.758881e+01 -1.760373e+00 475
Ni 1.057146e+01 1.934607e+01 -1.760102e+00 476
Ni 1.408970e+01 1.758855e+01 -3.520597e+00 477
Ni 1.585167e+01 1.934751e+01 -3.520495e+00 478
Ni 1.584948e+01 1.758976e+01 -1.760428e+00 479
Ni 1.409244e+01 1.934537e+01 -1.760123e+00 480
Ni 1.760878e+01 1.759115e+01 -3.520515e+00 481
Ni 1.936777e+01 1.935242e+01 -3.520157e+00 482
Ni 1.936686e+01 1.759268e+01 -1.760944e+00 483
Ni 1.760962e+01 1.935015e+01 -1.760229e+00 484
Ni -1.759527e+01 -1.760525e+01 -1.118199e-03 485
Ni -1.583840e+01 -1.584285e+01 -1.869228e-03 486
Ni -1.583735e+01 -1.760337e+01 1.758340e+00 487
Ni -1.759634e+01 -1.584422e+01 1.758450e+00 488
Ni -1.408024e+01 -1.760327e+01 -1.622804e-03 489
Ni -1.232240e+01 -1.584257e+01 -1.967360e-03 490
Ni -1.232271e+01 -1.760352e+01 1.758002e+00 491
Ni -1.408013e+01 -1.584159e+01 1.757759e+00 492
Ni -1.056536e+01 -1.760531e+01 -1.169863e-03 493
Ni -8.807173e+00 -1.584596e+01 -4.267814e-04 494
Ni -8.807810e+00 -1.760725e+01 1.759239e+00 495
Ni -1.056437e+01 -1.584408e+01 1.758339e+00 496
Ni -7.050795e+00 -1.761010e+01 -1.703543e-04 497
Ni -5.294696e+00 -1.585274e+01 7.405016e-04 498
Ni -5.294147e+00 -1.761340e+01 1.760770e+00 499
Ni -7.050476e+00 -1.584871e+01 1.759779e+00 500
Ni -3.536206e+00 -1.761626e+01 1.207261e-03 501
Ni -1.781574e+00 -1.586159e+01 1.755991e-03 502
Ni -1.776922e+00 -1.761829e+01 1.762006e+00 503
Ni -3.538137e+00 -1.585695e+01 1.761964e+00 504
Ni -1.683822e-02 -1.761940e+01 1.696897e-03 505
Ni 1.738498e+00 -1.586674e+01 2.942793e-03 506
Ni 1.749151e+00 -1.761629e+01 1.761770e+00 507
Ni -2.157921e-02 -1.586288e+01 1.763224e+00 508
Ni 3.513276e+00 -1.761468e+01 3.473994e-03 509
Ni 5.279966e+00 -1.586534e+01 1.044340e-02 510
Ni 5.279994e+00 -1.761367e+01 1.765031e+00 511
Ni 3.512226e+00 -1.585662e+01 1.762547e+00 512
Ni 7.046843e+00 -1.761437e+01 3.281162e-03 513
Ni 8.821372e+00 -1.586656e+01 3.121083e-03 514
Ni 8.810628e+00 -1.761571e+01 1.761560e+00 515
Ni 7.047363e+00 -1.585617e+01 1.762859e+00 516
Ni 1.057686e+01 -1.761900e+01 1.860414e-03 517
Ni 1.234151e+01 -1.586131e+01 1.578497e-03 518
Ni 1.233655e+01 -1.761800e+01 1.762003e+00 519
Ni 1.058154e+01 -1.586239e+01 1.763190e+00 520
Ni 1.409589e+01 -1.761662e+01 7.328870e-04 521
Ni 1.585431e+01 -1.585256e+01 4.748152e-06 522
Ni 1.585400e+01 -1.761341e+01 1.760028e+00 523
Ni 1.409797e+01 -1.585716e+01 1.761192e+00 524
Ni 1.761040e+01 -1.761019e+01 -5.932720e-04 525
Ni 1.936665e+01 -1.584578e+01 -7.968519e-04 526
Ni 1.936724e+01 -1.760724e+01 1.759057e+00 527
Ni 1.761017e+01 -1.584844e+01 1.759125e+00 528
Ni -1.759629e+01 -1.408275e+01 -1.559159e-03 529
Ni -1.583813e+01 -1.232153e+01 -2.784707e-03 530
Ni -1.583854e+01 -1.408214e+01 1.757985e+00 531
Ni -1.759661e+01 -1.232166e+01 1.757598e+00 532
Ni -1.408016e+01 -1.408145e+01 -2.613749e-03 533
Ni -1.232153e+01 -1.232162e+01 -2.743562e-03 534
Ni -1.232162e+01 -1.408193e+01 1.758070e+00 535
Ni -1.407999e+01 -1.232178e+01 1.757581e+00 536
Ni -1.056392e+01 -1.408284e+01 -1.616879e-03 537
Ni -8.804743e+00 -1.232200e+01 -1.852564e-03 538
Ni -8.806317e+00 -1.408410e+01 1.758391e+00 539
Ni -1.056298e+01 -1.232144e+01 1.757497e+00 540
Ni -7.049366e+00 -1.408621e+01 -4.196955e-04 541
Ni -5.291327e+00 -1.232667e+01 5.182888e-04 542
Ni -5.293504e+00 -1.409003e+01 1.760364e+00 543
Ni -7.048308e+00 -1.232406e+01 1.758747e+00 544
Ni -3.539233e+00 -1.409659e+01 1.677432e-03 545
Ni -1.786473e+00 -1.234161e+01 2.897809e-03 546
Ni -1.782943e+00 -1.410152e+01 1.763389e+00 547
Ni -3.536190e+00 -1.233067e+01 1.761934e+00 548
Ni -2.870286e-02 -1.410881e+01 1.673498e-03 549
Ni 1.722590e+00 -1.235733e+01 -6.561944e-03 550
Ni 1.731592e+00 -1.410980e+01 1.763380e+00 551
Ni -2.989274e-02 -1.234850e+01 1.763485e+00 552
Ni 3.493831e+00 -1.412120e+01 -3.214960e-03 553
Ni 5.280253e+00 -1.242563e+01 -9.748311e-02 554
Ni 5.279949e+00 -1.408516e+01 1.748793e+00 555
Ni 3.469794e+00 -1.236746e+01 1.753576e+00 556
Ni 7.066271e+00 -1.412147e+01 -3.266874e-03 557
Ni 8.837419e+00 -1.235764e+01 -6.478221e-03 558
Ni 8.828376e+00 -1.410988e+01 1.763713e+00 559
Ni 7.090643e+00 -1.236775e+01 1.753464e+00 560
Ni 1.058854e+01 -1.410862e+01 1.714824e-03 561
Ni 1.234653e+01 -1.234156e+01 2.905780e-03 562
Ni 1.234326e+01 -1.410132e+01 1.763266e+00 563
Ni 1.059008e+01 -1.234866e+01 1.763783e+00 564
Ni 1.409894e+01 -1.409618e+01 1.349665e-03 565
Ni 1.585108e+01 -1.232640e+01 6.343062e-05 566
Ni 1.585303e+01 -1.408994e+01 1.759731e+00 567
Ni 1.409631e+01 -1.233022e+01 1.761849e+00 568
Ni 1.760909e+01 -1.408580e+01 -8.459232e-04 569
Ni 1.936514e+01 -1.232221e+01 -2.033813e-03 570
Ni 1.936599e+01 -1.408399e+01 1.758375e+00 571
Ni 1.760769e+01 -1.232397e+01 1.758648e+00 572
Ni -1.759689e+01 -1.056090e+01 -2.907507e-03 573
Ni -1.583817e+01 -8.800021e+00 -3.157016e-03 574
Ni -1.583830e+01 -1.056108e+01 1.756758e+00 575
Ni -1.759729e+01 -8.800214e+00 1.756600e+00 576
Ni -1.407995e+01 -1.056094e+01 -2.862349e-03 577
Ni -1.232122e+01 -8.799958e+00 -3.071882e-03 578
Ni -1.232131e+01 -1.056116e+01 1.756379e+00 579
Ni -1.407971e+01 -8.800206e+00 1.756962e+00 580
Ni -1.056222e+01 -1.056052e+01 -2.800880e-03 581
Ni -8.803486e+00 -8.799232e+00 -2.269669e-03 582
Ni -8.804453e+00 -1.056053e+01 1.757722e+00 583
Ni -1.056283e+01 -8.799935e+00 1.756828e+00 584
Ni -7.045397e+00 -1.056102e+01 -1.392423e-03 585
Ni -5.286513e+00 -8.799654e+00 6.497890e-06 586
Ni -5.290611e+00 -1.056329e+01 1.760605e+00 587
Ni -7.046543e+00 -8.799257e+00 1.758487e+00 588
Ni -3.534567e+00 -1.056672e+01 3.609770e-03 589
Ni -1.784735e+00 -8.800107e+00 9.976504e-03 590
Ni -1.776335e+00 -1.056786e+01 1.762616e+00 591
Ni -3.533640e+00 -8.800175e+00 1.764695e+00 592
Ni -4.107487e-02 -1.058625e+01 -3.499322e-03 593
Ni 1.653596e+00 -8.799488e+00 -9.802873e-02 594
Ni 1.711890e+00 -1.061032e+01 1.753633e+00 595
Ni -5.243253e-03 -8.800058e+00 1.748760e+00 596
Ni 3.484231e+00 -1.059577e+01 -3.876841e-02 597
Ni 5.280328e+00 -8.799374e+00 1.574632e-02 598
Ni 5.280451e+00 -1.083620e+01 1.600068e+00 599
Ni 3.242441e+00 -8.799842e+00 1.599017e+00 600
Ni 7.076223e+00 -1.059571e+01 -3.863037e-02 601
Ni 8.905900e+00 -8.799719e+00 -9.708592e-02 602
Ni 8.848446e+00 -1.061032e+01 1.753728e+00 603
Ni 7.316550e+00 -8.800258e+00 1.600498e+00 604
Ni 1.060107e+01 -1.058653e+01 -3.300518e-03 605
Ni 1.234455e+01 -8.799845e+00 9.872655e-03 606
Ni 1.233662e+01 -1.056782e+01 1.762748e+00 607
Ni 1.056586e+01 -8.800073e+00 1.748905e+00 608
Ni 1.409423e+01 -1.056639e+01 3.341646e-03 609
Ni 1.584689e+01 -8.799400e+00 -2.908850e-04 610
Ni 1.585041e+01 -1.056275e+01 1.760257e+00 611
Ni 1.409343e+01 -8.799973e+00 1.764395e+00 612
Ni 1.760593e+01 -1.056114e+01 -1.502143e-03 613
Ni 1.936426e+01 -8.799500e+00 -2.362949e-03 614
Ni 1.936452e+01 -1.056137e+01 1.757460e+00 615
Ni 1.760701e+01 -8.799333e+00 1.757979e+00 616
Ni -1.759674e+01 -7.038768e+00 -2.955970e-03 617
Ni -1.583797e+01 -5.278759e+00 -2.669770e-03 618
Ni -1.583866e+01 -7.039531e+00 1.756750e+00 619
Ni -1.759636e+01 -5.277610e+00 1.757826e+00 620
Ni -1.407965e+01 -7.039474e+00 -2.899005e-03 621
Ni -1.232163e+01 -5.278545e+00 -2.909210e-03 622
Ni -1.232086e+01 -7.039162e+00 1.756827e+00 623
Ni -1.407995e+01 -5.278982e+00 1.757419e+00 624
Ni -1.056260e+01 -7.038581e+00 -3.185318e-03 625