ITEM: TIMESTEP
0
ITEM: NUMBER OF ATOMS
1453
ITEM: BOX BOUNDS xy xz yz pp pp pp
                     -1.84800000000000e+01 2.02400000000000e+01 0.00000000000000e+00
-1.84800000000000e+01	2.02400000000000e+01	0.00000000000000e+00
-4.40000000000000e+00	6.16000000000000e+00	0.00000000000000e+00
ITEM: ATOMS id type x y z ux uy uz
1 1 -1.760e+01 -1.760e+01 -3.521e+00 0.000e+00 0.000e+00 0.000e+00
2 1 -1.584e+01 -1.584e+01 -3.521e+00 0.000e+00 0.000e+00 0.000e+00
3 1 -1.584e+01 -1.760e+01 -1.761e+00 0.000e+00 0.000e+00 0.000e+00
4 1 -1.760e+01 -1.584e+01 -1.761e+00 0.000e+00 0.000e+00 0.000e+00
5 1 -1.408e+01 -1.760e+01 -3.522e+00 0.000e+00 0.000e+00 0.000e+00
6 1 -1.232e+01 -1.584e+01 -3.521e+00 0.000e+00 0.000e+00 0.000e+00
7 1 -1.232e+01 -1.760e+01 -1.761e+00 0.000e+00 0.000e+00 0.000e+00
8 1 -1.408e+01 -1.584e+01 -1.762e+00 0.000e+00 0.000e+00 0.000e+00
9 1 -1.056e+01 -1.761e+01 -3.521e+00 0.000e+00 0.000e+00 0.000e+00
10 1 -8.807e+00 -1.585e+01 -3.521e+00 0.000e+00 0.000e+00 0.000e+00
11 1 -8.808e+00 -1.761e+01 -1.760e+00 0.000e+00 0.000e+00 0.000e+00
12 1 -1.056e+01 -1.584e+01 -1.761e+00 0.000e+00 0.000e+00 0.000e+00
13 1 -7.051e+00 -1.761e+01 -3.520e+00 0.000e+00 0.000e+00 0.000e+00
14 1 -5.295e+00 -1.585e+01 -3.520e+00 0.000e+00 0.000e+00 0.000e+00
15 1 -5.294e+00 -1.761e+01 -1.760e+00 0.000e+00 0.000e+00 0.000e+00
16 1 -7.051e+00 -1.585e+01 -1.760e+00 0.000e+00 0.000e+00 0.000e+00
17 1 -3.536e+00 -1.762e+01 -3.521e+00 0.000e+00 0.000e+00 0.000e+00
18 1 -1.782e+00 -1.586e+01 -3.521e+00 0.000e+00 0.000e+00 0.000e+00
19 1 -1.778e+00 -1.762e+01 -1.760e+00 0.000e+00 0.000e+00 0.000e+00
20 1 -3.539e+00 -1.586e+01 -1.760e+00 0.000e+00 0.000e+00 0.000e+00
21 1 -1.669e-02 -1.762e+01 -3.522e+00 0.000e+00 0.000e+00 0.000e+00
22 1 1.739e+00 -1.587e+01 -3.524e+00 0.000e+00 0.000e+00 0.000e+00
23 1 1.745e+00 -1.762e+01 -1.760e+00 0.000e+00 0.000e+00 0.000e+00
24 1 -2.376e-02 -1.587e+01 -1.760e+00 0.000e+00 0.000e+00 0.000e+00
25 1 3.513e+00 -1.761e+01 -3.525e+00 0.000e+00 0.000e+00 0.000e+00
26 1 5.280e+00 -1.587e+01 -3.532e+00 0.000e+00 0.000e+00 0.000e+00
27 1 5.280e+00 -1.761e+01 -1.761e+00 0.000e+00 0.000e+00 0.000e+00
28 1 3.502e+00 -1.587e+01 -1.760e+00 0.000e+00 0.000e+00 0.000e+00
29 1 7.047e+00 -1.761e+01 -3.525e+00 0.000e+00 0.000e+00 0.000e+00
30 1 8.821e+00 -1.587e+01 -3.524e+00 0.000e+00 0.000e+00 0.000e+00
31 1 8.815e+00 -1.762e+01 -1.760e+00 0.000e+00 0.000e+00 0.000e+00
32 1 7.058e+00 -1.587e+01 -1.761e+00 0.000e+00 0.000e+00 0.000e+00
33 1 1.058e+01 -1.762e+01 -3.522e+00 0.000e+00 0.000e+00 0.000e+00
34 1 1.234e+01 -1.586e+01 -3.521e+00 0.000e+00 0.000e+00 0.000e+00
35 1 1.234e+01 -1.762e+01 -1.760e+00 0.000e+00 0.000e+00 0.000e+00
36 1 1.058e+01 -1.587e+01 -1.760e+00 0.000e+00 0.000e+00 0.000e+00
37 1 1.410e+01 -1.762e+01 -3.521e+00 0.000e+00 0.000e+00 0.000e+00
38 1 1.585e+01 -1.585e+01 -3.520e+00 0.000e+00 0.000e+00 0.000e+00
39 1 1.585e+01 -1.761e+01 -1.760e+00 0.000e+00 0.000e+00 0.000e+00
40 1 1.410e+01 -1.586e+01 -1.760e+00 0.000e+00 0.000e+00 0.000e+00
41 1 1.761e+01 -1.761e+01 -3.520e+00 0.000e+00 0.000e+00 0.000e+00
42 1 1.937e+01 -1.585e+01 -3.521e+00 0.000e+00 0.000e+00 0.000e+00
43 1 1.937e+01 -1.761e+01 -1.761e+00 0.000e+00 0.000e+00 0.000e+00
44 1 1.761e+01 -1.585e+01 -1.760e+00 0.000e+00 0.000e+00 0.000e+00
45 1 -1.760e+01 -1.408e+01 -3.522e+00 0.000e+00 0.000e+00 0.000e+00
46 1 -1.584e+01 -1.232e+01 -3.523e+00 0.000e+00 0.000e+00 0.000e+00
47 1 -1.584e+01 -1.408e+01 -1.762e+00 0.000e+00 0.000e+00 0.000e+00
48 1 -1.760e+01 -1.232e+01 -1.762e+00 0.000e+00 0.000e+00 0.000e+00
49 1 -1.408e+01 -1.408e+01 -3.522e+00 0.000e+00 0.000e+00 0.000e+00
50 1 -1.232e+01 -1.232e+01 -3.523e+00 0.000e+00 0.000e+00 0.000e+00
51 1 -1.232e+01 -1.408e+01 -1.762e+00 0.000e+00 0.000e+00 0.000e+00
52 1 -1.408e+01 -1.232e+01 -1.763e+00 0.000e+00 0.000e+00 0.000e+00
53 1 -1.056e+01 -1.408e+01 -3.521e+00 0.000e+00 0.000e+00 0.000e+00
54 1 -8.805e+00 -1.232e+01 -3.521e+00 0.000e+00 0.000e+00 0.000e+00
55 1 -8.806e+00 -1.408e+01 -1.761e+00 0.000e+00 0.000e+00 0.000e+00
56 1 -1.056e+01 -1.232e+01 -1.762e+00 0.000e+00 0.000e+00 0.000e+00
57 1 -7.049e+00 -1.409e+01 -3.521e+00 0.000e+00 0.000e+00 0.000e+00
58 1 -5.291e+00 -1.233e+01 -3.521e+00 0.000e+00 0.000e+00 0.000e+00
59 1 -5.294e+00 -1.409e+01 -1.760e+00 0.000e+00 0.000e+00 0.000e+00
60 1 -7.047e+00 -1.232e+01 -1.761e+00 0.000e+00 0.000e+00 0.000e+00
61 1 -3.540e+00 -1.410e+01 -3.522e+00 0.000e+00 0.000e+00 0.000e+00
62 1 -1.787e+00 -1.234e+01 -3.524e+00 0.000e+00 0.000e+00 0.000e+00
63 1 -1.786e+00 -1.410e+01 -1.760e+00 0.000e+00 0.000e+00 0.000e+00
64 1 -3.539e+00 -1.233e+01 -1.760e+00 0.000e+00 0.000e+00 0.000e+00
65 1 -2.838e-02 -1.411e+01 -3.523e+00 0.000e+00 0.000e+00 0.000e+00
66 1 1.723e+00 -1.236e+01 -3.515e+00 0.000e+00 0.000e+00 0.000e+00
67 1 1.728e+00 -1.412e+01 -1.761e+00 0.000e+00 0.000e+00 0.000e+00
68 1 -3.688e-02 -1.235e+01 -1.761e+00 0.000e+00 0.000e+00 0.000e+00
69 1 3.494e+00 -1.412e+01 -3.518e+00 0.000e+00 0.000e+00 0.000e+00
70 1 5.280e+00 -1.243e+01 -3.425e+00 0.000e+00 0.000e+00 0.000e+00
71 1 5.280e+00 -1.417e+01 -1.761e+00 0.000e+00 0.000e+00 0.000e+00
72 1 3.482e+00 -1.237e+01 -1.761e+00 0.000e+00 0.000e+00 0.000e+00
73 1 7.066e+00 -1.412e+01 -3.518e+00 0.000e+00 0.000e+00 0.000e+00
74 1 8.837e+00 -1.236e+01 -3.515e+00 0.000e+00 0.000e+00 0.000e+00
75 1 8.831e+00 -1.412e+01 -1.761e+00 0.000e+00 0.000e+00 0.000e+00
76 1 7.078e+00 -1.237e+01 -1.761e+00 0.000e+00 0.000e+00 0.000e+00
77 1 1.059e+01 -1.411e+01 -3.523e+00 0.000e+00 0.000e+00 0.000e+00
78 1 1.235e+01 -1.234e+01 -3.524e+00 0.000e+00 0.000e+00 0.000e+00
79 1 1.235e+01 -1.410e+01 -1.760e+00 0.000e+00 0.000e+00 0.000e+00
80 1 1.060e+01 -1.235e+01 -1.761e+00 0.000e+00 0.000e+00 0.000e+00
81 1 1.410e+01 -1.410e+01 -3.522e+00 0.000e+00 0.000e+00 0.000e+00
82 1 1.585e+01 -1.233e+01 -3.521e+00 0.000e+00 0.000e+00 0.000e+00
83 1 1.585e+01 -1.409e+01 -1.760e+00 0.000e+00 0.000e+00 0.000e+00
84 1 1.410e+01 -1.233e+01 -1.760e+00 0.000e+00 0.000e+00 0.000e+00
85 1 1.761e+01 -1.409e+01 -3.520e+00 0.000e+00 0.000e+00 0.000e+00
86 1 1.936e+01 -1.232e+01 -3.521e+00 0.000e+00 0.000e+00 0.000e+00
87 1 1.937e+01 -1.408e+01 -1.761e+00 0.000e+00 0.000e+00 0.000e+00
88 1 1.761e+01 -1.232e+01 -1.761e+00 0.000e+00 0.000e+00 0.000e+00
89 1 -1.760e+01 -1.056e+01 -3.522e+00 0.000e+00 0.000e+00 0.000e+00
90 1 -1.584e+01 -8.800e+00 -3.523e+00 0.000e+00 0.000e+00 0.000e+00
91 1 -1.584e+01 -1.056e+01 -1.763e+00 0.000e+00 0.000e+00 0.000e+00
92 1 -1.760e+01 -8.800e+00 -1.763e+00 0.000e+00 0.000e+00 0.000e+00
93 1 -1.408e+01 -1.056e+01 -3.523e+00 0.000e+00 0.000e+00 0.000e+00
94 1 -1.232e+01 -8.800e+00 -3.523e+00 0.000e+00 0.000e+00 0.000e+00
95 1 -1.232e+01 -1.056e+01 -1.762e+00 0.000e+00 0.000e+00 0.000e+00
96 1 -1.408e+01 -8.800e+00 -1.763e+00 0.000e+00 0.000e+00 0.000e+00
97 1 -1.056e+01 -1.056e+01 -3.522e+00 0.000e+00 0.000e+00 0.000e+00
98 1 -8.803e+00 -8.800e+00 -3.521e+00 0.000e+00 0.000e+00 0.000e+00
99 1 -8.803e+00 -1.056e+01 -1.762e+00 0.000e+00 0.000e+00 0.000e+00
100 1 -1.056e+01 -8.800e+00 -1.762e+00 0.000e+00 0.000e+00 0.000e+00
101 1 -7.045e+00 -1.056e+01 -3.521e+00 0.000e+00 0.000e+00 0.000e+00
102 1 -5.287e+00 -8.799e+00 -3.522e+00 0.000e+00 0.000e+00 0.000e+00
103 1 -5.287e+00 -1.056e+01 -1.761e+00 0.000e+00 0.000e+00 0.000e+00
104 1 -7.044e+00 -8.799e+00 -1.761e+00 0.000e+00 0.000e+00 0.000e+00
105 1 -3.535e+00 -1.057e+01 -3.525e+00 0.000e+00 0.000e+00 0.000e+00
106 1 -1.786e+00 -8.800e+00 -3.532e+00 0.000e+00 0.000e+00 0.000e+00
107 1 -1.793e+00 -1.058e+01 -1.760e+00 0.000e+00 0.000e+00 0.000e+00
108 1 -3.530e+00 -8.800e+00 -1.761e+00 0.000e+00 0.000e+00 0.000e+00
109 1 -4.094e-02 -1.059e+01 -3.518e+00 0.000e+00 0.000e+00 0.000e+00
110 1 1.655e+00 -8.800e+00 -3.426e+00 0.000e+00 0.000e+00 0.000e+00
111 1 1.712e+00 -1.060e+01 -1.761e+00 0.000e+00 0.000e+00 0.000e+00
112 1 -8.925e-02 -8.800e+00 -1.762e+00 0.000e+00 0.000e+00 0.000e+00
113 1 3.484e+00 -1.060e+01 -3.483e+00 0.000e+00 0.000e+00 0.000e+00
114 1 5.280e+00 -8.800e+00 -3.541e+00 0.000e+00 0.000e+00 0.000e+00
115 1 5.280e+00 -1.057e+01 -1.762e+00 0.000e+00 0.000e+00 0.000e+00
116 1 3.506e+00 -8.800e+00 -1.762e+00 0.000e+00 0.000e+00 0.000e+00
117 1 7.076e+00 -1.060e+01 -3.483e+00 0.000e+00 0.000e+00 0.000e+00
118 1 8.906e+00 -8.800e+00 -3.425e+00 0.000e+00 0.000e+00 0.000e+00
119 1 8.848e+00 -1.060e+01 -1.760e+00 0.000e+00 0.000e+00 0.000e+00
120 1 7.054e+00 -8.800e+00 -1.762e+00 0.000e+00 0.000e+00 0.000e+00
121 1 1.060e+01 -1.059e+01 -3.518e+00 0.000e+00 0.000e+00 0.000e+00
122 1 1.235e+01 -8.800e+00 -3.531e+00 0.000e+00 0.000e+00 0.000e+00
123 1 1.235e+01 -1.058e+01 -1.760e+00 0.000e+00 0.000e+00 0.000e+00
124 1 1.065e+01 -8.800e+00 -1.761e+00 0.000e+00 0.000e+00 0.000e+00
125 1 1.409e+01 -1.057e+01 -3.524e+00 0.000e+00 0.000e+00 0.000e+00
126 1 1.585e+01 -8.800e+00 -3.521e+00 0.000e+00 0.000e+00 0.000e+00
127 1 1.585e+01 -1.056e+01 -1.761e+00 0.000e+00 0.000e+00 0.000e+00
128 1 1.409e+01 -8.800e+00 -1.761e+00 0.000e+00 0.000e+00 0.000e+00
129 1 1.761e+01 -1.056e+01 -3.521e+00 0.000e+00 0.000e+00 0.000e+00
130 1 1.936e+01 -8.800e+00 -3.521e+00 0.000e+00 0.000e+00 0.000e+00
131 1 1.936e+01 -1.056e+01 -1.762e+00 0.000e+00 0.000e+00 0.000e+00
132 1 1.760e+01 -8.799e+00 -1.761e+00 0.000e+00 0.000e+00 0.000e+00
133 1 -1.760e+01 -7.039e+00 -3.523e+00 0.000e+00 0.000e+00 0.000e+00
134 1 -1.584e+01 -5.279e+00 -3.524e+00 0.000e+00 0.000e+00 0.000e+00
135 1 -1.584e+01 -7.039e+00 -1.763e+00 0.000e+00 0.000e+00 0.000e+00
136 1 -1.760e+01 -5.278e+00 -1.763e+00 0.000e+00 0.000e+00 0.000e+00
137 1 -1.408e+01 -7.040e+00 -3.524e+00 0.000e+00 0.000e+00 0.000e+00
138 1 -1.232e+01 -5.279e+00 -3.523e+00 0.000e+00 0.000e+00 0.000e+00
139 1 -1.232e+01 -7.039e+00 -1.763e+00 0.000e+00 0.000e+00 0.000e+00
140 1 -1.408e+01 -5.279e+00 -1.763e+00 0.000e+00 0.000e+00 0.000e+00
141 1 -1.056e+01 -7.039e+00 -3.522e+00 0.000e+00 0.000e+00 0.000e+00
142 1 -8.805e+00 -5.277e+00 -3.521e+00 0.000e+00 0.000e+00 0.000e+00
143 1 -8.803e+00 -7.038e+00 -1.762e+00 0.000e+00 0.000e+00 0.000e+00
144 1 -1.056e+01 -5.278e+00 -1.763e+00 0.000e+00 0.000e+00 0.000e+00
145 1 -7.046e+00 -7.037e+00 -3.521e+00 0.000e+00 0.000e+00 0.000e+00
146 1 -5.291e+00 -5.272e+00 -3.522e+00 0.000e+00 0.000e+00 0.000e+00
147 1 -5.287e+00 -7.036e+00 -1.761e+00 0.000e+00 0.000e+00 0.000e+00
148 1 -7.047e+00 -5.275e+00 -1.761e+00 0.000e+00 0.000e+00 0.000e+00
149 1 -3.535e+00 -7.033e+00 -3.525e+00 0.000e+00 0.000e+00 0.000e+00
150 1 -1.787e+00 -5.259e+00 -3.524e+00 0.000e+00 0.000e+00 0.000e+00
151 1 -1.793e+00 -7.022e+00 -1.761e+00 0.000e+00 0.000e+00 0.000e+00
152 1 -3.539e+00 -5.265e+00 -1.761e+00 0.000e+00 0.000e+00 0.000e+00
153 1 -4.135e-02 -7.014e+00 -3.518e+00 0.000e+00 0.000e+00 0.000e+00
154 1 1.722e+00 -5.243e+00 -3.515e+00 0.000e+00 0.000e+00 0.000e+00
155 1 1.712e+00 -7.002e+00 -1.761e+00 0.000e+00 0.000e+00 0.000e+00
156 1 -3.728e-02 -5.249e+00 -1.761e+00 0.000e+00 0.000e+00 0.000e+00
157 1 3.484e+00 -7.004e+00 -3.484e+00 0.000e+00 0.000e+00 0.000e+00
158 1 5.280e+00 -5.174e+00 -3.426e+00 0.000e+00 0.000e+00 0.000e+00
159 1 5.280e+00 -7.026e+00 -1.762e+00 0.000e+00 0.000e+00 0.000e+00
160 1 3.482e+00 -5.232e+00 -1.761e+00 0.000e+00 0.000e+00 0.000e+00
161 1 7.076e+00 -7.004e+00 -3.484e+00 0.000e+00 0.000e+00 0.000e+00
162 1 8.837e+00 -5.243e+00 -3.515e+00 0.000e+00 0.000e+00 0.000e+00
163 1 8.848e+00 -7.002e+00 -1.761e+00 0.000e+00 0.000e+00 0.000e+00
164 1 7.078e+00 -5.232e+00 -1.761e+00 0.000e+00 0.000e+00 0.000e+00
165 1 1.060e+01 -7.014e+00 -3.518e+00 0.000e+00 0.000e+00 0.000e+00
166 1 1.235e+01 -5.259e+00 -3.524e+00 0.000e+00 0.000e+00 0.000e+00
167 1 1.235e+01 -7.021e+00 -1.761e+00 0.000e+00 0.000e+00 0.000e+00
168 1 1.060e+01 -5.249e+00 -1.761e+00 0.000e+00 0.000e+00 0.000e+00
169 1 1.409e+01 -7.033e+00 -3.525e+00 0.000e+00 0.000e+00 0.000e+00
170 1 1.585e+01 -5.273e+00 -3.522e+00 0.000e+00 0.000e+00 0.000e+00
171 1 1.585e+01 -7.036e+00 -1.761e+00 0.000e+00 0.000e+00 0.000e+00
172 1 1.410e+01 -5.265e+00 -1.761e+00 0.000e+00 0.000e+00 0.000e+00
173 1 1.761e+01 -7.038e+00 -3.521e+00 0.000e+00 0.000e+00 0.000e+00
174 1 1.936e+01 -5.277e+00 -3.522e+00 0.000e+00 0.000e+00 0.000e+00
175 1 1.936e+01 -7.038e+00 -1.762e+00 0.000e+00 0.000e+00 0.000e+00
176 1 1.761e+01 -5.276e+00 -1.761e+00 0.000e+00 0.000e+00 0.000e+00
177 1 -1.760e+01 -3.517e+00 -3.522e+00 0.000e+00 0.000e+00 0.000e+00
178 1 -1.584e+01 -1.757e+00 -3.522e+00 0.000e+00 0.000e+00 0.000e+00
179 1 -1.584e+01 -3.518e+00 -1.763e+00 0.000e+00 0.000e+00 0.000e+00
180 1 -1.760e+01 -1.756e+00 -1.761e+00 0.000e+00 0.000e+00 0.000e+00
181 1 -1.408e+01 -3.519e+00 -3.523e+00 0.000e+00 0.000e+00 0.000e+00
182 1 -1.232e+01 -1.757e+00 -3.522e+00 0.000e+00 0.000e+00 0.000e+00
183 1 -1.232e+01 -3.518e+00 -1.763e+00 0.000e+00 0.000e+00 0.000e+00
184 1 -1.408e+01 -1.758e+00 -1.762e+00 0.000e+00 0.000e+00 0.000e+00
185 1 -1.056e+01 -3.517e+00 -3.522e+00 0.000e+00 0.000e+00 0.000e+00
186 1 -8.808e+00 -1.754e+00 -3.521e+00 0.000e+00 0.000e+00 0.000e+00
187 1 -8.807e+00 -3.516e+00 -1.761e+00 0.000e+00 0.000e+00 0.000e+00
188 1 -1.056e+01 -1.756e+00 -1.761e+00 0.000e+00 0.000e+00 0.000e+00
189 1 -7.050e+00 -3.513e+00 -3.521e+00 0.000e+00 0.000e+00 0.000e+00
190 1 -5.295e+00 -1.748e+00 -3.521e+00 0.000e+00 0.000e+00 0.000e+00
191 1 -5.294e+00 -3.509e+00 -1.760e+00 0.000e+00 0.000e+00 0.000e+00
192 1 -7.051e+00 -1.751e+00 -1.760e+00 0.000e+00 0.000e+00 0.000e+00
193 1 -3.539e+00 -3.503e+00 -3.522e+00 0.000e+00 0.000e+00 0.000e+00
194 1 -1.782e+00 -1.738e+00 -3.521e+00 0.000e+00 0.000e+00 0.000e+00
195 1 -1.785e+00 -3.497e+00 -1.761e+00 0.000e+00 0.000e+00 0.000e+00
196 1 -3.539e+00 -1.743e+00 -1.760e+00 0.000e+00 0.000e+00 0.000e+00
197 1 -2.866e-02 -3.492e+00 -3.523e+00 0.000e+00 0.000e+00 0.000e+00
198 1 1.738e+00 -1.733e+00 -3.524e+00 0.000e+00 0.000e+00 0.000e+00
199 1 1.728e+00 -3.483e+00 -1.761e+00 0.000e+00 0.000e+00 0.000e+00
200 1 -2.344e-02 -1.735e+00 -1.761e+00 0.000e+00 0.000e+00 0.000e+00
201 1 3.493e+00 -3.479e+00 -3.518e+00 0.000e+00 0.000e+00 0.000e+00
202 1 5.280e+00 -1.735e+00 -3.531e+00 0.000e+00 0.000e+00 0.000e+00
203 1 5.280e+00 -3.431e+00 -1.761e+00 0.000e+00 0.000e+00 0.000e+00
204 1 3.501e+00 -1.727e+00 -1.761e+00 0.000e+00 0.000e+00 0.000e+00
205 1 7.066e+00 -3.479e+00 -3.518e+00 0.000e+00 0.000e+00 0.000e+00
206 1 8.821e+00 -1.734e+00 -3.524e+00 0.000e+00 0.000e+00 0.000e+00
207 1 8.832e+00 -3.483e+00 -1.761e+00 0.000e+00 0.000e+00 0.000e+00
208 1 7.059e+00 -1.727e+00 -1.761e+00 0.000e+00 0.000e+00 0.000e+00
209 1 1.059e+01 -3.492e+00 -3.523e+00 0.000e+00 0.000e+00 0.000e+00
210 1 1.234e+01 -1.738e+00 -3.521e+00 0.000e+00 0.000e+00 0.000e+00
211 1 1.235e+01 -3.497e+00 -1.761e+00 0.000e+00 0.000e+00 0.000e+00
212 1 1.058e+01 -1.735e+00 -1.760e+00 0.000e+00 0.000e+00 0.000e+00
213 1 1.410e+01 -3.504e+00 -3.522e+00 0.000e+00 0.000e+00 0.000e+00
214 1 1.585e+01 -1.748e+00 -3.521e+00 0.000e+00 0.000e+00 0.000e+00
215 1 1.585e+01 -3.509e+00 -1.760e+00 0.000e+00 0.000e+00 0.000e+00
216 1 1.410e+01 -1.743e+00 -1.760e+00 0.000e+00 0.000e+00 0.000e+00
217 1 1.761e+01 -3.513e+00 -3.521e+00 0.000e+00 0.000e+00 0.000e+00
218 1 1.937e+01 -1.754e+00 -3.521e+00 0.000e+00 0.000e+00 0.000e+00
219 1 1.937e+01 -3.516e+00 -1.761e+00 0.000e+00 0.000e+00 0.000e+00
220 1 1.761e+01 -1.752e+00 -1.760e+00 0.000e+00 0.000e+00 0.000e+00
221 1 -1.759e+01 4.847e-03 -3.521e+00 0.000e+00 0.000e+00 0.000e+00
222 1 -1.584e+01 1.764e+00 -3.522e+00 0.000e+00 0.000e+00 0.000e+00
223 1 -1.584e+01 3.688e-03 -1.761e+00 0.000e+00 0.000e+00 0.000e+00
224 1 -1.759e+01 1.766e+00 -1.761e+00 0.000e+00 0.000e+00 0.000e+00
225 1 -1.408e+01 2.718e-03 -3.522e+00 0.000e+00 0.000e+00 0.000e+00
226 1 -1.232e+01 1.764e+00 -3.522e+00 0.000e+00 0.000e+00 0.000e+00
227 1 -1.232e+01 3.659e-03 -1.761e+00 0.000e+00 0.000e+00 0.000e+00
228 1 -1.408e+01 1.764e+00 -1.762e+00 0.000e+00 0.000e+00 0.000e+00
229 1 -1.057e+01 4.787e-03 -3.521e+00 0.000e+00 0.000e+00 0.000e+00
230 1 -8.808e+00 1.767e+00 -3.520e+00 0.000e+00 0.000e+00 0.000e+00
231 1 -8.808e+00 6.985e-03 -1.760e+00 0.000e+00 0.000e+00 0.000e+00
232 1 -1.057e+01 1.766e+00 -1.761e+00 0.000e+00 0.000e+00 0.000e+00
233 1 -7.051e+00 9.744e-03 -3.520e+00 0.000e+00 0.000e+00 0.000e+00
234 1 -5.293e+00 1.772e+00 -3.520e+00 0.000e+00 0.000e+00 0.000e+00
235 1 -5.295e+00 1.234e-02 -1.760e+00 0.000e+00 0.000e+00 0.000e+00
236 1 -7.050e+00 1.769e+00 -1.760e+00 0.000e+00 0.000e+00 0.000e+00
237 1 -3.537e+00 1.609e-02 -3.521e+00 0.000e+00 0.000e+00 0.000e+00
238 1 -1.773e+00 1.775e+00 -3.520e+00 0.000e+00 0.000e+00 0.000e+00
239 1 -1.777e+00 1.873e-02 -1.760e+00 0.000e+00 0.000e+00 0.000e+00
240 1 -3.534e+00 1.773e+00 -1.760e+00 0.000e+00 0.000e+00 0.000e+00
241 1 -1.637e-02 1.969e-02 -3.522e+00 0.000e+00 0.000e+00 0.000e+00
242 1 1.753e+00 1.772e+00 -3.521e+00 0.000e+00 0.000e+00 0.000e+00
243 1 1.746e+00 1.886e-02 -1.761e+00 0.000e+00 0.000e+00 0.000e+00
244 1 -1.045e-02 1.774e+00 -1.760e+00 0.000e+00 0.000e+00 0.000e+00
245 1 3.514e+00 1.467e-02 -3.524e+00 0.000e+00 0.000e+00 0.000e+00
246 1 5.280e+00 1.768e+00 -3.521e+00 0.000e+00 0.000e+00 0.000e+00
247 1 5.280e+00 9.621e-03 -1.761e+00 0.000e+00 0.000e+00 0.000e+00
248 1 3.517e+00 1.767e+00 -1.761e+00 0.000e+00 0.000e+00 0.000e+00
249 1 7.047e+00 1.474e-02 -3.524e+00 0.000e+00 0.000e+00 0.000e+00
250 1 8.807e+00 1.772e+00 -3.521e+00 0.000e+00 0.000e+00 0.000e+00
251 1 8.815e+00 1.877e-02 -1.761e+00 0.000e+00 0.000e+00 0.000e+00
252 1 7.044e+00 1.767e+00 -1.761e+00 0.000e+00 0.000e+00 0.000e+00
253 1 1.058e+01 1.941e-02 -3.522e+00 0.000e+00 0.000e+00 0.000e+00
254 1 1.233e+01 1.775e+00 -3.521e+00 0.000e+00 0.000e+00 0.000e+00
255 1 1.234e+01 1.894e-02 -1.760e+00 0.000e+00 0.000e+00 0.000e+00
256 1 1.057e+01 1.774e+00 -1.760e+00 0.000e+00 0.000e+00 0.000e+00
257 1 1.410e+01 1.618e-02 -3.521e+00 0.000e+00 0.000e+00 0.000e+00
258 1 1.585e+01 1.772e+00 -3.520e+00 0.000e+00 0.000e+00 0.000e+00
259 1 1.585e+01 1.294e-02 -1.760e+00 0.000e+00 0.000e+00 0.000e+00
260 1 1.409e+01 1.774e+00 -1.760e+00 0.000e+00 0.000e+00 0.000e+00
261 1 1.761e+01 9.920e-03 -3.520e+00 0.000e+00 0.000e+00 0.000e+00
262 1 1.937e+01 1.767e+00 -3.520e+00 0.000e+00 0.000e+00 0.000e+00
263 1 1.937e+01 6.858e-03 -1.761e+00 0.000e+00 0.000e+00 0.000e+00
264 1 1.761e+01 1.770e+00 -1.760e+00 0.000e+00 0.000e+00 0.000e+00
265 1 -1.760e+01 3.526e+00 -3.521e+00 0.000e+00 0.000e+00 0.000e+00
266 1 -1.584e+01 5.284e+00 -3.522e+00 0.000e+00 0.000e+00 0.000e+00
267 1 -1.584e+01 3.525e+00 -1.761e+00 0.000e+00 0.000e+00 0.000e+00
268 1 -1.760e+01 5.285e+00 -1.761e+00 0.000e+00 0.000e+00 0.000e+00
269 1 -1.408e+01 3.524e+00 -3.522e+00 0.000e+00 0.000e+00 0.000e+00
270 1 -1.232e+01 5.284e+00 -3.522e+00 0.000e+00 0.000e+00 0.000e+00
271 1 -1.232e+01 3.525e+00 -1.762e+00 0.000e+00 0.000e+00 0.000e+00
272 1 -1.408e+01 5.284e+00 -1.762e+00 0.000e+00 0.000e+00 0.000e+00
273 1 -1.057e+01 3.526e+00 -3.521e+00 0.000e+00 0.000e+00 0.000e+00
274 1 -8.806e+00 5.286e+00 -3.521e+00 0.000e+00 0.000e+00 0.000e+00
275 1 -8.807e+00 3.527e+00 -1.761e+00 0.000e+00 0.000e+00 0.000e+00
276 1 -1.056e+01 5.285e+00 -1.762e+00 0.000e+00 0.000e+00 0.000e+00
277 1 -7.049e+00 3.529e+00 -3.521e+00 0.000e+00 0.000e+00 0.000e+00
278 1 -5.288e+00 5.288e+00 -3.520e+00 0.000e+00 0.000e+00 0.000e+00
279 1 -5.290e+00 3.530e+00 -1.760e+00 0.000e+00 0.000e+00 0.000e+00
280 1 -7.047e+00 5.287e+00 -1.761e+00 0.000e+00 0.000e+00 0.000e+00
281 1 -3.530e+00 3.531e+00 -3.520e+00 0.000e+00 0.000e+00 0.000e+00
282 1 -1.766e+00 5.287e+00 -3.521e+00 0.000e+00 0.000e+00 0.000e+00
283 1 -1.769e+00 3.530e+00 -1.760e+00 0.000e+00 0.000e+00 0.000e+00
284 1 -3.527e+00 5.288e+00 -1.761e+00 0.000e+00 0.000e+00 0.000e+00
285 1 -6.580e-03 3.529e+00 -3.520e+00 0.000e+00 0.000e+00 0.000e+00
286 1 1.757e+00 5.285e+00 -3.521e+00 0.000e+00 0.000e+00 0.000e+00
287 1 1.757e+00 3.527e+00 -1.761e+00 0.000e+00 0.000e+00 0.000e+00
288 1 -4.184e-03 5.286e+00 -1.761e+00 0.000e+00 0.000e+00 0.000e+00
289 1 3.519e+00 3.526e+00 -3.521e+00 0.000e+00 0.000e+00 0.000e+00
290 1 5.280e+00 5.284e+00 -3.521e+00 0.000e+00 0.000e+00 0.000e+00
291 1 5.281e+00 3.525e+00 -1.761e+00 0.000e+00 0.000e+00 0.000e+00
292 1 3.519e+00 5.284e+00 -1.762e+00 0.000e+00 0.000e+00 0.000e+00
293 1 7.042e+00 3.526e+00 -3.521e+00 0.000e+00 0.000e+00 0.000e+00
294 1 8.803e+00 5.285e+00 -3.521e+00 0.000e+00 0.000e+00 0.000e+00
295 1 8.804e+00 3.527e+00 -1.761e+00 0.000e+00 0.000e+00 0.000e+00
296 1 7.042e+00 5.284e+00 -1.762e+00 0.000e+00 0.000e+00 0.000e+00
297 1 1.057e+01 3.530e+00 -3.521e+00 0.000e+00 0.000e+00 0.000e+00
298 1 1.233e+01 5.287e+00 -3.521e+00 0.000e+00 0.000e+00 0.000e+00
299 1 1.233e+01 3.530e+00 -1.760e+00 0.000e+00 0.000e+00 0.000e+00
300 1 1.056e+01 5.287e+00 -1.761e+00 0.000e+00 0.000e+00 0.000e+00
301 1 1.409e+01 3.531e+00 -3.520e+00 0.000e+00 0.000e+00 0.000e+00
302 1 1.585e+01 5.288e+00 -3.520e+00 0.000e+00 0.000e+00 0.000e+00
303 1 1.585e+01 3.530e+00 -1.760e+00 0.000e+00 0.000e+00 0.000e+00
304 1 1.409e+01 5.288e+00 -1.760e+00 0.000e+00 0.000e+00 0.000e+00
305 1 1.761e+01 3.529e+00 -3.520e+00 0.000e+00 0.000e+00 0.000e+00
306 1 1.937e+01 5.286e+00 -3.521e+00 0.000e+00 0.000e+00 0.000e+00
307 1 1.937e+01 3.527e+00 -1.761e+00 0.000e+00 0.000e+00 0.000e+00
308 1 1.761e+01 5.287e+00 -1.761e+00 0.000e+00 0.000e+00 0.000e+00
309 1 -1.760e+01 7.044e+00 -3.522e+00 0.000e+00 0.000e+00 0.000e+00
310 1 -1.584e+01 8.802e+00 -3.522e+00 0.000e+00 0.000e+00 0.000e+00
311 1 -1.584e+01 7.044e+00 -1.762e+00 0.000e+00 0.000e+00 0.000e+00
312 1 -1.760e+01 8.802e+00 -1.762e+00 0.000e+00 0.000e+00 0.000e+00
313 1 -1.408e+01 7.043e+00 -3.522e+00 0.000e+00 0.000e+00 0.000e+00
314 1 -1.232e+01 8.802e+00 -3.522e+00 0.000e+00 0.000e+00 0.000e+00
315 1 -1.232e+01 7.044e+00 -1.762e+00 0.000e+00 0.000e+00 0.000e+00
316 1 -1.408e+01 8.802e+00 -1.762e+00 0.000e+00 0.000e+00 0.000e+00
317 1 -1.056e+01 7.044e+00 -3.522e+00 0.000e+00 0.000e+00 0.000e+00
318 1 -8.805e+00 8.802e+00 -3.522e+00 0.000e+00 0.000e+00 0.000e+00
319 1 -8.805e+00 7.045e+00 -1.762e+00 0.000e+00 0.000e+00 0.000e+00
320 1 -1.056e+01 8.802e+00 -1.762e+00 0.000e+00 0.000e+00 0.000e+00
321 1 -7.046e+00 7.045e+00 -3.521e+00 0.000e+00 0.000e+00 0.000e+00
322 1 -5.285e+00 8.803e+00 -3.522e+00 0.000e+00 0.000e+00 0.000e+00
323 1 -5.286e+00 7.045e+00 -1.761e+00 0.000e+00 0.000e+00 0.000e+00
324 1 -7.045e+00 8.803e+00 -1.762e+00 0.000e+00 0.000e+00 0.000e+00
325 1 -3.525e+00 7.045e+00 -3.521e+00 0.000e+00 0.000e+00 0.000e+00
326 1 -1.763e+00 8.802e+00 -3.522e+00 0.000e+00 0.000e+00 0.000e+00
327 1 -1.764e+00 7.044e+00 -1.761e+00 0.000e+00 0.000e+00 0.000e+00
328 1 -3.524e+00 8.802e+00 -1.762e+00 0.000e+00 0.000e+00 0.000e+00
329 1 -2.599e-03 7.043e+00 -3.522e+00 0.000e+00 0.000e+00 0.000e+00
330 1 1.759e+00 8.802e+00 -3.523e+00 0.000e+00 0.000e+00 0.000e+00
331 1 1.758e+00 7.043e+00 -1.762e+00 0.000e+00 0.000e+00 0.000e+00
332 1 -1.727e-03 8.802e+00 -1.763e+00 0.000e+00 0.000e+00 0.000e+00
333 1 3.518e+00 7.043e+00 -3.522e+00 0.000e+00 0.000e+00 0.000e+00
334 1 5.280e+00 8.802e+00 -3.523e+00 0.000e+00 0.000e+00 0.000e+00
335 1 5.280e+00 7.043e+00 -1.763e+00 0.000e+00 0.000e+00 0.000e+00
336 1 3.519e+00 8.802e+00 -1.763e+00 0.000e+00 0.000e+00 0.000e+00
337 1 7.041e+00 7.043e+00 -3.522e+00 0.000e+00 0.000e+00 0.000e+00
338 1 8.801e+00 8.802e+00 -3.523e+00 0.000e+00 0.000e+00 0.000e+00
339 1 8.802e+00 7.044e+00 -1.763e+00 0.000e+00 0.000e+00 0.000e+00
340 1 7.041e+00 8.802e+00 -1.763e+00 0.000e+00 0.000e+00 0.000e+00
341 1 1.056e+01 7.044e+00 -3.522e+00 0.000e+00 0.000e+00 0.000e+00
342 1 1.232e+01 8.802e+00 -3.522e+00 0.000e+00 0.000e+00 0.000e+00
343 1 1.232e+01 7.044e+00 -1.761e+00 0.000e+00 0.000e+00 0.000e+00
344 1 1.056e+01 8.802e+00 -1.762e+00 0.000e+00 0.000e+00 0.000e+00
345 1 1.408e+01 7.045e+00 -3.521e+00 0.000e+00 0.000e+00 0.000e+00
346 1 1.584e+01 8.802e+00 -3.522e+00 0.000e+00 0.000e+00 0.000e+00
347 1 1.585e+01 7.045e+00 -1.761e+00 0.000e+00 0.000e+00 0.000e+00
348 1 1.408e+01 8.802e+00 -1.761e+00 0.000e+00 0.000e+00 0.000e+00
349 1 1.761e+01 7.045e+00 -3.521e+00 0.000e+00 0.000e+00 0.000e+00
350 1 1.936e+01 8.802e+00 -3.522e+00 0.000e+00 0.000e+00 0.000e+00
351 1 1.937e+01 7.045e+00 -1.761e+00 0.000e+00 0.000e+00 0.000e+00
352 1 1.760e+01 8.803e+00 -1.762e+00 0.000e+00 0.000e+00 0.000e+00
353 1 -1.760e+01 1.056e+01 -3.522e+00 0.000e+00 0.000e+00 0.000e+00
354 1 -1.584e+01 1.232e+01 -3.522e+00 0.000e+00 0.000e+00 0.000e+00
355 1 -1.584e+01 1.056e+01 -1.762e+00 0.000e+00 0.000e+00 0.000e+00
356 1 -1.760e+01 1.232e+01 -1.762e+00 0.000e+00 0.000e+00 0.000e+00
357 1 -1.408e+01 1.056e+01 -3.522e+00 0.000e+00 0.000e+00 0.000e+00
358 1 -1.232e+01 1.232e+01 -3.522e+00 0.000e+00 0.000e+00 0.000e+00
359 1 -1.232e+01 1.056e+01 -1.762e+00 0.000e+00 0.000e+00 0.000e+00
360 1 -1.408e+01 1.232e+01 -1.762e+00 0.000e+00 0.000e+00 0.000e+00
361 1 -1.056e+01 1.056e+01 -3.522e+00 0.000e+00 0.000e+00 0.000e+00
362 1 -8.804e+00 1.232e+01 -3.522e+00 0.000e+00 0.000e+00 0.000e+00
363 1 -8.805e+00 1.056e+01 -1.762e+00 0.000e+00 0.000e+00 0.000e+00
364 1 -1.056e+01 1.232e+01 -1.762e+00 0.000e+00 0.000e+00 0.000e+00
365 1 -7.045e+00 1.056e+01 -3.522e+00 0.000e+00 0.000e+00 0.000e+00
366 1 -5.285e+00 1.232e+01 -3.521e+00 0.000e+00 0.000e+00 0.000e+00
367 1 -5.284e+00 1.056e+01 -1.762e+00 0.000e+00 0.000e+00 0.000e+00
368 1 -7.045e+00 1.232e+01 -1.762e+00 0.000e+00 0.000e+00 0.000e+00
369 1 -3.523e+00 1.056e+01 -3.522e+00 0.000e+00 0.000e+00 0.000e+00
370 1 -1.763e+00 1.232e+01 -3.522e+00 0.000e+00 0.000e+00 0.000e+00
371 1 -1.763e+00 1.056e+01 -1.762e+00 0.000e+00 0.000e+00 0.000e+00
372 1 -3.524e+00 1.232e+01 -1.761e+00 0.000e+00 0.000e+00 0.000e+00
373 1 -1.738e-03 1.056e+01 -3.523e+00 0.000e+00 0.000e+00 0.000e+00
374 1 1.759e+00 1.232e+01 -3.523e+00 0.000e+00 0.000e+00 0.000e+00
375 1 1.759e+00 1.056e+01 -1.763e+00 0.000e+00 0.000e+00 0.000e+00
376 1 -1.899e-03 1.232e+01 -1.763e+00 0.000e+00 0.000e+00 0.000e+00
377 1 3.520e+00 1.056e+01 -3.524e+00 0.000e+00 0.000e+00 0.000e+00
378 1 5.280e+00 1.232e+01 -3.523e+00 0.000e+00 0.000e+00 0.000e+00
379 1 5.280e+00 1.056e+01 -1.763e+00 0.000e+00 0.000e+00 0.000e+00
380 1 3.519e+00 1.232e+01 -1.763e+00 0.000e+00 0.000e+00 0.000e+00
381 1 7.040e+00 1.056e+01 -3.524e+00 0.000e+00 0.000e+00 0.000e+00
382 1 8.801e+00 1.232e+01 -3.523e+00 0.000e+00 0.000e+00 0.000e+00
383 1 8.801e+00 1.056e+01 -1.763e+00 0.000e+00 0.000e+00 0.000e+00
384 1 7.040e+00 1.232e+01 -1.763e+00 0.000e+00 0.000e+00 0.000e+00
385 1 1.056e+01 1.056e+01 -3.523e+00 0.000e+00 0.000e+00 0.000e+00
386 1 1.232e+01 1.232e+01 -3.522e+00 0.000e+00 0.000e+00 0.000e+00
387 1 1.232e+01 1.056e+01 -1.762e+00 0.000e+00 0.000e+00 0.000e+00
388 1 1.056e+01 1.232e+01 -1.762e+00 0.000e+00 0.000e+00 0.000e+00
389 1 1.408e+01 1.056e+01 -3.522e+00 0.000e+00 0.000e+00 0.000e+00
390 1 1.584e+01 1.232e+01 -3.521e+00 0.000e+00 0.000e+00 0.000e+00
391 1 1.584e+01 1.056e+01 -1.762e+00 0.000e+00 0.000e+00 0.000e+00
392 1 1.408e+01 1.232e+01 -1.761e+00 0.000e+00 0.000e+00 0.000e+00
393 1 1.760e+01 1.056e+01 -3.522e+00 0.000e+00 0.000e+00 0.000e+00
394 1 1.936e+01 1.232e+01 -3.522e+00 0.000e+00 0.000e+00 0.000e+00
395 1 1.936e+01 1.056e+01 -1.762e+00 0.000e+00 0.000e+00 0.000e+00
396 1 1.760e+01 1.232e+01 -1.762e+00 0.000e+00 0.000e+00 0.000e+00
397 1 -1.760e+01 1.408e+01 -3.522e+00 0.000e+00 0.000e+00 0.000e+00
398 1 -1.584e+01 1.584e+01 -3.522e+00 0.000e+00 0.000e+00 0.000e+00
399 1 -1.584e+01 1.408e+01 -1.761e+00 0.000e+00 0.000e+00 0.000e+00
400 1 -1.760e+01 1.583e+01 -1.761e+00 0.000e+00 0.000e+00 0.000e+00
401 1 -1.408e+01 1.408e+01 -3.522e+00 0.000e+00 0.000e+00 0.000e+00
402 1 -1.232e+01 1.584e+01 -3.522e+00 0.000e+00 0.000e+00 0.000e+00
403 1 -1.232e+01 1.408e+01 -1.762e+00 0.000e+00 0.000e+00 0.000e+00
404 1 -1.408e+01 1.584e+01 -1.762e+00 0.000e+00 0.000e+00 0.000e+00
405 1 -1.056e+01 1.408e+01 -3.522e+00 0.000e+00 0.000e+00 0.000e+00
406 1 -8.806e+00 1.583e+01 -3.522e+00 0.000e+00 0.000e+00 0.000e+00
407 1 -8.805e+00 1.408e+01 -1.762e+00 0.000e+00 0.000e+00 0.000e+00
408 1 -1.056e+01 1.583e+01 -1.762e+00 0.000e+00 0.000e+00 0.000e+00
409 1 -7.046e+00 1.408e+01 -3.522e+00 0.000e+00 0.000e+00 0.000e+00
410 1 -5.288e+00 1.583e+01 -3.520e+00 0.000e+00 0.000e+00 0.000e+00
411 1 -5.286e+00 1.407e+01 -1.761e+00 0.000e+00 0.000e+00 0.000e+00
412 1 -7.047e+00 1.583e+01 -1.761e+00 0.000e+00 0.000e+00 0.000e+00
413 1 -3.525e+00 1.407e+01 -3.521e+00 0.000e+00 0.000e+00 0.000e+00
414 1 -1.766e+00 1.583e+01 -3.521e+00 0.000e+00 0.000e+00 0.000e+00
415 1 -1.764e+00 1.408e+01 -1.761e+00 0.000e+00 0.000e+00 0.000e+00
416 1 -3.527e+00 1.583e+01 -1.760e+00 0.000e+00 0.000e+00 0.000e+00
417 1 -2.879e-03 1.408e+01 -3.522e+00 0.000e+00 0.000e+00 0.000e+00
418 1 1.757e+00 1.583e+01 -3.521e+00 0.000e+00 0.000e+00 0.000e+00
419 1 1.758e+00 1.408e+01 -1.762e+00 0.000e+00 0.000e+00 0.000e+00
420 1 -4.214e-03 1.583e+01 -1.761e+00 0.000e+00 0.000e+00 0.000e+00
421 1 3.519e+00 1.408e+01 -3.522e+00 0.000e+00 0.000e+00 0.000e+00
422 1 5.280e+00 1.584e+01 -3.521e+00 0.000e+00 0.000e+00 0.000e+00
423 1 5.280e+00 1.408e+01 -1.762e+00 0.000e+00 0.000e+00 0.000e+00
424 1 3.519e+00 1.584e+01 -1.762e+00 0.000e+00 0.000e+00 0.000e+00
425 1 7.041e+00 1.408e+01 -3.522e+00 0.000e+00 0.000e+00 0.000e+00
426 1 8.803e+00 1.583e+01 -3.521e+00 0.000e+00 0.000e+00 0.000e+00
427 1 8.802e+00 1.408e+01 -1.762e+00 0.000e+00 0.000e+00 0.000e+00
428 1 7.042e+00 1.584e+01 -1.762e+00 0.000e+00 0.000e+00 0.000e+00
429 1 1.056e+01 1.408e+01 -3.522e+00 0.000e+00 0.000e+00 0.000e+00
430 1 1.233e+01 1.583e+01 -3.521e+00 0.000e+00 0.000e+00 0.000e+00
431 1 1.232e+01 1.407e+01 -1.761e+00 0.000e+00 0.000e+00 0.000e+00
432 1 1.056e+01 1.583e+01 -1.761e+00 0.000e+00 0.000e+00 0.000e+00
433 1 1.409e+01 1.407e+01 -3.520e+00 0.000e+00 0.000e+00 0.000e+00
434 1 1.585e+01 1.583e+01 -3.520e+00 0.000e+00 0.000e+00 0.000e+00
435 1 1.585e+01 1.407e+01 -1.761e+00 0.000e+00 0.000e+00 0.000e+00
436 1 1.409e+01 1.583e+01 -1.760e+00 0.000e+00 0.000e+00 0.000e+00
437 1 1.761e+01 1.408e+01 -3.521e+00 0.000e+00 0.000e+00 0.000e+00