         292
Lattice=" 110.7612   0.0000   0.0000   0.0000 121.9364   0.0000   0.0000   0.0000   8.6222 " Time=0.000E+00  Step=0
Ni    38.25761030    0.69954680    0.71547770      91
Ni    39.56076430    0.70132420    2.89957380      96
NiV   40.85926820    0.71030430    0.76832640      97
NiV   42.15001680    0.72357600    2.94244680     102
NiV   43.43180090    0.73826980    0.80023050     103
NiV   44.70513540    0.75185030    2.96563860     108
NiV   45.97168360    0.76371490    0.81781100     109
NiV   47.23274610    0.77246070    2.97987280     114
NiV   48.48999410    0.77999670    0.82953970     115
NiV   49.74423220    0.78550710    2.98955160     120
NiV   50.99636460    0.78972670    0.83772790     121
NiV   52.24713520    0.79249750    2.99659920     126
NiV   53.49665840    0.79496050    0.84370780     127
NiV   54.74536900    0.79704870    3.00155710     132
NiV   55.99356840    0.79840920    0.84778720     133
NiV   57.24143600    0.79898370    3.00486710     138
NiV   58.48921590    0.79920640    0.85023860     139
NiV   59.73696900    0.79932120    3.00591090     144
NiV   60.98470700    0.79911370    0.84971660     145
NiV   62.23261640    0.79885190    3.00389080     150
NiV   63.48058700    0.79767160    0.84666420     151
NiV   64.72911840    0.79596710    3.00013020     156
NiV   65.97817240    0.79356650    0.84201720     157
NiV   67.22850040    0.79120290    2.99449900     162
NiV   68.47984320    0.78756160    0.83528480     163
NiV   69.73305510    0.78274090    2.98659180     168
NiV   70.98874660    0.77642920    0.82606250     169
NiV   72.24794770    0.76832880    2.97566920     174
NiV   73.51173400    0.75862240    0.81283550     175
NiV   74.78187560    0.74599650    2.95951660     180
NiV   76.05950170    0.73172220    0.79241370     181
NiV   77.34642030    0.71735340    2.93222560     186
NiV   78.64192970    0.70557820    0.75509510     187
Ni    79.94423680    0.69974300    2.88363840     192
Ni    81.24648290    0.70202100    0.69965640     193
Ni    38.23172380   59.58280570    1.45356900    2469
Ni    39.53427890   59.58492280    3.58046490    2471
NiV   40.83625410   59.57891470    1.39807180    2475
NiV   42.13100430   59.56721500    3.53242070    2477
NiV   43.41706850   59.55328370    1.36149010    2481
NiV   44.69385150   59.53948980    3.50569350    2483
NiV   45.96332940   59.52750780    1.34139490    2487
NiV   47.22660830   59.51842120    3.48973440    2489
NiV   48.48543930   59.51092530    1.32827300    2493
NiV   49.74091340   59.50514610    3.47889590    2495
NiV   50.99393460   59.50081640    1.31916060    2499
NiV   52.24535750   59.49779510    3.47111700    2501
NiV   53.49551010   59.49544150    1.31264870    2505
NiV   54.74464040   59.49331670    3.46575720    2507
NiV   55.99326720   59.49195100    1.30834820    2511
NiV   57.24139410   59.49113850    3.46246600    2513
NiV   58.48957060   59.49119950    1.30591040    2517
NiV   59.73760610   59.49118430    3.46136810    2519
NiV   60.98576740   59.49097060    1.30668360    2523
NiV   62.23382190   59.49164200    3.46353700    2525
NiV   63.48231130   59.49286650    1.30969440    2529
NiV   64.73129270   59.49481590    3.46755170    2531
NiV   65.98108680   59.49718100    1.31475880    2535
NiV   67.23222350   59.49982070    3.47375060    2537
NiV   68.48472600   59.50383000    1.32221520    2541
NiV   69.73950200   59.50920110    3.48249490    2543
NiV   70.99737560   59.51625450    1.33258570    2547
NiV   72.25933840   59.52479940    3.49503020    2549
NiV   73.52709200   59.53609850    1.34768530    2553
NiV   74.80190280   59.54957200    3.51377060    2555
NiV   76.08552550   59.56349570    1.37240300    2559
NiV   77.37812040   59.57606890    3.54766490    2561
Ni    78.67836000   59.58349230    1.41753450    2565
Ni    79.98182680   59.58349990    3.60200070    2567
Ni    38.92616660   61.66981890    2.47534730    2736
Ni    40.11707310   61.66637420    0.37049400    2737
NiV   41.31034470   61.65053940    2.57492810    2742
NiV   42.50801850   61.62758640    0.46169560    2743
NiV   43.71239090   61.60457610    2.65047980    2748
NiV   44.92464080   61.58407980    0.51886610    2749
NiV   46.14315800   61.56804280    2.69016360    2754
NiV   47.36756140   61.55573280    0.54443800    2755
NiV   48.59627150   61.54650500    2.70565890    2760
NiV   49.82838060   61.53960800    0.55313850    2761
NiV   51.06295010   61.53449630    2.71010760    2766
NiV   52.29930880   61.53068160    0.55506770    2767
NiV   53.53703690   61.52774050    2.71061610    2772
NiV   54.77546310   61.52496720    0.55483180    2773
NiV   56.01477050   61.52326200    2.71014240    2778
NiV   57.25451660   61.52223210    0.55442500    2779
NiV   58.49447630   61.52134330    2.71012710    2784
NiV   59.73474120   61.52123260    0.55457980    2785
NiV   60.97474300   61.52202990    2.70994430    2790
NiV   62.21455000   61.52290350    0.55453040    2791
NiV   63.45403290   61.52438740    2.71033810    2796
NiV   64.69263460   61.52705390    0.55501870    2797
NiV   65.93064120   61.52982710    2.71068620    2802
NiV   67.16739660   61.53335190    0.55477530    2803
NiV   68.40248110   61.53806310    2.70921380    2808
NiV   69.63531500   61.54445650    0.55114100    2809
NiV   70.86499020   61.55301290    2.70183590    2814
NiV   72.09063720   61.56447990    0.53769570    2815
NiV   73.31072240   61.57950980    2.67925340    2820
NiV   74.52474980   61.59866720    0.50211560    2821
NiV   75.73095710   61.62152480    2.62677980    2826
NiV   76.93022920   61.64495850    0.43109190    2827
Ni    78.12448880   61.66292190    2.53914170    2832
Ni    79.31562810   61.66979600    0.33303870    2833
Ni    80.50801090   61.66317750    2.44023130    2838
Ni    42.50970840  108.40646360    1.77571120    4635
Ni    43.73161700  108.41780850    3.90729360    4637
Ni    44.95087060  108.43591310    1.75539870    4641
Ni    41.30857090  110.41756440    2.49934650    4902
Ni    42.52437210  110.42864230    0.35040990    4903
Ni    42.53022390  112.43819430    3.18815540    4904
Ni    43.74757010  112.46221160    1.03211890    4906
Ni    44.96465300  110.45154570    0.30967990    4908
Ni    44.96843720  112.47668460    3.16217540    4909
Ni    46.16840740  110.46179200    2.44697860    4913
Ni    37.71271140  120.55484010    1.86398800    5162
Ni    38.90504460  120.54996490    3.97025600    5164
Ni    40.09622960  120.55991370    1.76456280    5168
NiV   41.29148870  120.57885740    3.87349820    5170
NiV   42.49134070  120.60353850    1.67940870    5174
NiV   43.69913100  120.62607580    3.80545500    5176
NiV   44.91407020  120.64569090    1.62957980    5180
NiV   46.13516620  120.66068270    3.77178120    5182
NiV   47.36166760  120.67278290    1.60826340    5186
NiV   48.59188460  120.68123630    3.75921230    5188
NiV   49.82529830  120.68807990    1.60132510    5192
NiV   51.06065750  120.69271850    3.75579150    5194
NiV   52.29763030  120.69634250    1.59982740    5198
NiV   53.53580860  120.69918060    3.75547270    5200
NiV   54.77451330  120.70191200    1.60009770    5204
NiV   56.01413730  120.70351410    3.75588160    5206
NiV   57.25405890  120.70465090    1.60035180    5210
NiV   58.49435430  120.70576480    3.75561530    5212
NiV   59.73486330  120.70590980    1.59995510    5216
NiV   60.97533800  120.70533750    3.75563770    5218
NiV   62.21540070  120.70404820    1.60019150    5222
NiV   63.45527650  120.70268250    3.75552800    5224
NiV   64.69449620  120.70046240    1.59973780    5228
NiV   65.93301400  120.69759370    3.75501610    5230
NiV   67.17067720  120.69440460    1.59955690    5234
NiV   68.40693670  120.69019320    3.75569630    5236
NiV   69.64135740  120.68457030    1.60175310    5240
NiV   70.87322240  120.67709350    3.76063680    5242
NiV   72.10158540  120.66722870    1.61119540    5246
NiV   73.32553100  120.65416720    3.77718980    5248
NiV   74.54347230  120.63736730    1.63822740    5252
NiV   75.75504310  120.61610420    3.81874230    5254
NiV   76.95879360  120.59258270    1.69751430    5258
NiV   78.15594480  120.56952670    3.89632320    5260
Ni    79.34899140  120.55423740    1.79020450    5264
Ni    80.53996280  120.55166630    3.99645920    5266
Ni    38.25762560    0.69893070    5.02650070    5430
Ni    39.56109620    0.70141910    7.21052500    5435
NiV   40.85939800    0.70988340    5.07922750    5436
NiV   42.15018460    0.72382150    7.25348760    5441
NiV   43.43187720    0.73795580    5.11115310    5442
NiV   44.70523070    0.75210060    7.27667140    5447
NiV   45.97167600    0.76318380    5.12897490    5448
NiV   47.23287580    0.77258690    7.29086400    5453
NiV   48.48999790    0.77979290    5.14061740    5454
NiV   49.74431610    0.78548970    7.30056240    5459
NiV   50.99632640    0.78961590    5.14889000    5460
NiV   52.24716570    0.79242350    7.30769250    5465
NiV   53.49661640    0.79492770    5.15483570    5466
NiV   54.74536900    0.79700420    7.31266020    5471
NiV   55.99354560    0.79840330    5.15890030    5472
NiV   57.24142840    0.79896120    7.31597140    5477
NiV   58.48920440    0.79920690    5.16134500    5478
NiV   59.73696140    0.79931140    7.31701380    5483
NiV   60.98470320    0.79911680    5.16082000    5484
NiV   62.23261260    0.79884810    7.31499340    5489
NiV   63.48058700    0.79767300    5.15776730    5490
NiV   64.72911840    0.79596560    7.31123260    5495
NiV   65.97817240    0.79356710    5.15311960    5496
NiV   67.22850040    0.79120230    7.30560110    5501
NiV   68.47984320    0.78756180    5.14638710    5502
NiV   69.73305510    0.78274070    7.29769370    5507
NiV   70.98874660    0.77642930    5.13716460    5508
NiV   72.24794770    0.76832870    7.28677130    5513
NiV   73.51173400    0.75862250    5.12393760    5514
NiV   74.78187560    0.74599650    7.27061850    5519
NiV   76.05950170    0.73172230    5.10351560    5520
NiV   77.34642030    0.71735340    7.24332760    5525
NiV   78.64192970    0.70557820    5.06619690    5526
Ni    79.94423680    0.69974300    7.19474030    5531
Ni    81.24648290    0.70202100    5.01075840    5532
Ni    38.23172380   59.58280570    5.76467090    7808
Ni    39.53427890   59.58492280    7.89156680    7810
NiV   40.83625410   59.57891470    5.70917370    7814
NiV   42.13100430   59.56721500    7.84352260    7816
NiV   43.41706850   59.55328370    5.67259220    7820
NiV   44.69385150   59.53948980    7.81679540    7822
NiV   45.96332940   59.52750780    5.65249680    7826
NiV   47.22660830   59.51842120    7.80083610    7828
NiV   48.48543930   59.51092530    5.63937480    7832
NiV   49.74091340   59.50514610    7.78999760    7834
NiV   50.99393460   59.50081640    5.63026240    7838
NiV   52.24535750   59.49779510    7.78221900    7840
NiV   53.49551010   59.49544150    5.62375070    7844
NiV   54.74464040   59.49331670    7.77685880    7846
NiV   55.99326720   59.49195100    5.61945010    7850
NiV   57.24139410   59.49113850    7.77356770    7852
NiV   58.48957060   59.49119950    5.61701250    7856
NiV   59.73760610   59.49118430    7.77247000    7858
NiV   60.98576740   59.49097060    5.61778550    7862
NiV   62.23382190   59.49164200    7.77463870    7864
NiV   63.48231130   59.49286650    5.62079620    7868
NiV   64.73129270   59.49481590    7.77865360    7870
NiV   65.98108680   59.49718100    5.62586070    7874
NiV   67.23222350   59.49982070    7.78485250    7876
NiV   68.48472600   59.50383000    5.63331700    7880
NiV   69.73950200   59.50920110    7.79359680    7882
NiV   70.99737560   59.51625450    5.64368780    7886
NiV   72.25933840   59.52479940    7.80613230    7888
NiV   73.52709200   59.53609850    5.65878730    7892
NiV   74.80190280   59.54957200    7.82487250    7894
NiV   76.08552550   59.56349570    5.68350510    7898
NiV   77.37812040   59.57606890    7.85876660    7900
Ni    78.67836000   59.58349230    5.72863630    7904
Ni    79.98182680   59.58349990    7.91310260    7906
Ni    38.92616660   61.66981890    6.78644950    8075
Ni    40.11707310   61.66637420    4.68159580    8076
NiV   41.31034470   61.65053940    6.88603020    8081
NiV   42.50801850   61.62758640    4.77279760    8082
NiV   43.71239090   61.60457610    6.96158180    8087
NiV   44.92464080   61.58407980    4.82996800    8088
NiV   46.14315800   61.56804280    7.00126550    8093
NiV   47.36756140   61.55573280    4.85553980    8094
NiV   48.59627150   61.54650500    7.01676080    8099
NiV   49.82838060   61.53960800    4.86424060    8100
NiV   51.06295010   61.53449630    7.02120970    8105
NiV   52.29930880   61.53068160    4.86616960    8106
NiV   53.53703690   61.52774050    7.02171800    8111
NiV   54.77546310   61.52496720    4.86593400    8112
NiV   56.01477050   61.52326200    7.02124450    8117
NiV   57.25451660   61.52223210    4.86552720    8118
NiV   58.49447630   61.52134330    7.02122930    8123
NiV   59.73474120   61.52123260    4.86568160    8124
NiV   60.97474300   61.52202990    7.02104620    8129
NiV   62.21455000   61.52290350    4.86563260    8130
NiV   63.45403290   61.52438740    7.02144000    8135
NiV   64.69263460   61.52705390    4.86612080    8136
NiV   65.93064120   61.52982710    7.02178810    8141
NiV   67.16739660   61.53335190    4.86587720    8142
NiV   68.40248110   61.53806310    7.02031560    8147
NiV   69.63531500   61.54445650    4.86224280    8148
NiV   70.86499020   61.55301290    7.01293800    8153
NiV   72.09063720   61.56447990    4.84879780    8154
NiV   73.31072240   61.57950980    6.99035500    8159
NiV   74.52474980   61.59866720    4.81321770    8160
NiV   75.73095710   61.62152480    6.93788160    8165
NiV   76.93022920   61.64495850    4.74219370    8166
Ni    78.12448880   61.66292190    6.85024360    8171
Ni    79.31562810   61.66979600    4.64414070    8172
Ni    80.50801090   61.66317750    6.75133330    8177
Ni    42.51358030  110.42736060    4.63453720   10242
Ni    44.95419320  110.45095060    4.59369850   10248
Ni    37.71307380  120.55378730    6.17481280   10502
Ni    38.90465560  120.55092620    8.28142740   10504
Ni    40.09631350  120.55963900    6.07545280   10508
NiV   41.29123310  120.57978060    8.18483830   10510
NiV   42.49126820  120.60354620    5.99043180   10514
NiV   43.69910050  120.62696080    8.11668780   10516
NiV   44.91394820  120.64560700    5.94061720   10520
NiV   46.13529970  120.66135410    8.08303360   10522
NiV   47.36154180  120.67250830    5.91925480   10526
NiV   48.59201820  120.68158720    8.07031060   10528
NiV   49.82507710  120.68762210    5.91230680   10532
NiV   51.06059270  120.69261930    8.06681350   10534
NiV   52.29752350  120.69615940    5.91090680   10538
NiV   53.53572850  120.69907380    8.06653120   10540
NiV   54.77447510  120.70185850    5.91120100   10544
NiV   56.01408390  120.70346070    8.06696510   10546
NiV   57.25404740  120.70463560    5.91145860   10550
NiV   58.49432380  120.70574190    8.06670950   10552
NiV   59.73485950  120.70590210    5.91106040   10556
NiV   60.97532280  120.70532230    8.06673720   10558
NiV   62.21540070  120.70404820    5.91129540   10562
NiV   63.45526890  120.70268250    8.06662940   10564
NiV   64.69449620  120.70046240    5.91084060   10568
NiV   65.93300640  120.69759370    8.06611820   10570
NiV   67.17068480  120.69440460    5.91065940   10574
NiV   68.40693670  120.69019320    8.06679820   10576
NiV   69.64135740  120.68457030    5.91285520   10580
NiV   70.87322240  120.67709350    8.07173920   10582
NiV   72.10158540  120.66722870    5.92229760   10586
NiV   73.32553100  120.65416720    8.08829120   10588
NiV   74.54347230  120.63736730    5.94932940   10592
NiV   75.75504310  120.61610420    8.12984470   10594
NiV   76.95879360  120.59258270    6.00861640   10598
NiV   78.15594480  120.56952670    8.20742510   10600
Ni    79.34899140  120.55423740    6.10130640   10604
Ni    80.53996280  120.55166630    8.30756090   10606
         292
Lattice=" 110.7612   0.0000   0.0000   0.0000 121.9364   0.0000   0.0000   0.0000   8.6222 " Time=1.555E+04  Step=0.5
Ni    38.25721818    0.69678248    0.71380698      91
Ni    39.56035564    0.69789890    2.89847611      96
NiV   40.85880462    0.70597422    0.76767038      97
NiV   42.14944836    0.72126663    2.94291725     102
NiV   43.43146330    0.73784596    0.80055840     103
NiV   44.70495708    0.75518147    2.96658576     108
NiV   45.97233525    0.76781859    0.81795902     109
NiV   47.23395966    0.77897462    2.97977293     114
NiV   48.49167466    0.78479623    0.82891876     115
NiV   49.74595753    0.79006979    2.98901264     120
NiV   50.99783100    0.79209918    0.83764259     121
NiV   52.24849063    0.79446162    2.99651877     126
NiV   53.49762132    0.79582453    0.84396750     127
NiV   54.74628823    0.79770862    3.00176258     132
NiV   55.99418683    0.79878242    0.84810823     133
NiV   57.24203258    0.79932145    3.00510760     138
NiV   58.48964386    0.79947974    0.85049975     139
NiV   59.73737798    0.79954924    3.00613001     144
NiV   60.98502828    0.79933086    0.84993023     145
NiV   62.23291587    0.79903497    3.00407359     150
NiV   63.48082950    0.79784029    0.84683447     151
NiV   64.72933753    0.79610888    3.00028558     156
NiV   65.97834813    0.79368293    0.84216318     157
NiV   67.22865307    0.79129324    2.99463884     162
NiV   68.47997082    0.78763539    0.83541977     163
NiV   69.73316441    0.78280085    2.98672194     168
NiV   70.98883274    0.77647823    0.82619122     169
NiV   72.24802554    0.76836901    2.97579491     174
NiV   73.51179743    0.75865478    0.81296069     175
NiV   74.78192689    0.74602318    2.95964084     180
NiV   76.05954250    0.73174205    0.79253711     181
NiV   77.34645804    0.71737165    2.93234889     186
NiV   78.64196246    0.70559427    0.75521814     187
Ni    79.94426688    0.69975756    2.88376041     192
Ni    81.24651291    0.70203509    0.69977722     193
Ni    38.23175759   59.58281677    1.45368467    2469
Ni    39.53431270   59.58493347    3.58058069    2471
NiV   40.83629072   59.57892707    1.39818785    2475
NiV   42.13103691   59.56722663    3.53253724    2477
NiV   43.41710311   59.55329427    1.36160736    2481
NiV   44.69388297   59.53950279    3.50581127    2483
NiV   45.96336049   59.52752218    1.34151298    2487
NiV   47.22663584   59.51843464    3.48985281    2489
NiV   48.48546525   59.51094182    1.32839158    2493
NiV   49.74093589   59.50516284    3.47901451    2495
NiV   50.99395699   59.50083332    1.31927916    2499
NiV   52.24537219   59.49781086    3.47123467    2501
NiV   53.49552200   59.49545681    1.31276413    2505
NiV   54.74464455   59.49332968    3.46586735    2507
NiV   55.99326365   59.49195830    1.30844786    2511
NiV   57.24137922   59.49113299    3.46254286    2513
NiV   58.48954111   59.49121371    1.30593164    2517
NiV   59.73759339   59.49122639    3.46132645    2519
NiV   60.98569913   59.49128336    1.30652915    2523
NiV   62.23383410   59.49170368    3.46351033    2525
NiV   63.48230334   59.49292495    1.30973204    2529
NiV   64.73130709   59.49484849    3.46762469    2531
NiV   65.98109800   59.49720416    1.31485381    2535
NiV   67.23224551   59.49983389    3.47385914    2537
NiV   68.48474626   59.50383822    1.32233218    2541
NiV   69.73952950   59.50920671    3.48261676    2543
NiV   70.99740125   59.51626001    1.33271042    2547
NiV   72.25937116   59.52480625    3.49515602    2549
NiV   73.52712112   59.53610643    1.34781142    2553
NiV   74.80193541   59.54958286    3.51389647    2555
NiV   76.08556207   59.56350625    1.37252875    2559
NiV   77.37815522   59.57607983    3.54779064    2561
Ni    78.67839890   59.58350509    1.41766034    2565
Ni    79.98186655   59.58351144    3.60212628    2567
Ni    38.92619374   61.66982915    2.47546921    2736
Ni    40.11709738   61.66638457    0.37061589    2737
NiV   41.31036969   61.65055053    2.57504936    2742
NiV   42.50804515   61.62759612    0.46181586    2743
NiV   43.71241705   61.60458802    2.65059891    2748
NiV   44.92467036   61.58409197    0.51898395    2749
NiV   46.14318565   61.56805772    2.69028046    2754
NiV   47.36758855   61.55574847    0.54455411    2755
NiV   48.59629924   61.54652410    2.70577458    2760
NiV   49.82840879   61.53962823    0.55325419    2761
NiV   51.06297609   61.53451533    2.71022373    2766
NiV   52.29933058   61.53070100    0.55518463    2767
NiV   53.53705622   61.52776086    2.71073483    2772
NiV   54.77547979   61.52498290    0.55495195    2773
NiV   56.01478152   61.52327278    2.71026496    2778
NiV   57.25451975   61.52223376    0.55454974    2779
NiV   58.49446890   61.52127308    2.71025924    2784
NiV   59.73473195   61.52120741    0.55474270    2785
NiV   60.97481088   61.52201874    2.71007700    2790
NiV   62.21461661   61.52299080    0.55460961    2791
NiV   63.45409287   61.52443277    2.71042248    2796
NiV   64.69268761   61.52708764    0.55511330    2797
NiV   65.93068861   61.52985158    2.71079044    2802
NiV   67.16743834   61.53336750    0.55488676    2803
NiV   68.40252235   61.53807493    2.70933033    2808
NiV   69.63535200   61.54446351    0.55126100    2809
NiV   70.86501958   61.55301920    2.70195754    2814
NiV   72.09066745   61.56448525    0.53781736    2815
NiV   73.31074513   61.57951843    2.67937375    2820
NiV   74.52477516   61.59867817    0.50223367    2821
NiV   75.73098044   61.62153631    2.62689537    2826
NiV   76.93024564   61.64497268    0.43120497    2827
Ni    78.12450977   61.66293589    2.53925274    2832
Ni    79.31564493   61.66980604    0.33314899    2833
Ni    80.50802915   61.66318506    2.44034197    2838
Ni    43.65040776  108.27926418    3.98149287    4637
Ni    46.13620972  108.49731942    3.89509355    4643
Ni    45.05951101  112.61369213    3.09851108    4909
Ni    46.31964101  110.52938987    2.33676497    4913
Ni    37.71501474  120.55225488    1.86397230    5162
Ni    38.90697653  120.54575932    3.97077309    5164
Ni    40.09799570  120.55425418    1.76549412    5168
NiV   41.29184101  120.57402545    3.87452656    5170
NiV   42.49122647  120.60175507    1.67932493    5174
NiV   43.69794858  120.62848138    3.80413832    5176
NiV   44.91344196  120.65266345    1.62691805    5180
NiV   46.13523635  120.67055258    3.76905067    5182
NiV   47.36243428  120.68205627    1.60561102    5186
NiV   48.59376687  120.69030750    3.75829974    5188
NiV   49.82628849  120.69234421    1.60055266    5192
NiV   51.06242446  120.69668168    3.75603198    5194
NiV   52.29856387  120.69752395    1.60014404    5198
NiV   53.53709717  120.70037953    3.75604746    5200
NiV   54.77539279  120.70216222    1.60070524    5204
NiV   56.01508164  120.70389691    3.75644940    5206
NiV   57.25482834  120.70483137    1.60090093    5210
NiV   58.49507174  120.70599579    3.75607846    5212
NiV   59.73548554  120.70611571    1.60037621    5216
NiV   60.97588759  120.70555213    3.75597906    5218
NiV   62.21589081  120.70425228    1.60050357    5222
NiV   63.45569254  120.70285710    3.75579227    5224
NiV   64.69487284  120.70063462    1.59997933    5228
NiV   65.93331895  120.69772460    3.75522598    5230
NiV   67.17094679  120.69451706    1.59974999    5234
NiV   68.40715447  120.69028035    3.75586944    5236
NiV   69.64154188  120.68464259    1.60191446    5240
NiV   70.87337555  120.67715215    3.76078547    5242
NiV   72.10171384  120.66727958    1.61133577    5246
NiV   73.32563295  120.65420992    3.77732277    5248
NiV   74.54355891  120.63740366    1.63835532    5252
NiV   75.75511525  120.61613506    3.81886636    5254
NiV   76.95885761  120.59260776    1.69763645    5258
NiV   78.15600183  120.56954525    3.89644405    5260
Ni    79.34904294  120.55425364    1.79032479    5264
Ni    80.54001064  120.55167803    3.99657913    5266
Ni    38.25708201    0.69660279    5.02490127    5430
Ni    39.56034570    0.69792798    7.20934052    5435
NiV   40.85856669    0.70641045    5.07909431    5436
NiV   42.14935973    0.72048301    7.25380704    5441
NiV   43.43092032    0.73780209    5.11240336    5442
NiV   44.70505396    0.75385530    7.27733624    5447
NiV   45.97192768    0.76794476    5.12988219    5448
NiV   47.23389641    0.77752801    7.29104360    5453
NiV   48.49124464    0.78551037    5.14075212    5454
NiV   49.74557411    0.78922689    7.30076300    5459
NiV   50.99774378    0.79305697    5.14877502    5460
NiV   52.24809483    0.79430962    7.30796761    5465
NiV   53.49775568    0.79638735    5.15496945    5466
NiV   54.74607174    0.79778896    7.31299831    5471
NiV   55.99434114    0.79903500    5.15913888    5472
NiV   57.24194524    0.79942253    7.31625131    5477
NiV   58.48975223    0.79958030    5.16156518    5478
NiV   59.73735752    0.79961208    7.31724643    5483
NiV   60.98508901    0.79935925    5.16101743    5484
NiV   62.23291792    0.79906466    7.31518154    5489
NiV   63.48085999    0.79785008    5.15792838    5490
NiV   64.72934269    0.79612352    7.31139059    5495
NiV   65.97836286    0.79368504    5.15326046    5496
NiV   67.22865640    0.79129882    7.30574203    5501
NiV   68.47997801    0.78763552    5.14651947    5502
NiV   69.73316619    0.78280294    7.29782436    5507
NiV   70.98883582    0.77647820    5.13729218    5508
NiV   72.24802626    0.76836974    7.28689716    5513
NiV   73.51179859    0.75865468    5.12406230    5514
NiV   74.78192712    0.74602344    7.27074300    5519
NiV   76.05954290    0.73174195    5.10363897    5520
NiV   77.34645809    0.71737177    7.24345097    5525
NiV   78.64196258    0.70559409    5.06632002    5526
Ni    79.94426684    0.69975758    7.19486244    5531
Ni    81.24651291    0.70203496    5.01087913    5532
Ni    38.23175759   59.58281677    5.76478662    7808
Ni    39.53431270   59.58493347    7.89168264    7810
NiV   40.83629072   59.57892707    5.70928980    7814
NiV   42.13103691   59.56722663    7.84363919    7816
NiV   43.41710311   59.55329427    5.67270931    7820
NiV   44.69388297   59.53950279    7.81691322    7822
NiV   45.96336049   59.52752218    5.65261493    7826
NiV   47.22663584   59.51843464    7.80095476    7828
NiV   48.48546525   59.51094182    5.63949353    7832
NiV   49.74093589   59.50516284    7.79011646    7834
NiV   50.99395699   59.50083332    5.63038111    7838
NiV   52.24537219   59.49781086    7.78233662    7840
NiV   53.49552200   59.49545681    5.62386608    7844
NiV   54.74464455   59.49332968    7.77696930    7846
NiV   55.99326365   59.49195830    5.61954981    7850
NiV   57.24137922   59.49113299    7.77364481    7852
NiV   58.48954111   59.49121371    5.61703359    7856
NiV   59.73759339   59.49122639    7.77242840    7858
NiV   60.98569913   59.49128336    5.61763110    7862
NiV   62.23383410   59.49170368    7.77461228    7864
NiV   63.48230334   59.49292495    5.62083399    7868
NiV   64.73130709   59.49484849    7.77872664    7870
NiV   65.98109801   59.49720416    5.62595576    7874
NiV   67.23224551   59.49983389    7.78496109    7876
NiV   68.48474626   59.50383822    5.63343413    7880
NiV   69.73952950   59.50920671    7.79371871    7882
NiV   70.99740125   59.51626001    5.64381237    7886
NiV   72.25937116   59.52480625    7.80625797    7888
NiV   73.52712112   59.53610643    5.65891337    7892
NiV   74.80193542   59.54958286    7.82499842    7894
NiV   76.08556207   59.56350625    5.68363070    7898
NiV   77.37815522   59.57607983    7.85889259    7900
Ni    78.67839890   59.58350509    5.72876229    7904
Ni    79.98186655   59.58351144    7.91322823    7906
Ni    38.92619374   61.66982915    6.78657115    8075
Ni    40.11709737   61.66638457    4.68171784    8076
NiV   41.31036969   61.65055053    6.88615131    8081
NiV   42.50804516   61.62759612    4.77291781    8082
NiV   43.71241705   61.60458802    6.96170086    8087
NiV   44.92467035   61.58409197    4.83008590    8088
NiV   46.14318565   61.56805772    7.00138241    8093
NiV   47.36758855   61.55574847    4.85565606    8094
NiV   48.59629924   61.54652410    7.01687653    8099
NiV   49.82840879   61.53962823    4.86435614    8100
NiV   51.06297609   61.53451533    7.02132568    8105
NiV   52.29933058   61.53070100    4.86628658    8106
NiV   53.53705622   61.52776086    7.02183678    8111
NiV   54.77547979   61.52498290    4.86605390    8112
NiV   56.01478152   61.52327278    7.02136691    8117
NiV   57.25451974   61.52223376    4.86565169    8118
NiV   58.49446890   61.52127308    7.02136119    8123
NiV   59.73473195   61.52120741    4.86584465    8124
NiV   60.97481088   61.52201873    7.02117894    8129
NiV   62.21461661   61.52299080    4.86571156    8130
NiV   63.45409287   61.52443277    7.02152444    8135
NiV   64.69268761   61.52708764    4.86621524    8136
NiV   65.93068861   61.52985158    7.02189239    8141
NiV   67.16743834   61.53336750    4.86598871    8142
NiV   68.40252235   61.53807493    7.02043228    8147
NiV   69.63535199   61.54446351    4.86236295    8148
NiV   70.86501958   61.55301920    7.01305950    8153
NiV   72.09066745   61.56448526    4.84891931    8154
NiV   73.31074513   61.57951843    6.99047570    8159
NiV   74.52477515   61.59867817    4.81333562    8160
NiV   75.73098043   61.62153631    6.93799732    8165
NiV   76.93024565   61.64497268    4.74230692    8166
Ni    78.12450977   61.66293589    6.85035468    8171
Ni    79.31564492   61.66980604    4.64425094    8172
Ni    80.50802915   61.66318506    6.75144392    8177
Ni    44.93929592  108.42675566    6.04744572    9980
Ni    42.39097530  110.36096359    4.74974739   10242
Ni    43.77882604  112.39002331    5.29334553   10245
Ni    43.72925201  110.41913305    6.78535300   10247
Ni    44.35466948  110.44626126    3.54129611   10248
Ni    46.19968855  112.49740252    5.25537555   10251
Ni    46.16652605  110.47087585    6.68979775   10253
Ni    47.38334396  110.49175892    4.54410279   10254
Ni    37.71528226  120.55145704    6.17481238   10502
Ni    38.90790195  120.54625136    8.28173527   10504