       13067
Lattice=" 150.5855   0.0000   0.0000   0.0000 109.7427   0.0000   0.0000   0.0000   8.6222 " Time=0.000E+00  Step=0  Energy=-58121.326  Barrier=0.000
Ni     1.81944500    0.97334252    0.44552723       1
Ni     1.75300884    3.00218073    3.31876829       2
Ni     1.69188749    5.02896186    1.87702485       3
Ni     3.00337661    3.01537573    1.16068322       4
Ni     2.94477140    5.04274155    4.03022396       5
Ni     3.06653372    0.98613350    2.59869504       6
Ni     4.31336062    0.99810693    0.44091608       7
Ni     4.25320187    3.02770345    3.31386369       8
Ni     4.19696938    5.05559104    1.87245460       9
Ni     5.50256028    3.03916763    1.15610730      10
Ni     5.44856287    5.06752129    4.02592799      11
Ni     5.55996734    1.00925839    2.59439414      12
Ni     6.80638654    1.01958141    0.43692769      13
Ni     6.75151435    3.04976760    3.30962111      14
Ni     6.69962221    5.07853746    1.86844833      15
Ni     8.00011631    3.05950059    1.15220516      16
Ni     7.95020837    5.08864141    4.02222761      17
Ni     8.05264443    1.02906905    2.59072433      18
Ni     9.29876261    1.03771499    0.43358424      19
Ni     9.24841023    3.06836332    3.30606746      20
Ni     9.20037458    5.09783358    1.86506950      21
Ni    10.49643374    3.07635324    1.14900791      22
Ni    10.45016749    5.10611453    4.01918455      23
Ni    10.54475915    1.04551434    2.58771525      24
Ni    11.79064945    1.05246435    0.43091681      25
Ni    11.74421924    3.08346946    3.30323353      26
Ni    11.69962822    5.11348601    1.86237428      27
Ni    12.99179486    3.08971347    1.14654256      28
Ni    12.94879319    5.11995186    4.01684660      29
Ni    13.03644679    1.05856492    2.58539531      30
Ni    14.28216273    1.06381891    0.42894825      31
Ni    14.23918518    3.09508963    3.30113991      32
Ni    14.19769482    5.12551863    1.86040006      33
Ni    15.48641183    3.09960558    1.14482132      34
Ni    15.44636196    5.13019608    4.01523932      35
Ni    15.52780741    1.06823251    2.58377967      36
Ni    16.77338969    1.07181546    0.42768443      37
Ni    16.73349384    3.10327255    3.29978891      38
Ni    16.69482047    5.13399751    1.85915949      39
Ni    17.98044807    3.10610551    1.14383543      40
Ni    17.94309344    5.13694000    4.01436172      41
Ni    18.01891738    1.07458120    2.58286371      42
Ni    19.26439726    1.07654704    0.42710934      43
Ni    19.22728941    3.10812337    3.29915986      44
Ni    19.19120158    5.13904460    1.85863751      45
Ni    20.47403101    3.10934892    1.14355177      46
Ni    20.43916337    5.14033627    4.01418440      47
Ni    20.50983524    1.07773416    2.58261936      48
Ni    21.75523644    1.07816758    0.42718249      49
Ni    21.72068448    3.10980882    3.29920696      50
Ni    21.68699536    5.14084388    1.85879042      51
Ni    22.96726001    3.10953337    1.14391196      52
Ni    22.93471223    5.14059995    4.01464978      53
Ni    23.00060523    1.07787598    2.58299374      54
Ni    24.24594533    1.07689140    0.42783897      55
Ni    24.21376655    3.10855622    3.29985974      56
Ni    24.18232703    5.13964031    1.85954744      57
Ni    25.46021190    3.10691391    1.14483435      58
Ni    25.42985124    5.13800370    4.01567496      59
Ni    25.49125987    1.07524891    2.58391069      60
Ni    26.73655150    1.07298607    0.42899264      61
Ni    26.70660283    3.10464544    3.30102669      62
Ni    26.67729493    5.13573115    1.86081514      63
Ni    27.95294518    3.10179161    1.14621924      64
Ni    27.92466691    5.13286544    4.01715790      65
Ni    27.98182241    1.07014241    2.58527569      66
Ni    29.22707441    1.06675878    0.43054252      67
Ni    29.19924397    3.09839445    3.30260192      68
Ni    29.17197477    5.12945039    1.86248502      69
Ni    30.44550353    3.09449655    1.14795679      70
Ni    30.41922509    5.12553023    4.01898602      71
Ni    30.47230899    1.06287677    2.58698347      72
Ni    31.71752739    1.05853806    0.43238129      73
Ni    31.69172751    3.09014048    3.30447392      74
Ni    31.66642349    5.12114893    1.86444291      75
Ni    32.93791906    3.08536818    1.14993608      76
Ni    32.91357481    5.11634967    4.02104600      77
Ni    32.96273064    1.05378387    2.58892694      78
Ni    34.20791956    1.04865443    0.43440426      79
Ni    34.18408084    3.08022048    3.30653456      80
Ni    34.16068317    5.11117430    1.86657859      81
Ni    35.43021516    3.07473670    1.15205373      82
Ni    35.40775210    5.10566294    4.02323272      83
Ni    35.45309487    1.04318860    2.59100573      84
Ni    36.69825717    1.03742345    0.43651703      85
Ni    36.67632400    3.06895428    3.30868683      86
Ni    36.65478469    5.09985364    1.86879374      87
Ni    37.92240908    3.06290852    1.15422041      88
Ni    37.90178359    5.09378218    4.02545600      89
Ni    37.94340698    1.03139407    2.59313274      90
Ni    39.18854476    1.02513332    0.43864079      91
Ni    39.16847196    3.05663248    3.31085007      92
Ni    39.14875118    5.08748189    1.87100731      93
Ni    40.41451404    3.05015684    1.15636478      94
Ni    40.39568962    5.08098363    4.02764453      95
Ni    40.43367096    1.01867182    2.59523812      96
Ni    41.67878598    1.01203782    0.44071503      97
Ni    41.66053661    3.04350988    3.31296256      98
Ni    41.64260090    5.07431575    1.87315796      99
Ni    42.90654091    3.03671755    1.15843477     100
Ni    42.88948690    5.06750414    4.02974690     101
Ni    42.92389024    1.00525731    2.59727075     102
Ni    44.16898417    0.99835400    0.44269783     103
Ni    44.15252816    3.02980350    3.31498172     104
Ni    44.13634946    5.06057240    1.87520399     105
Ni    45.39849955    3.02278922    1.16039692     106
Ni    45.38319039    5.05354184    4.03173071     107
Ni    45.41406822    0.99134948    2.59919760     108
Ni    46.65914286    0.98426332    0.44456453     109
Ni    46.64445631    3.01569416    3.31688262     110
Ni    46.63001154    5.04643173    1.87712167     111
Ni    47.89039969    3.00853585    1.16223417     112
Ni    47.87681480    5.03925939    4.03358017     113
Ni    47.90420861    0.97711318    2.60100176     114
Ni    49.14926602    0.96991498    0.44630534     115
Ni    49.13633103    3.00133007    3.31865544     116
Ni    49.12360213    5.03204038    1.87890245     117
Ni    50.38225169    2.99409099    1.16394318     118
Ni    50.37037560    5.02478862    4.03529320     119
Ni    50.39431568    0.96268305    2.60267980     120
Ni    51.63935825    0.95543026    0.44792243     121
Ni    51.62816315    2.98683133    3.32030254     122
Ni    51.61713738    5.01751659    1.88054991     123
Ni    52.87406696    2.97956248    1.16553130     124
Ni    52.86388978    5.01023544    4.03687829     125
Ni    52.88439441    0.94816815    2.60423882     126
Ni    54.12942493    0.94090707    0.44942713     127
Ni    54.11996477    2.97229465    3.32183550     128
Ni    54.11063525    5.00295511    1.88207670     129
Ni    55.36585834    2.96503699    1.16701367     130
Ni    55.35737639    4.99568453    4.03835156     131
Ni    55.37445062    0.93365634    2.60569366     132
NiV   56.61947238    0.92642427    0.45083717     133
Ni    56.61174955    2.95779770    3.32327240     134
Ni    56.60411597    4.98843165    1.88350175     135
Ni    57.85764039    2.95058414    1.16841068     136
Ni    57.85085695    4.98120358    4.03973412     137
NiV   57.86449115    0.91921838    2.60706440     138
NiV   59.10950794    0.91204540    0.45217442     139
Ni    59.10353301    2.94340290    3.32463543     140
Ni    59.09760248    4.97400670    1.88484783     141
Ni    60.34942970    2.93625991    1.16974586     142
Ni    60.34435593    4.96684670    4.04104992     143
NiV   60.35452384    0.90491138    2.60837417     144
NiV   61.59954000    0.89782180    0.45346282     145
Ni    61.59533289    2.92916050    3.32594896     146
Ni    61.59112090    4.95972868    1.88613962     147
Ni    62.84124519    2.92210948    1.17104396     148
Ni    62.83790123    4.95265724    4.04232393     149
NiV   62.84455765    0.89078160    2.60964732     150
NiV   64.08957811    0.88379526    0.45472676     151
Ni    64.08716939    2.91511120    3.32723779     152
Ni    64.08470102    4.94563647    1.88740199     153
Ni    65.33310846    2.90816958    1.17232951     154
Ni    65.33152466    4.93867005    4.04358063     155
NiV   65.33460279    0.87686682    2.61090793     156
NiV   66.57963320    0.86999997    0.45598972     157
Ni    66.57906559    2.90128815    3.32852587     158
Ni    66.57837684    4.93176128    1.88865875     159
Ni    67.82504419    2.89447012    1.17362568     160
Ni    67.82526256    4.92491310    4.04484293     161
NiV   67.82467094    0.86319805    2.61217867     162
NiV   69.06971772    0.85646410    0.45727335     163
Ni    69.07104794    2.88771839    3.32983540     164
Ni    69.07218723    4.91812813    1.88993174     165
Ni    70.31708078    2.88103555    1.17495351     166
Ni    70.31915663    4.91140868    4.04613139     167
NiV   70.31477539    0.84980089    2.61347995     168
NiV   71.55984588    0.84321091    0.45859667     169
Ni    71.56314697    2.87442393    3.33118612     170
Ni    71.56617697    4.90475677    1.89124009     171
Ni    72.80925107    2.86788559    1.17633131     172
Ni    72.81325495    4.89817414    4.04746360     173
NiV   72.80493132    0.83669638    2.61482929     174
NiV   74.05003396    0.83025932    0.45997557     175
Ni    74.05539804    2.86142232    3.33259477     176
Ni    74.06039781    4.89166221    1.89259969     177
Ni    75.30159324    2.85503567    1.17777417     178
Ni    75.30761336    4.88522214    4.04885369     179
NiV   75.29515625    0.82390148    2.61624083     180
NiV   76.54030083    0.81762436    0.46142236     181
Ni    76.54784251    2.84872690    3.33407474     182
Ni    76.55491008    4.87885475    1.89402290     183
Ni    77.79415219    2.84249698    1.17929374     184
Ni    77.80229715    4.87256052    4.05031216     185
NiV   77.78547057    0.81142921    2.61772502     186
NiV   79.03066864    0.80531701    0.46294565     187
Ni    79.04052925    2.83634657    3.33563600     188
Ni    79.04978460    4.86633956    1.89551831     189
Ni    80.28698133    2.83027600    1.18089835     190
Ni    80.29738338    4.86019159    4.05184573     191
NiV   80.27589846    0.79928844    2.61928865     192
NiV   81.52116379    0.79334383    0.46455042     193
Ni    81.53351684    2.82428520    3.33728526     194
Ni    81.54510550    4.85411583    1.89709078     195
Ni    82.78014511    2.81837363    1.18259320     196
Ni    82.79296418    4.84811094    4.05345741     197
NiV   82.76646880    0.78748312    2.62093495     198
NiV   84.01181813    0.78170581    0.46623824     199
Ni    84.02687649    2.81254025    3.33902632     200
Ni    84.04097401    4.84217494    1.89874161     201
Ni    85.27372255    2.80678336    1.18438085     202
Ni    85.28915116    4.83630509    4.05514694     203
NiV   85.25721696    0.77601086    2.62266393     204
NiV   86.50267111    0.77039663    0.46800776     205
Ni    86.52069625    2.80110058    3.34086073     206
Ni    86.53751360    4.83049775    1.90046904     207
Ni    87.76781226    2.79548866    1.18626209     208
Ni    87.78608142    4.82474824    4.05691117     209
NiV   87.74818716    0.76486080    2.62447317     210
NiV   88.99377264    0.75940020    0.46985579     211
Ni    89.01508719    2.78994330    3.34278886     212
Ni    89.03487716    4.81905060    1.90226873     213
Ni    90.26254002    2.78445905    1.18823732     214
Ni    90.28392617    4.81339738    4.05874487     215
NiV   90.23943617    0.75401061    2.62635908     216
NiV   91.48518775    0.74868668    0.47177888     217
Ni    91.51019255    2.77902889    3.34481176     218
Ni    91.53325715    4.80777919    1.90413495     219
Ni    92.75807001    2.77364398    1.19030900     220
Ni    92.78290280    4.80218435    4.06064219     221
NiV   92.73103907    0.74342151    2.62831911     222
NiV   93.97700394    0.73820646    0.47377635     223
Ni    94.00620184    2.76829324    3.34693414     224
Ni    94.03290041    4.79659845    1.90606223     225
Ni    95.25462251    2.76296284    1.19248518     226
Ni    95.28329278    4.79100364    4.06259882     227
NiV   95.22309891    0.73303078    2.63035566     228
NiV   96.46934397    0.72788107    0.47585531     229
Ni    96.50337288    2.75763552    3.34916890     230
Ni    96.53412923    4.78537780    1.90804840     231
Ni    97.75250168    2.75228972    1.19478564     232
Ni    97.78546688    4.77969352    4.06461593     233
Ni    97.71576373    0.72274075    2.63248288     234
Ni    98.96238886    0.71758906    0.47804025     235
Ni    99.00206765    2.74689830    3.35154532     236
Ni    99.03737212    4.77391662    1.91009963     237
Ni   100.25214204    2.74142697    1.19725241     238
Ni   100.28992238    4.76800432    4.06670703     239
Ni   100.20925844    0.71240008    2.63474019     240
Ni   101.45642330    0.70714143    0.48039224     241
Ni   101.50281213    2.73583204    3.35412245     242
Ni   101.54320817    4.76190290    1.91224013     243
Ni   102.75418580    2.73005742    1.19996758     244
Ni   102.79733529    4.75554439    4.06891203     245
Ni   102.70395085    0.70177203    2.63722049     246
Ni   103.95193316    0.69623920    0.48305148     247
Ni   104.00639764    2.72403000    3.35701377     248
Ni   104.05242738    4.74884238    1.91453322     249
Ni   105.25961653    2.71765306    1.20308762     250
Ni   105.30862823    4.74168622    4.07132997     251
Ni   105.20049893    0.69047439    2.64013543     252
Ni   106.44983251    0.68438610    0.48633956     253
Ni   106.51405573    2.71079669    3.36043580     254
Ni   106.56610280    4.73393362    1.91713357     255
Ni   107.76998500    2.70328316    1.20691569     256
Ni   107.82503733    4.72540161    4.07420412     257
Ni   107.70020466    0.67784854    2.64397838     258
Ni   108.95201834    0.67068138    0.49102128     259
Ni   109.02774618    2.69486518    3.36482192     260
Ni   109.08563277    4.71585782    1.92042855     261
Ni   110.28776414    2.68519680    1.21209107     262
Ni   110.34809268    4.70501479    4.07815746     263
Ni   110.20588661    0.66261679    2.64994585     264
Ni   111.46273142    0.65323796    0.49897957     265
Ni   111.55055795    2.67379543    3.37115587     266
Ni   111.61258892    4.69254553    1.92541885     267
Ni   112.81671946    2.66003496    1.22019671     268
Ni   112.87921663    4.67814372    4.08475832     269
Ni   112.72395250    0.64190465    2.66100381     270
Ni   113.99149068    0.62768099    0.51487203     271
Ni   114.08684910    2.64319569    3.38201681     272
Ni   114.14789715    4.66169670    1.93442653     273
Ni   115.36125033    2.62281766    1.23517660     274
Ni   115.41831251    4.64368281    4.09711636     275
Ni   115.26842921    0.60929624    2.68450771     276
Ni   116.55895661    0.58512293    0.55031633     277
Ni   116.63949603    2.60015352    3.40265798     278
Ni   116.68976771    4.62605376    1.95082383     279
Ni   117.91982149    2.58085153    1.26262266     280
Ni   117.96169951    4.61213781    4.11694437     281
Ni   117.86635616    0.55804340    2.73721858     282
Ni   119.18330049    0.54636957    0.62094441     283
Ni   119.20161159    2.57248849    3.43538197     284
Ni   119.23447526    4.60535502    1.97160994     285
Ni   120.48670635    2.57853659    1.29576468     286
Ni   120.50903483    4.60755225    4.13572778     287
Ni   120.50157551    0.56522807    2.81340743     288
Ni   121.81118701    0.59620745    0.68339671     289
Ni   121.77599973    2.59676790    3.46583326     290
Ni   121.78644534    4.61726849    1.98675989     291
Ni   123.06679569    2.61896442    1.32286913     292
Ni   123.06718645    4.63107643    4.14739899     293
Ni   123.10537179    0.62168047    2.85374941     294
Ni   124.38816984    0.64007885    0.70612711     295
Ni   124.35634109    2.63807561    3.48739320     296
Ni   124.35035908    4.64516349    1.99554809     297
Ni   125.64435746    2.65206260    1.33640264     298
Ni   125.63475476    4.65682396    4.15290947     299
Ni   125.66439519    0.65302602    2.86505443     300
Ni   126.93817295    0.66129261    0.70929020     301
Ni   126.93165067    2.66055942    3.49188427     302
Ni   126.91960981    4.66499584    1.99689280     303
Ni   128.21940651    2.66352958    1.33160143     304
Ni   128.20430932    4.66953875    4.14963920     305
Ni   128.21325926    0.66500297    2.86114835     306
Ni   129.49357339    0.66362998    0.69775918     307
Ni   129.50861729    2.66115713    3.47786887     308
Ni   129.48816488    4.67111773    1.98922416     309
Ni   130.79949162    2.65457576    1.30900142     310
Ni   130.77008481    4.67180607    4.13836714     311
Ni   130.78380027    0.65581732    2.83947635     312
Ni   132.08882685    0.64092612    0.66053815     313
Ni   132.09008032    2.64897385    3.44868883     314
Ni   132.04883791    4.67522224    1.97503239     315
Ni   133.37689396    2.65326121    1.27590900     316
Ni   133.32441191    4.68501165    4.12090761     317
Ni   133.40639990    0.63035817    2.78036449     318
Ni   134.72459154    0.64719968    0.58301011     319
Ni   134.65968422    2.67173655    3.41263514     320
Ni   134.59778119    4.70352401    1.95379849     321
Ni   135.94040856    2.70271530    1.23883752     322
Ni   135.86996165    4.72988856    4.09692105     323
Ni   136.03648440    0.68691481    2.70197266     324
Ni   137.33235363    0.72732920    0.52019896     325
Ni   137.21952919    2.73943339    3.37947074     326
Ni   137.14162461    4.76093241    1.92974833     327
Ni   138.49527966    2.77486935    1.21245396     328
Ni   138.41250397    4.79311163    4.07567756     329
Ni   138.61317334    0.76144938    2.65785587     330
Ni   139.88334781    0.79045523    0.48986877     331
Ni   139.76682112    2.80652030    3.35925397     332
Ni   139.68186100    4.82387125    1.91255829     333
Ni   141.03427966    2.83451055    1.19688027     334
Ni   140.94926710    4.85230869    4.06214402     335
Ni   141.14640982    0.81582057    2.63641275     336
Ni   142.40455681    0.83854655    0.47404531     337
Ni   142.29819193    2.85951591    3.34687422     338
Ni   142.21456878    4.87837074    1.90175246     339
Ni   143.55915846    2.88216930    1.18658189     340
Ni   143.47780897    4.90228676    4.05321142     341
Ni   143.65935516    0.85934765    2.62419221     342
Ni   144.91185402    0.87867206    0.46415721     343
Ni   144.81772117    2.90296971    3.33794170     344
Ni   144.73913368    4.92434782    1.89405655     345
Ni   146.07432979    2.92226625    1.17859346     346
Ni   145.99873532    4.94481796    4.04632828     347
Ni   146.16275192    0.89679403    2.61583657     348
Ni   147.41250623    0.91387941    0.45683612     349
Ni   147.32934921    2.94029656    3.33064650     350
Ni   147.25681261    4.96390621    1.88772559     351
Ni   148.58306775    2.95721791    1.17183840     352
Ni   148.51355385    4.98176900    4.04039742     353
Ni   148.66142229    0.93002879    2.60924330     354
Ni   149.90970614    0.94530230    0.45078403     355
Ni   149.83571336    2.97313306    3.32433691     356
Ni   149.76912797    4.99851831    1.88211066     357
Ni     0.50200590    2.98810739    1.16591631     358
Ni     0.43822303    5.01423190    4.03505571     359
Ni     0.57204011    0.95973434    2.60362099     360
Ni     1.63661050    7.05442172    0.43266733     361
Ni     1.58713364    9.07921726    3.29791942     362
Ni     1.54308006   11.10385995    1.85140145     363
Ni     2.84301497    9.09425532    1.14058034     364
Ni     2.79969685   11.11944265    4.00534231     365
Ni     2.89129337    7.06884415    2.58616229     366
Ni     4.14525275    7.08228363    0.42866223     367
Ni     4.09820443    9.10827907    3.29444316     368
Ni     4.05569070   11.13400191    1.84829186     369
Ni     5.35275407    9.12129638    1.13731025     370
Ni     5.31109517   11.14753571    4.00245599     371
Ni     5.39855889    7.09475285    2.58238011     372
Ni     6.65127558    7.10625895    0.42512242     373
Ni     6.60671433    9.13331135    3.29139444     374
Ni     6.56594573   11.16004087    1.84563632     375
Ni     7.86013333    9.14432608    1.13450195     376
Ni     7.82027871   11.17151413    4.00004429     377
Ni     7.90346068    7.11680581    2.57910372     378
Ni     9.15516660    7.12639587    0.42213022     379
Ni     9.11305668    9.15434214    3.28884687     380
Ni     9.07413046   11.18195329    1.84348432     381
Ni    10.36552729    9.16336182    1.13223481     382
Ni    10.32753676   11.19135811    3.99816849     383
Ni    10.40644081    7.13503162    2.57641487     384
Ni    11.65732632    7.14271676    0.41976139     385
Ni    11.61758537    9.17138915    3.28687796     386
Ni    11.58053243   11.19973108    1.84190029     387
Ni    12.86926847    9.17843061    1.13057914     388
Ni    12.83315101   11.20707802    3.99688971     389
Ni    12.90786218    7.14945705    2.57437960     390
Ni    14.15808384    7.15526100    0.41806967     391
Ni    14.12061154    9.18449584    3.28554715     392
Ni    14.08542461   11.21340851    1.84093736     393
Ni    15.37164703    9.18959801    1.12958098     394
Ni    15.33738378   11.21873626    3.99624982     395
Ni    15.40802353    7.16014040    2.57303767     396
Ni    16.65771054    7.16411065    0.41707986     397
Ni    16.62240502    9.19375423    3.28488533     398
Ni    16.58905743   11.22307939    1.84062385     399
Ni    17.87291328    9.19698575    1.12925499     400
Ni    17.84047279   11.22646059    3.99626192     401
Ni    17.90717149    7.16719106    2.57239823     402
Ni    19.15643055    7.16940497    0.41678499     403
Ni    19.12319744    9.19931811    3.28489035     404
Ni    19.09165536   11.22890728    1.84095650     405
Ni    20.37328101    9.20078118    1.12958187     406
Ni    20.34262890   11.23045161    3.99690566     407
Ni    20.40550961    7.17077982    2.57243812     408
Ni    21.65442845    7.17134700    0.41714590     409
Ni    21.62318546    9.20140906    3.28552577     410
Ni    21.59341535   11.23113034    1.84189751     411
Ni    22.87293031    9.20123977    1.13050852     412
Ni    22.84403483   11.23098455    3.99812595     413
Ni    22.90320482    7.17114166    2.57310265     414
Ni    24.15185461    7.17020232    0.41809331     415
Ni    24.12253313    9.20031489    3.28672270     416
Ni    24.09450559   11.23005912    1.84337523     417
Ni    25.37200961    9.19867897    1.13195164     418
Ni    25.34484399   11.22840214    3.99983587     419
Ni    25.40039195    7.16857041    2.57430928     420
Ni    26.64882928    7.16628963    0.41953312     421
Ni    26.62137367    9.19637886    3.28838534     422
Ni    26.59506455   11.22606407    1.84528945     423
Ni    27.87063747    9.19346296    1.13380527     424
Ni    27.84517994   11.22309691    4.00192454     425
Ni    27.89717750    7.16340528    2.57595450     426
Ni    29.14544608    7.15996357    0.42135489     427
Ni    29.11981158    9.18998039    3.29040035     428
Ni    29.09520112   11.21955323    1.84752164     429
Ni    30.36890511    9.18598026    1.13595167     430
Ni    30.34513743   11.21548530    4.00426909     431
Ni    30.39364320    7.15601091    2.57792357     432
Ni    31.64177586    7.15159322    0.42344230     433
Ni    31.61792580    9.18151088    3.29264852     434
Ni    31.59499673   11.21094431    1.84994796     435
Ni    32.86688023    9.17661916    1.13827309     436
Ni    32.84478563   11.20597960    4.00674793     437
Ni    32.88985005    7.14675534    2.58010123     438
Ni    34.13787088    7.14154050    0.42568355     439
Ni    34.11577398    9.17135006    3.29501629     440
Ni    34.09450959   11.20063813    1.85245201     441
Ni    35.36461174    9.16574618    1.14066237     442
Ni    35.34417319   11.19496409    4.00925229     443
Ni    35.38584271    7.13598993    2.58238131     444
Ni    36.63376931    7.13014254    0.42797990     445
Ni    36.61339756    9.15984747    3.29740470     446
Ni    36.59378025   11.18899860    1.85493450     447
Ni    37.86213491    9.15369104    1.14303017     448
Ni    37.84333405   11.18277957    4.01169368     449
Ni    37.88165394    7.12403472    2.58467381     450
Ni    39.12949950    7.11770022    0.43025101     451
Ni    39.11082684    9.14731111    3.29973492     452
Ni    39.09283743   11.17634168    1.85731858     453
Ni    40.35947614    9.14073897    1.14530862     454
Ni    40.34229298   11.16971643    4.01400720     455
Ni    40.37730862    7.11117010    2.58690861     456
Ni    41.62508372    7.10447278    0.43243722     457
Ni    41.60808538    9.13400308    3.30195010     458
Ni    41.59170310   11.16293226    1.85955114     459
Ni    42.85665703    9.12712922    1.14745163     460
Ni    42.84107015   11.15601470    4.01615110     461
Ni    42.87282711    7.09763413    2.58903642     462
Ni    44.12054105    7.09067756    0.43449918     463
Ni    44.10519353    9.12014055    3.30401447     464
Ni    44.09039649   11.14898662    1.86160115     465
Ni    45.35369733    9.11305790    1.14943308     466
Ni    45.33968455   11.14186838    4.01810421     467
Ni    45.36822779    7.08362419    2.59102729     468
Ni    46.61588961    7.07649302    0.43641571     469
Ni    46.60217098    9.10589988    3.30591070     470
Ni    46.58893692   11.13467810    1.86345631     471
Ni    47.85061712    9.09868310    1.15124356     472
Ni    47.83815633   11.12743186    4.01986207     473
Ni    47.86352888    7.06930106    2.59286803     474
Ni    49.11114806    7.06206355    0.43818077     475
Ni    49.09903856    9.09142236    3.30763641     476
Ni    49.08734575   11.12014386    1.86511898     477
Ni    50.34743826    9.08413079    1.15288681     478
Ni    50.33650836   11.11282670    4.02143288     479
Ni    50.35874976    7.05479408    2.59455891     480
Ni    51.60633673    7.04750476    0.43980017     481
Ni    51.59581941    9.07682007    3.30920062     482
Ni    51.58564761   11.10549146    1.86660225     483
Ni    52.84418541    9.06950054    1.15437627     484
Ni    52.83476722   11.09814795    4.02283371     485
Ni    52.85391188    7.04020641    2.59611049     486
Ni    54.10147833    7.03290864    0.44128840     487
Ni    54.09253990    9.06218139    3.31062035     488
Ni    54.08387121   11.09080478    1.86792634     489
Ni    55.34088677    9.05487075    1.15573185     490
Ni    55.33296391   11.08346956    4.02408721     491
Ni    55.34903942    7.02562001    2.59754049     492
Ni    56.59659868    7.01834814    0.44266575     493
Ni    56.58923020    9.04757580    3.31191773     494
Ni    56.58204996   11.07614898    1.86911566     495
Ni    57.83757465    9.04030293    1.15697726     496
Ni    57.83113434   11.06884890    4.02521891     497
Ni    57.84415989    7.01109984    2.59887113     498
Ni    59.09172710    7.00388113    0.44395585     499
Ni    59.08592487    9.03305777    3.31311750     500
Ni    59.08022239   11.06157448    1.87019633     501
Ni    60.33428596    9.02584530    1.15813775     502
Ni    60.32931981   11.05433022    4.02625506     503
Ni    60.33930460    6.99669741    2.60012694     504
Ni    61.58689698    6.98955347    0.44518365     505
Ni    61.58266332    9.01866993    3.31424503     506
Ni    61.57843268   11.04712007    1.87119430     507
Ni    62.83106275    9.01153551    1.15923844     508
Ni    62.82756748   11.03994744    4.02722091     509
Ni    62.83450916    6.98245355    2.60133293     510
Ni    64.08214636    6.97540146    0.44637387     511
Ni    64.07949040    9.00444545    3.31532479     512
Ni    64.07673110   11.03281526    1.87213381     513
Ni    65.32795284    8.99740270    1.16030290     514
Ni    65.32593086   11.02572606    4.02813948     515
Ni    65.32981417    6.96840054    2.60251321     516
Ni    66.57751855    6.96145375    0.44754976     517
Ni    66.57645705    8.99040981    3.31637921     518
Ni    66.57517455   11.01868194    1.87303639     519
Ni    67.82501051    8.98346897    1.16135214     520
Ni    67.82447044   11.01168462    4.02903056     521
Ni    67.82526589    6.95456368    2.60368993     522
Ni    69.07306299    6.94773258    0.44873213     523
Ni    69.07362115    8.97658198    3.31742769     524
Ni    69.07382730   11.00473547    1.87391997     525
Ni    70.32229746    8.96975034    1.16240380     526
Ni    70.32325445   10.99783551    4.02991011     527
Ni    70.32091716    6.94096238    2.60488236     528
Ni    71.56883621    6.93425469    0.44993860     529
Ni    71.57104846    8.96297519    3.31848595     530
Ni    71.57276179   10.99098539    1.87479837     531
Ni    72.81988383    8.95625734    1.16347156     532
Ni    72.82235984   10.98418543    4.03078968     533
Ni    72.81682855    6.92761081    2.60610638     534
Ni    74.06490320    6.92103170    0.45118315     535
Ni    74.06881388    8.94959723    3.31956556     536
Ni    74.07205973   10.97743554    1.87568083     537
Ni    75.31784965    8.94299494    1.16456478     538
Ni    75.32187334   10.97073526    4.03167614     539
Ni    75.31306987    6.91451800    2.60737394     540
Ni    76.56133903    6.90806998    0.45247568     541
Ni    76.56700297    8.93645014    3.32067357     542
Ni    76.57181327   10.96408370    1.87657176     543
Ni    77.81628654    8.92996206    1.16568812     544
Ni    77.82189294   10.95747951    4.03257137     545
Ni    77.80972199    6.90168751    2.60869285     546
Ni    79.05823099    6.89537004    0.45382184     547
Ni    79.06571399    8.92352948    3.32181216     548
Ni    79.07212663   10.95092083    1.87747050     549
Ni    80.31530001    8.91715059    1.16684126     550
Ni    80.32252956   10.94440520    4.03347215     551
Ni    80.30687933    6.88911653    2.61006653     552