ITEM: TIMESTEP
0
ITEM: NUMBER OF ATOMS
9360
ITEM: BOX BOUNDS pp pp pp
0.0000000000000000e+00 4.2323543945488403e+01
0.0000000000000000e+00 4.5854877274562803e+01
0.0000000000000000e+00 5.2908097529588801e+01
ITEM: ATOMS id type x y z c_kin
1386 1 0.00643742 0.0525882 1.46069 0
1436 1 0.0707623 1.70466 3.20449 0
1437 1 1.84456 1.69022 1.4279 0
1439 1 1.73136 3.49552 3.17199 0
1440 1 3.50943 1.76823 3.33171 0
767 1 5.30904 3.51093 3.24403 0
1393 1 5.30214 1.77766 1.41365 0
1394 1 6.93822 3.49457 1.42688 0
1438 1 3.63357 3.40454 1.39963 0
1396 1 7.12067 1.73075 3.26615 0
1397 1 8.76852 1.75976 1.55468 0
724 1 10.7161 0.0640972 1.50849 0
1400 1 10.6023 1.86021 3.16474 0
1401 1 12.2975 1.72969 1.41769 0
1402 1 13.9791 3.44445 1.43435 0
1403 1 14.0049 1.74402 3.1024 0
1359 1 15.8176 0.0362182 3.26289 0
1405 1 15.8993 1.82052 1.37979 0
1407 1 15.8246 3.34918 3.10309 0
1404 1 19.4724 3.49542 3.14179 0
1408 1 19.3491 1.65637 1.37862 0
1410 1 21.1433 3.45545 1.2949 0
1986 1 21.134 1.69317 3.18728 0
2033 1 17.6608 1.6723 3.22395 0
1413 1 22.8564 1.74204 1.32353 0
1414 1 24.5524 3.49402 1.3796 0
1415 1 22.8416 3.50144 3.11692 0
1416 1 24.5382 1.77556 3.241 0
793 1 26.3897 1.80365 1.44089 0
1371 1 26.373 0.0319879 3.11608 0
1417 1 28.1786 0.0956882 1.42921 0
1420 1 28.09 1.7537 3.21464 0
1375 1 29.9116 0.0881882 3.19429 0
1421 1 29.9195 1.81747 1.41867 0
1423 1 29.9738 3.45988 3.1908 0
1424 1 31.7181 1.71872 3.16468 0
798 1 33.5542 1.80432 1.49701 0
803 1 31.7589 3.48999 1.41066 0
804 1 35.2504 3.52573 1.5002 0
1374 1 31.8182 0.0569052 1.44325 0
1382 1 38.6288 0.0669882 1.50643 0
1428 1 35.3365 1.8936 3.25847 0
1429 1 36.9955 1.84881 1.47581 0
1432 1 38.7242 1.81387 3.28196 0
1387 1 40.4196 0.00368793 3.2608 0
1433 1 40.5179 1.77959 1.44845 0
1434 1 42.2397 3.49203 1.4597 0
1484 1 0.0115185 5.26279 3.20355 0
1485 1 1.74613 5.28712 1.49627 0
1441 1 5.21982 5.19207 1.46269 0
1443 1 5.23421 7.04073 3.09802 0
1444 1 7.00637 5.32722 3.23047 0
1488 1 3.55763 5.2911 3.16377 0
1398 1 10.5358 3.60912 1.45424 0
1399 1 8.80921 3.62741 3.11509 0
1445 1 8.79402 5.28419 1.43285 0
1448 1 10.4413 5.23677 3.25295 0
1449 1 12.3195 5.24657 1.41791 0
1451 1 12.307 7.05052 3.17853 0
2022 1 12.2705 3.53545 3.13354 0
1450 1 14.1964 7.00919 1.54107 0
1452 1 14.1237 5.21456 3.15636 0
1453 1 15.9277 5.19836 1.47686 0
1455 1 15.9273 6.98789 3.25538 0
787 1 19.4955 5.26672 1.44549 0
1411 1 17.7469 3.57823 1.45064 0
1454 1 17.8031 6.96051 1.31569 0
1456 1 17.688 5.32989 3.17543 0
1458 1 21.124 7.01816 1.36231 0
1459 1 19.3966 6.97255 3.23451 0
1460 1 21.0891 5.34605 3.17629 0
1461 1 22.8037 5.27329 1.39274 0
1464 1 24.6752 5.27021 3.02554 0
167 1 26.4089 3.61416 3.24319 0
1422 1 28.0831 3.60957 1.50996 0
1465 1 26.3954 5.27593 1.30159 0
1466 1 28.1551 7.00253 1.44461 0
1467 1 26.3453 6.95428 3.09649 0
1468 1 28.2233 5.35712 3.24444 0
1469 1 29.8652 5.35586 1.36124 0
1470 1 31.6954 7.04701 1.39725 0
1472 1 31.633 5.34928 3.15622 0
1427 1 33.4619 3.59843 3.28937 0
1473 1 33.4555 5.24909 1.52763 0
1476 1 35.243 5.32356 3.27558 0
1431 1 37.0084 3.54203 3.22987 0
1474 1 37.0956 5.27044 1.44649 0
1480 1 38.7827 5.2888 3.24894 0
807 1 38.8359 3.57427 1.3876 0
1430 1 40.4709 5.13085 1.53373 0
1435 1 40.5327 3.52807 3.4291 0
1477 1 38.86 7.04209 1.37179 0
1482 1 42.2599 6.9867 1.38504 0
2153 1 40.5026 7.0031 3.25074 0
1486 1 3.52335 7.0622 1.39031 0
1487 1 1.75355 7.19936 3.22314 0
1533 1 1.67955 8.81598 1.42154 0
1489 1 5.2392 8.68723 1.34766 0
1492 1 6.993 8.7959 3.13822 0
1536 1 3.63074 8.85212 3.21709 0
1442 1 7.10329 7.10697 1.38903 0
1447 1 8.88901 7.13354 3.18854 0
1493 1 8.76762 8.82517 1.46009 0
1495 1 8.79342 10.5087 3.0789 0
1446 1 10.6794 7.13012 1.29963 0
1494 1 10.6252 10.5282 1.34369 0
1496 1 10.6552 8.78814 3.08113 0
1497 1 12.4774 8.76993 1.36155 0
1500 1 14.1881 8.80385 3.19889 0
1501 1 15.9274 8.80348 1.39331 0
1503 1 15.9823 10.537 3.1576 0
1502 1 17.7048 10.4564 1.50638 0
1504 1 17.7333 8.64938 3.05071 0
1505 1 19.5253 8.74434 1.31709 0
1506 1 21.0911 10.5306 1.25261 0
1507 1 19.4709 10.4941 3.17373 0
1462 1 24.6064 7.0753 1.35531 0
1463 1 22.9334 7.08769 3.09144 0
1508 1 21.1917 8.68881 3.15641 0
1509 1 22.8396 8.82268 1.39658 0
1510 1 24.6279 10.5389 1.42146 0
1511 1 22.8427 10.498 3.14878 0
888 1 26.504 8.82674 1.50448 0
1512 1 24.7004 8.7614 3.13478 0
1515 1 26.4951 10.5542 3.15388 0
1471 1 29.9887 7.10357 3.16249 0
1513 1 28.2187 8.7407 3.19654 0
1517 1 29.9844 8.94358 1.34912 0
1519 1 29.9705 10.5649 3.16007 0
1520 1 31.6247 8.82901 3.14814 0
900 1 35.1876 7.08216 1.39397 0
1475 1 33.4464 7.16081 3.07446 0
1521 1 33.5159 8.89413 1.45744 0
1479 1 36.9672 7.14228 3.15843 0
1524 1 35.34 8.94432 3.16157 0
1525 1 37.0364 8.8985 1.47847 0
1528 1 38.79 8.7938 3.03839 0
852 1 42.2424 8.73139 3.22343 0
1478 1 40.5608 8.78058 1.37304 0
1535 1 42.2867 10.5481 1.38778 0
1532 1 1.75108 10.6067 3.1522 0
1580 1 0.0413373 12.3893 3.06945 0
1581 1 1.8339 12.3443 1.47458 0
2158 1 3.51878 12.299 3.2205 0
1491 1 5.38407 10.6582 3.02625 0
1534 1 3.54098 10.6007 1.44673 0
1538 1 7.02107 14.0769 1.41529 0
1539 1 5.21984 13.9188 3.19411 0
1540 1 7.01178 12.4592 3.15634 0
1584 1 5.30558 12.3358 1.3658 0
911 1 7.16846 10.6783 1.43174 0
1541 1 8.85217 12.3993 1.48124 0
1542 1 10.5436 14.0244 1.48652 0
1543 1 8.83576 14.0613 3.17552 0
1499 1 12.4059 10.6582 3.10336 0
1544 1 10.5976 12.2612 3.15943 0
1545 1 12.389 12.3939 1.45977 0
1547 1 12.4276 13.9641 3.21063 0
1498 1 14.206 10.6503 1.36208 0
1546 1 14.1422 14.1007 1.30928 0
1548 1 14.2248 12.3249 3.12376 0
1549 1 15.9595 12.3115 1.35412 0
1551 1 15.9424 14.0566 3.22616 0
1552 1 17.6852 12.2902 3.05493 0
1553 1 19.4292 12.287 1.48166 0
1554 1 21.0198 14.0873 1.33324 0
1555 1 19.304 14.074 3.11572 0
1556 1 21.1105 12.3404 3.20175 0
1557 1 22.9063 12.2453 1.33958 0
1558 1 24.6038 14.0912 1.40937 0
1559 1 22.8383 14.0919 3.07258 0
1560 1 24.6491 12.2274 3.12628 0
1514 1 28.152 10.6169 1.41382 0
1561 1 26.3186 12.3948 1.35731 0
1563 1 26.3628 14.0533 3.167 0
1564 1 28.2761 12.3436 3.2698 0
1565 1 30.0749 12.3084 1.50964 0
1518 1 31.7853 10.643 1.43447 0
1523 1 33.4323 10.691 3.11536 0
1568 1 31.7767 12.4562 3.17858 0
1569 1 33.5358 12.5029 1.42927 0
1572 1 35.2495 12.3617 3.23364 0
1522 1 35.3178 10.6565 1.43415 0
1526 1 38.7615 10.5881 1.47892 0
1527 1 37.0545 10.626 3.1964 0
1570 1 35.3144 14.0595 1.49958 0
1573 1 37.0102 12.2589 1.48363 0
1575 1 37.0005 14.0317 3.3187 0
1530 1 40.6291 10.5862 3.21035 0
1574 1 38.8683 14.0369 1.40706 0
1576 1 38.8314 12.3384 3.24289 0
1577 1 40.6399 12.4406 1.40617 0
1579 1 40.4929 14.0564 3.17355 0
1578 1 0.159237 14.1158 1.45809 0
1582 1 3.41282 14.1265 1.49097 0
1583 1 1.81605 14.1097 3.2478 0
1629 1 1.72221 15.9279 1.48149 0
1630 1 3.50516 17.5886 1.40722 0
1632 1 3.44237 15.8659 3.24775 0
1585 1 5.31017 15.8959 1.4203 0
1586 1 7.13204 17.5577 1.49921 0
1588 1 7.10238 15.8742 3.15478 0
1589 1 8.7999 15.8334 1.42937 0
1590 1 10.5306 17.5886 1.45272 0
1592 1 10.6008 15.9391 3.2599 0
1593 1 12.3651 15.8762 1.49162 0
1594 1 14.2329 17.6014 1.31839 0
1597 1 15.8933 15.8267 1.4446 0
1599 1 15.781 17.6325 3.27264 0
1600 1 17.5641 15.8701 3.19694 0
2170 1 14.1411 15.899 3.02875 0
1550 1 17.6524 14.1109 1.38703 0
1601 1 19.394 15.9306 1.46545 0
1602 1 21.1491 17.6351 1.32728 0
1603 1 19.3976 17.5993 3.18198 0
1604 1 21.1189 15.8472 3.1854 0
1605 1 22.8299 15.8516 1.40549 0
1607 1 22.9864 17.6202 3.21544 0
1608 1 24.66 15.8696 3.04615 0
1562 1 28.1554 14.1385 1.39677 0
1609 1 26.4905 15.8394 1.46526 0
1611 1 28.0701 15.88 3.25441 0
1567 1 30.0431 14.1618 3.19505 0
1613 1 29.9362 15.8855 1.4256 0
1615 1 29.9374 17.5913 3.15631 0
1566 1 31.752 14.1408 1.30262 0
1571 1 33.4832 14.116 3.1525 0
1614 1 31.8381 17.5066 1.56388 0
1616 1 31.7532 15.7804 3.19808 0
1617 1 33.6574 15.8541 1.32474 0
1619 1 33.4982 17.5882 3.20563 0
1620 1 35.1839 15.8037 3.24222 0
1044 1 35.3022 17.6162 1.52111 0
1621 1 37.1156 15.8735 1.52964 0
1624 1 38.7231 15.8371 3.29102 0
946 1 38.9044 17.6185 1.54962 0
1625 1 40.5938 15.8434 1.45233 0
1627 1 40.5454 17.5729 3.31389 0
1628 1 42.2781 15.8612 3.13524 0
1626 1 0.0214907 17.6999 1.43867 0
1631 1 1.73417 17.6862 3.19987 0
1677 1 1.76865 19.3227 1.43922 0
1679 1 1.65673 21.0941 3.20315 0
1587 1 5.37256 17.6366 3.25415 0
1633 1 5.24236 19.358 1.55363 0
1634 1 7.04575 21.1051 1.60189 0
1680 1 3.54965 19.4272 3.21934 0
1591 1 8.82115 17.6856 3.28259 0
1636 1 7.09109 19.2856 3.35764 0
1637 1 8.77637 19.3146 1.50038 0
1638 1 10.5302 21.0356 1.46507 0
1639 1 8.93221 20.9998 3.28763 0
1640 1 10.5249 19.3184 3.35655 0
1596 1 12.4428 17.6879 3.18798 0
1641 1 12.4122 19.3551 1.49455 0
1643 1 12.2825 21.0645 3.28874 0
975 1 17.5826 17.7303 1.40874 0
1644 1 14.1278 19.357 3.21215 0
1645 1 15.8808 19.4714 1.46527 0
1647 1 15.8023 21.1093 3.22945 0
1648 1 17.6501 19.5273 3.16454 0
1649 1 19.3661 19.4704 1.3709 0
1651 1 19.4184 21.1448 3.07631 0
1652 1 21.118 19.3857 3.16434 0
1606 1 24.6767 17.7444 1.49735 0
1650 1 24.6505 19.4934 3.19034 0
1653 1 22.8674 19.4625 1.39504 0
1655 1 22.9063 20.9875 3.29108 0
1610 1 28.1267 17.7335 1.52152 0
1612 1 26.3463 17.7091 3.10227 0
1657 1 26.3228 19.5166 1.36988 0
1658 1 28.1944 21.0979 1.51799 0
1660 1 28.1671 19.4266 3.27927 0
1661 1 30.01 19.39 1.56027 0
1618 1 33.5587 19.507 1.40571 0
1664 1 31.8016 19.3391 3.20573 0
1667 1 33.4088 21.1314 3.20411 0
1623 1 37.0274 17.6762 3.12653 0
1668 1 35.3046 19.3951 3.19217 0
1669 1 36.9572 19.4658 1.36695 0
1670 1 38.7933 21.0773 1.4987 0
1671 1 37.0711 21.0681 3.24791 0
1672 1 38.8062 19.4094 3.20046 0
1673 1 40.5405 19.4082 1.47347 0
1674 1 42.2801 21.1413 1.38781 0
1676 1 42.2915 19.4014 3.28094 0
1725 1 1.73822 22.9364 1.57608 0
1635 1 5.27542 21.1694 3.28237 0
1678 1 3.56132 21.167 1.53887 0
1681 1 5.26502 23.0101 1.48581 0
1683 1 5.2421 24.6762 3.25865 0
1728 1 3.55554 22.9525 3.25029 0
1684 1 7.07421 22.9141 3.18241 0
1685 1 8.88877 22.8664 1.53017 0
1642 1 13.9763 21.2953 1.52539 0
1688 1 10.608 22.8792 3.18765 0
1689 1 12.27 22.9121 1.4823 0
1690 1 14.0977 24.5437 1.48404 0
1692 1 13.966 23.0983 3.26362 0
1072 1 15.8494 22.8547 1.46166 0
1695 1 15.9312 24.6349 3.25495 0
1696 1 17.5722 22.7574 3.16972 0
1027 1 20.9714 23.0004 3.20466 0
1076 1 20.1771 22.2617 0.659041 0
1693 1 17.6758 21.1758 1.32854 0
1697 1 17.6684 24.6407 1.45531 0
1698 1 20.941 24.6516 1.44365 0
1699 1 19.2621 24.5406 3.1814 0
1654 1 24.6645 21.3138 1.56339 0
1701 1 22.6891 22.7963 1.49102 0
1702 1 24.6105 24.5694 1.41882 0
1703 1 22.8564 24.5733 3.20725 0
1704 1 24.5323 22.8944 3.29437 0
1659 1 26.425 21.1834 3.17022 0
1705 1 26.4521 22.9457 1.33621 0
1706 1 28.1444 24.619 1.47476 0
1707 1 26.2971 24.5907 3.15727 0
1708 1 28.174 22.9958 3.24431 0
1663 1 30.0565 21.2073 3.20564 0
1709 1 29.9283 22.9541 1.47845 0
1711 1 30.0187 24.6144 3.15457 0
1662 1 31.7684 21.2572 1.45311 0
1665 1 35.2283 21.2068 1.42645 0
1710 1 31.95 24.5228 1.38943 0
1712 1 31.7519 22.8388 3.24327 0
1713 1 33.5794 23.0145 1.46329 0
1715 1 33.62 24.5703 3.28435 0
1666 1 37.0177 22.8456 1.43598 0
1714 1 35.3201 24.6642 1.34199 0
1716 1 35.331 22.8812 3.21302 0
1719 1 36.9396 24.6771 3.20272 0
1720 1 38.6806 23.0081 3.16454 0
1675 1 40.4697 21.1687 3.19383 0
1721 1 40.5481 22.9355 1.46066 0
1722 1 42.2645 24.6415 1.51144 0
1724 1 42.2643 22.9341 3.24838 0
1152 1 1.84672 26.5505 1.47181 0
1726 1 3.50291 24.721 1.49761 0
1727 1 1.74167 24.8072 3.23593 0
1775 1 1.67363 28.204 3.15421 0
1776 1 3.51113 26.4659 3.33577 0
1729 1 5.21609 26.4555 1.56342 0
1732 1 7.01058 26.5275 3.30266 0
1773 1 3.5682 28.1323 1.61068 0
2353 1 5.33995 28.1328 3.34289 0
1682 1 7.06688 24.8028 1.56613 0
1687 1 8.8515 24.7906 3.26692 0
1733 1 8.83239 26.5187 1.50122 0
1686 1 10.6372 24.8105 1.51275 0
1736 1 10.7063 26.5285 3.29943 0
1737 1 12.4231 26.4081 1.47959 0
1738 1 14.1761 28.0887 1.45596 0
1740 1 14.1669 26.4932 3.28362 0
1741 1 15.9851 26.4343 1.37598 0
1068 1 19.4808 28.1224 3.24608 0
1694 1 17.6477 26.4745 3.23197 0
1746 1 20.8355 27.9435 1.29457 0
1748 1 20.9875 26.2385 3.14306 0
1749 1 22.6476 26.346 1.35339 0
1750 1 24.2228 27.8957 1.18863 0
1751 1 22.409 27.9602 3.27188 0
1752 1 24.5246 26.4476 3.17353 0
1753 1 26.2481 26.1846 1.21165 0
1756 1 27.9594 26.3937 3.17648 0
1759 1 26.24 28.0918 2.14885 0
1136 1 30.1034 26.2479 1.36255 0
1754 1 28.5303 27.8914 1.13159 0
1758 1 30.1981 27.7604 3.11945 0
1139 1 31.8077 28.1581 1.40802 0
1760 1 31.9178 26.2633 3.2223 0
1761 1 33.643 26.4212 1.4869 0
1763 1 33.5844 28.1039 3.17631 0
1764 1 35.2618 26.4754 3.24133 0
1143 1 38.6388 28.1892 1.42302 0
1765 1 36.9646 26.4984 1.59626 0
1768 1 38.7561 26.4977 3.25611 0
1717 1 38.7991 24.7727 1.39501 0
1718 1 40.5343 26.5269 1.38608 0
1723 1 40.4696 24.7488 3.13562 0
1766 1 42.2412 26.5431 3.11138 0
1770 1 42.3049 28.2176 1.49099 0
1818 1 0.0118374 31.6404 1.56728 0
1821 1 1.77346 29.9848 1.46632 0
1822 1 3.48899 31.7075 1.41348 0
1824 1 3.51218 29.995 3.16573 0
1730 1 7.03301 28.286 1.63505 0
1777 1 5.25828 29.9646 1.59125 0
1778 1 7.01003 31.7142 1.46089 0
1780 1 7.03135 30.0306 3.27273 0
1735 1 8.80511 28.337 3.3142 0
1781 1 8.71558 29.993 1.58111 0
1782 1 10.5199 31.6845 1.45739 0
1783 1 8.73803 31.7261 3.26931 0
1734 1 10.6093 28.2279 1.48942 0
1739 1 12.4359 28.2439 3.21468 0
1784 1 10.6151 30.0337 3.20235 0
1785 1 12.3484 30.0058 1.4515 0
1743 1 15.8979 28.2624 3.14302 0
1788 1 14.2156 30.0742 3.20967 0
1789 1 16.0012 29.9651 1.47694 0
1791 1 15.9501 31.7383 3.18881 0
1742 1 17.795 28.2814 1.51547 0
1790 1 17.7064 31.6883 1.52997 0
1792 1 17.7263 29.9499 3.25488 0
1793 1 19.4498 29.9588 1.41502 0
1795 1 19.5474 31.6801 3.27525 0
1755 1 24.1172 29.3131 3.22208 0
1796 1 21.184 29.9728 3.21292 0
1797 1 22.5083 29.6179 1.18255 0
1799 1 22.8665 31.5918 2.13262 0
1800 1 24.8394 31.5335 3.22569 0
1801 1 24.9169 30.2307 1.18643 0
1808 1 26.4555 30.0549 3.20403 0
2382 1 27.3213 29.8931 1.13216 0
1757 1 28.3046 28.8037 3.08094 0
1805 1 30.0317 29.9149 1.41015 0
2426 1 28.4013 31.3141 3.05103 0
1181 1 32.028 29.7942 2.99681 0
1806 1 33.587 30.0085 1.33366 0
1810 1 35.19 30.0515 3.24033 0
1762 1 35.2904 28.3493 1.41671 0
1767 1 36.9201 28.2894 3.31691 0
1813 1 36.9961 30.0609 1.36424 0
1815 1 37.0233 31.7319 3.13189 0
1816 1 38.793 29.9578 3.18146 0
1147 1 40.5952 29.8803 1.45434 0
1814 1 38.8116 31.7387 1.28629 0
1817 1 40.5199 31.6947 3.28121 0
1820 1 42.255 29.9644 3.23866 0
1823 1 1.71298 31.7757 3.30665 0
1866 1 0.0341374 35.2031 1.56198 0
1869 1 1.68765 33.3611 1.36243 0
1871 1 1.71249 35.2246 3.19365 0
1872 1 3.42199 33.497 3.17799 0
1779 1 5.18236 31.7661 3.15798 0
1825 1 5.31889 33.4944 1.43746 0
1826 1 6.97572 35.1605 1.48852 0
1827 1 5.22631 35.1976 3.14418 0
1828 1 6.97747 33.4469 3.30043 0
1829 1 8.73236 33.4247 1.4555 0
1830 1 10.4724 35.2237 1.51603 0
1831 1 8.73813 35.2491 3.24699 0
1832 1 10.5181 33.497 3.20023 0
1787 1 12.2754 31.7766 3.28708 0
1833 1 12.2897 33.3565 1.52317 0
1834 1 14.0726 35.1768 1.45469 0
1835 1 12.3711 35.1465 3.19036 0
1786 1 14.1494 31.7754 1.45048 0
1836 1 14.1576 33.5656 3.33994 0
1837 1 15.9074 33.4493 1.45454 0
1839 1 15.855 35.248 3.15533 0
1214 1 19.3608 35.2571 3.16777 0
1794 1 20.9952 31.7476 1.26445 0
1840 1 17.6425 33.5071 3.15507 0
1841 1 19.4158 33.5022 1.37153 0
1798 1 24.5807 32.7928 1.24084 0
1843 1 21.2638 33.4008 3.21037 0
1845 1 22.6113 33.7441 1.16365 0
1846 1 24.5464 35.2626 1.57687 0
1848 1 23.6555 33.6156 3.2184 0
1803 1 25.9096 33.7992 3.38405 0
1804 1 26.5861 31.9533 1.96455 0
1849 1 26.4744 34.1059 1.01703 0
1183 1 28.4548 31.8136 0.664474 0
1807 1 30.424 32.068 2.90824 0
1852 1 28.4266 33.4319 2.17383 0
1853 1 30.3433 33.6842 0.959026 0
1855 1 29.9485 35.207 3.12955 0
1184 1 31.9296 31.7588 1.09489 0
1236 1 35.1078 31.8131 1.2989 0
1811 1 33.3725 31.8122 3.10973 0
1856 1 31.848 33.764 2.95096 0
1857 1 33.6203 33.5469 1.3365 0
1860 1 35.1209 33.4345 3.21147 0
1861 1 36.9984 33.4589 1.41865 0
1863 1 36.9589 35.2509 3.18988 0
1864 1 38.7708 33.4211 3.14059 0
1819 1 40.4782 35.2428 3.06524 0
1865 1 40.5763 33.4157 1.42378 0
1868 1 42.2318 33.4969 3.28065 0
1293 1 1.75211 36.9731 1.36688 0
1296 1 3.38955 37.0193 3.13844 0
1870 1 3.52329 35.2924 1.3803 0
1249 1 5.25295 37.1284 1.52965 0
1250 1 7.00885 38.7088 1.40296 0
1251 1 5.17629 38.7073 3.21663 0
1252 1 6.89345 36.9574 3.26674 0
1253 1 8.67974 37.005 1.49937 0
1255 1 8.66861 38.7201 3.19826 0
1256 1 10.5943 37.0142 3.11927 0
1257 1 12.3209 37.0153 1.52694 0
1259 1 12.3436 38.7118 3.14426 0
640 1 17.5558 35.3114 1.46437 0
1260 1 14.1202 37.0101 3.22485 0
1261 1 15.7126 36.9893 1.5549 0
1263 1 15.7892 38.7978 3.29662 0
1264 1 17.5741 37.019 3.36247 0
1312 1 17.6082 38.7351 1.54221 0
1265 1 19.3426 37.1104 1.51022 0
1268 1 20.9988 37.1663 3.19499 0
1842 1 21.0289 35.4299 1.45434 0
1269 1 22.9825 37.2494 1.42608 0
1271 1 22.9441 38.6954 3.15977 0
1847 1 22.7024 35.577 3.29499 0
1272 1 24.7736 37.0249 3.11611 0
1273 1 26.5632 37.0654 1.29628 0
1275 1 26.6221 38.7968 3.10251 0
1851 1 26.9792 35.5094 3.14852 0
1276 1 28.4261 37.1756 3.26222 0
1277 1 30.0317 37.1798 1.30964 0
1850 1 28.4661 35.568 1.12928 0
1280 1 31.8395 37.0946 3.09757 0
1281 1 33.6182 37.1307 1.40729 0
1284 1 35.2113 37.1357 2.97854 0
1854 1 31.8558 35.4204 1.29672 0
1859 1 33.5853 35.3646 3.1546 0
1285 1 37.0447 37.1138 1.33145 0
1288 1 38.7143 37.0746 3.19311 0
1858 1 35.4117 35.3266 1.28824 0
1862 1 38.7547 35.2903 1.51476 0
664 1 38.8256 38.761 1.35986 0
1290 1 42.1232 38.7176 1.44418 0
1292 1 42.2477 37.0521 3.20969 0
1867 1 40.5136 36.9873 1.40455 0
668 1 1.6648 38.8193 3.18962 0
1294 1 3.35461 38.8813 1.43225 0
1341 1 1.60853 40.5548 1.45184 0
1344 1 3.32743 40.5496 3.27589 0
1297 1 5.1735 40.6295 1.50123 0
1300 1 7.05327 42.1845 1.49106 0
1922 1 6.9606 40.5637 3.24874 0
1254 1 10.5711 38.8331 1.36677 0
1301 1 8.82565 40.4422 1.50051 0
1303 1 8.9293 42.1806 3.15148 0
1258 1 14.0374 38.8238 1.40496 0
1304 1 10.628 40.4881 3.08341 0
1305 1 12.3873 40.5982 1.47315 0
1307 1 12.3318 42.3142 3.31438 0
1308 1 14.1489 40.5918 3.1604 0
1309 1 15.8118 40.5129 1.5081 0
1310 1 17.5069 42.3032 1.5139 0
1311 1 17.5859 40.6096 3.28121 0
1357 1 15.8232 42.3037 3.351 0
688 1 19.2138 42.2363 3.16344 0
1262 1 21.1293 40.6287 3.14612 0
1266 1 21.1241 38.9129 1.4304 0
1267 1 19.3334 38.8805 3.2574 0
1886 1 19.3406 40.5802 1.43718 0
1319 1 23.0002 42.3021 3.16947 0
1320 1 22.9194 40.503 1.54098 0
1270 1 24.7747 38.8815 1.39493 0
1317 1 26.5008 40.5496 1.42243 0
1318 1 24.7147 42.3004 1.40826 0
1321 1 28.203 40.5528 3.26421 0
1322 1 28.169 42.3083 1.35794 0
1945 1 24.8388 40.5565 3.27838 0
1274 1 28.2728 38.8225 1.34129 0
1279 1 30.028 38.9567 3.19413 0
1325 1 29.8175 40.5469 1.3696 0
1328 1 31.6699 40.6465 3.15629 0
1278 1 31.7964 38.9004 1.33785 0
1283 1 33.4548 38.9761 3.18132 0
1329 1 33.4673 40.6332 1.34967 0
1330 1 35.2504 42.31 1.41528 0
1282 1 35.3841 38.8829 1.32249 0
1286 1 38.7576 40.7067 3.25927 0
1287 1 36.9549 38.9281 3.20213 0
1332 1 35.2765 40.767 3.18811 0
1333 1 37.1074 40.5858 1.39917 0
1335 1 37.0577 42.2702 3.16019 0
1291 1 40.4858 38.8382 3.09263 0
1337 1 40.5181 40.547 1.33 0
1340 1 42.2312 40.6342 3.24424 0
762 1 3.50284 42.3386 1.3598 0
1343 1 1.776 42.4038 3.1453 0
1389 1 1.71221 44.2646 1.47652 0
1390 1 3.50695 45.8412 1.49422 0
1391 1 1.76363 45.8349 3.30667 0
1392 1 3.48276 44.081 3.10321 0
721 1 5.27941 44.0375 1.35687 0
1299 1 5.13623 42.3788 3.13781 0
1347 1 5.32837 45.8044 3.22055 0
144 1 8.8498 44.0069 1.51133 0
1298 1 10.5703 44.0939 3.28864 0
1346 1 7.09167 45.7999 1.41525 0
1348 1 7.05835 44.0043 3.14199 0
1351 1 8.85204 45.783 3.08357 0
1302 1 10.5965 42.4391 1.42145 0
1306 1 14.0664 42.4611 1.44243 0
1350 1 14.1065 45.8101 1.47186 0
1353 1 12.3707 44.0988 1.47786 0
1355 1 12.3994 45.7903 3.20168 0
2025 1 14.0886 43.922 3.26387 0
1358 1 15.8262 44.128 1.43906 0
1412 1 17.5966 45.8232 1.41371 0
743 1 21.0859 45.8382 1.43034 0
1313 1 21.0865 42.3619 1.36409 0
1315 1 19.3663 44.0544 1.45529 0
1360 1 17.6875 44.0953 3.14781 0
1363 1 19.4688 45.785 3.22827 0
1364 1 21.0639 43.9854 3.18392 0
1365 1 22.9182 44.0449 1.43617 0
1366 1 24.5772 45.7797 1.38556 0
1367 1 22.9458 45.7761 3.23236 0
745 1 26.3897 44.095 1.27776 0
1323 1 26.4975 42.3323 3.20698 0
1368 1 24.8007 44.0137 3.28661 0
1370 1 28.0876 44.1217 3.1864 0
1326 1 31.7316 42.3313 1.33432 0
1327 1 29.9218 42.5258 3.22858 0
1373 1 29.964 44.1638 1.38478 0
1331 1 33.4273 42.4738 3.21905 0
1376 1 31.75 44.2158 3.17791 0
1377 1 33.3919 44.1244 1.49991 0
1379 1 33.5695 45.7932 3.30852 0
1380 1 35.2422 43.9128 3.24176 0
1378 1 37.0026 44.1193 1.43483 0
1383 1 37.0045 45.7858 3.27369 0
1384 1 38.7406 44.0753 3.31573 0
1425 1 35.275 45.7385 1.46074 0
1334 1 40.4629 44.1617 1.46373 0
1338 1 42.1528 42.3301 1.41862 0
1339 1 40.541 42.3375 3.23089 0
1381 1 38.8163 42.3566 1.4423 0
1388 1 42.2934 44.0526 3.14306 0
2061 1 1.68759 1.74788 5.02294 0
2063 1 1.85882 3.48849 6.69668 0
2064 1 3.44806 1.70229 6.70091 0
1971 1 5.15195 0.0147345 6.73998 0
2017 1 5.18124 1.60621 4.91334 0
2019 1 5.14007 3.45191 6.6388 0
2020 1 7.00793 1.77495 6.63281 0
1975 1 8.75441 0.0303417 6.75083 0
2021 1 8.84623 1.79888 4.92367 0
2024 1 10.5804 1.68781 6.6781 0
1974 1 12.3569 1.83644 4.95849 0
1979 1 12.4341 0.00438533 6.65423 0
2027 1 12.317 3.47783 6.63499 0
2028 1 14.0236 1.76944 6.69399 0
2026 1 14.1614 3.48681 4.95259 0
2029 1 15.8096 0.00760773 6.77401 0
2031 1 15.9636 3.38382 6.7656 0
2032 1 15.8193 1.72447 5.03138 0
1978 1 17.6451 3.44429 4.83843 0
1987 1 19.3509 1.72433 4.99647 0
2034 1 21.1118 3.47164 5.02775 0
2035 1 19.509 3.50441 6.77592 0
2606 1 17.7575 1.71717 6.65295 0
2036 1 21.1661 1.72999 6.81686 0
2037 1 22.9082 1.66719 5.03268 0
2039 1 22.8255 3.49032 6.77521 0
2040 1 24.5742 1.66653 6.65433 0
1419 1 28.2134 3.47031 4.92736 0
1994 1 28.1862 0.0132879 4.82107 0
2041 1 26.3722 1.75934 5.00783 0
1998 1 31.6466 0.0446882 4.89722 0
2044 1 28.2468 1.72954 6.76783 0
2045 1 29.8695 1.71704 4.93433 0
2047 1 30.0311 3.46503 6.64582 0
2003 1 33.4451 0.0274879 6.74967 0
2048 1 31.7742 1.78534 6.72462 0
2049 1 33.4768 1.7274 4.9932 0
2051 1 33.4018 3.51226 6.69527 0
2002 1 35.2874 0.0885882 5.06033 0
2052 1 35.3531 1.86337 6.80561 0
2053 1 37.0587 1.85258 5.0866 0
2056 1 38.7466 1.70218 6.77312 0
2010 1 42.2699 0.0478192 4.97807 0
2011 1 40.5524 0.0919732 6.70416 0
2054 1 38.799 3.47464 5.05251 0
2057 1 40.5518 1.70447 4.86494 0
2059 1 40.5192 3.4216 6.62062 0
2060 1 42.2717 1.76614 6.73295 0
2062 1 3.49979 3.5986 4.89673 0
2109 1 1.75356 5.2855 4.97935 0
2111 1 1.84733 7.03768 6.74276 0
2065 1 5.31399 5.32806 4.96261 0
2066 1 6.97928 6.95889 4.88462 0
2068 1 6.98399 5.35066 6.74196 0
2112 1 3.67889 5.28016 6.75829 0
1395 1 7.06731 3.60021 4.90067 0
2018 1 8.74497 3.65454 6.62115 0
2023 1 10.5075 3.54225 5.05266 0
2069 1 8.70935 5.46879 4.93743 0
2072 1 10.5797 5.32508 6.64822 0
2073 1 12.331 5.21422 4.92611 0
2076 1 14.2316 5.31115 6.63339 0
2077 1 15.8243 5.26334 4.98861 0
2079 1 15.931 7.02296 6.75077 0
2030 1 17.6776 5.11331 6.71336 0
2078 1 17.661 7.03841 5.10854 0
2081 1 19.4247 5.2589 5.00423 0
2083 1 19.4455 6.98576 6.75212 0
2084 1 21.1479 5.24212 6.65701 0
2038 1 24.5893 3.55953 4.91828 0
2082 1 21.1739 7.01994 5.00989 0
2085 1 22.9184 5.31612 4.85947 0
2086 1 24.6526 6.99787 4.79552 0
2088 1 24.5784 5.30641 6.74569 0
2042 1 26.3182 5.16626 4.94207 0
2089 1 26.3589 7.02538 6.68491 0
2713 1 26.3395 3.5275 6.70025 0
1418 1 31.6705 7.02991 4.92279 0
2046 1 31.7138 3.59885 4.93906 0
2092 1 28.2219 5.19318 6.67861 0
2093 1 29.8687 5.3315 4.99086 0
2095 1 29.9596 7.0534 6.73773 0
2096 1 31.7012 5.28105 6.75366 0
2097 1 33.3945 5.27108 4.94813 0
2100 1 35.241 5.39737 6.75826 0
2144 1 33.4513 7.03761 6.70534 0
1483 1 38.7282 6.99825 5.04097 0
2050 1 35.2908 3.62942 5.06903 0
2055 1 37.0157 3.57601 6.77842 0
2101 1 38.7698 5.2588 6.7797 0
2102 1 37.004 5.23263 5.03312 0
2058 1 42.2893 3.59524 4.99304 0
2104 1 40.4514 6.89164 6.8791 0
2105 1 40.4566 5.25735 5.0446 0
2106 1 42.2589 6.94779 5.0618 0
2108 1 42.2258 5.25035 6.83544 0
2110 1 3.48468 7.1396 4.9126 0
2115 1 3.45999 10.4736 4.92078 0
2157 1 1.63522 8.68561 4.98078 0
2159 1 1.70981 10.5781 6.78325 0
2067 1 5.33165 7.12622 6.65696 0
2113 1 5.3372 8.83524 4.93429 0
2116 1 7.0423 8.79233 6.71016 0
2160 1 3.53494 8.74943 6.58176 0
2071 1 8.70803 7.08289 6.75776 0
2114 1 7.08732 10.5524 4.92617 0
2117 1 8.82054 8.68789 4.87342 0
2118 1 10.5672 10.5354 4.92061 0
2120 1 10.5755 8.80239 6.70302 0
2070 1 10.6496 7.06894 4.89751 0
2075 1 12.4248 7.08317 6.57426 0
2121 1 12.3702 8.91593 4.898 0
2123 1 12.2696 10.5258 6.64895 0
2074 1 14.149 7.1001 4.96998 0
2124 1 14.1294 8.80534 6.68316 0
2125 1 15.9899 8.78558 4.93176 0
2127 1 15.8555 10.5525 6.76924 0
835 1 19.4958 8.7466 4.97467 0
2126 1 17.7028 10.4746 4.94511 0
2128 1 17.661 8.74856 6.77786 0
2130 1 21.0746 10.5403 4.91781 0
2131 1 19.4382 10.4352 6.76661 0
2132 1 21.1309 8.74164 6.7848 0
2087 1 23.0175 7.17811 6.69451 0
2133 1 22.9769 8.85328 5.01009 0
2134 1 24.6547 10.5679 4.95739 0
2136 1 24.6707 8.86674 6.78123 0
2090 1 28.0971 7.06902 5.02944 0
2137 1 26.3522 8.7434 5.10283 0
2138 1 28.2138 10.5497 4.92384 0
2140 1 28.1195 8.74076 6.83027 0
1516 1 29.9519 8.79243 5.01828 0
2141 1 31.6238 8.80825 6.68094 0
2098 1 35.1976 7.14653 4.95098 0
2145 1 33.3276 8.82515 4.89221 0
2147 1 33.4152 10.5482 6.78959 0
2148 1 35.1699 8.82531 6.68954 0
1531 1 38.7332 10.5601 4.91154 0
2103 1 37.0998 7.11029 6.80802 0
2146 1 35.2924 10.5395 4.95999 0
2149 1 37.0742 8.77788 5.02813 0
2150 1 36.9141 10.5106 6.8138 0
2152 1 38.7829 8.78833 6.75765 0
2107 1 40.4446 8.78986 4.96579 0
2154 1 42.31 10.4768 4.94071 0
2155 1 40.4873 10.5716 6.67295 0
2156 1 42.1762 8.75107 6.73801 0
2205 1 1.70874 12.3621 4.87883 0
2206 1 3.48521 14.0743 5.03063 0
2207 1 1.688 14.1018 6.69485 0
2208 1 3.41602 12.3627 6.6098 0
2161 1 5.22855 12.225 4.92773 0
2163 1 5.26547 14.0005 6.6865 0
2785 1 5.25172 10.6223 6.68308 0
2119 1 8.85863 10.6221 6.73172 0
2164 1 7.05561 12.3546 6.80837 0
2165 1 8.78008 12.3089 4.97391 0
2167 1 9.03969 14.0128 6.71824 0
2166 1 10.7226 14.0944 4.93463 0
2168 1 10.6372 12.3173 6.56817 0
2169 1 12.3968 12.273 4.84512 0
2122 1 14.1116 10.6022 4.93465 0
2171 1 14.2385 13.9834 5.0061 0
2172 1 14.1301 12.1448 6.79253 0
2173 1 15.9435 12.2551 4.96043 0
2174 1 17.5958 14.049 4.90866 0
2175 1 15.9095 13.9507 6.77298 0
2176 1 17.6175 12.1523 6.70977 0
2177 1 19.3707 12.3031 4.96636 0
2178 1 21.0956 14.0043 4.92855 0
2179 1 19.3949 13.9581 6.73388 0
2180 1 21.1101 12.3041 6.66622 0
2135 1 22.8212 10.6514 6.6621 0
2181 1 22.948 12.3338 4.83011 0
2182 1 24.6014 14.0905 4.95547 0
2183 1 22.7963 14.0546 6.62027 0
2139 1 26.5058 10.592 6.81878 0
2184 1 24.7303 12.2974 6.69337 0
2185 1 26.4072 12.2509 4.89559 0
2187 1 26.5363 14.0227 6.84123 0
2142 1 31.6889 10.5945 5.0311 0
2143 1 29.887 10.6228 6.76411 0
2186 1 28.2241 14.0839 4.98037 0
2188 1 28.335 12.366 6.72319 0
2189 1 29.9185 12.3449 4.89019 0
2192 1 31.713 12.3871 6.83228 0
2190 1 31.7605 14.0697 5.0227 0
2193 1 33.4567 12.4124 5.09062 0
2194 1 35.1076 14.0805 4.95156 0
2196 1 35.2475 12.4178 6.69365 0
2197 1 36.9679 12.3768 5.01243 0
2199 1 36.9805 14.065 6.70487 0
2200 1 38.6933 12.2317 6.67416 0
2198 1 38.8518 13.9808 4.92876 0
2201 1 40.5171 12.3571 4.93651 0
2202 1 42.2785 14.0516 4.86576 0
2203 1 40.4769 14.0776 6.7779 0
2204 1 42.3198 12.2769 6.65436 0
2253 1 1.6801 15.9111 4.98899 0
2256 1 3.34669 15.8933 6.67508 0
2162 1 7.02803 14.1614 4.88106 0
2209 1 5.15525 17.436 6.84898 0
2211 1 5.28541 15.8239 4.9673 0
2215 1 7.02364 15.8026 6.74129 0
1595 1 10.5645 17.5326 4.97361 0
2210 1 7.0997 17.4984 5.05323 0
2213 1 8.82549 15.8319 5.00185 0
2214 1 8.84926 17.5312 6.78225 0
2217 1 12.4472 15.7738 4.84001 0
2219 1 12.3317 17.5177 6.70228 0
2841 1 12.385 14.1138 6.67424 0
2218 1 14.1608 17.612 4.98145 0
2220 1 14.1558 15.8392 6.65932 0
2221 1 15.8061 15.8207 5.01508 0
2223 1 15.8999 17.6029 6.78326 0
2224 1 17.627 15.678 6.7138 0
2222 1 17.6791 17.5423 4.98654 0
2225 1 19.3628 15.7624 4.94533 0
2227 1 19.3447 17.5075 6.7245 0
2228 1 21.1589 15.7214 6.76433 0
2226 1 21.1712 17.5658 4.84744 0
2229 1 22.8447 15.8462 4.87351 0
2231 1 22.926 17.5023 6.75943 0
2233 1 26.3469 15.8381 4.914 0
2236 1 28.0467 15.9224 6.63404 0
2806 1 24.738 15.8771 6.67691 0
1656 1 29.8583 17.6224 6.58585 0
2191 1 29.8998 14.2253 6.8082 0
2237 1 29.939 15.7948 4.92721 0
2238 1 31.6578 17.5778 4.88423 0
2240 1 31.698 15.8577 6.80258 0
2195 1 33.4568 14.1648 6.68114 0
2239 1 33.5267 17.6197 6.82914 0
2241 1 33.5722 15.9283 4.98501 0
2244 1 35.2009 15.9266 6.67167 0
2242 1 35.3206 17.5912 4.91637 0
2245 1 37.0063 15.8325 5.0069 0
2246 1 38.7877 17.5528 4.94246 0
2247 1 36.9195 17.5893 6.84546 0
2248 1 38.6494 15.7965 6.78433 0
2249 1 40.4919 15.7715 4.98774 0
2250 1 42.3073 17.5843 5.00814 0
2251 1 40.524 17.5759 6.797 0
2252 1 42.2815 15.8103 6.69191 0
2255 1 1.79467 17.7446 6.72836 0
2301 1 1.6787 19.464 4.98408 0
2302 1 3.4924 21.0909 5.00724 0
2303 1 1.75146 21.1312 6.715 0
2304 1 3.50446 19.2992 6.72936 0
2254 1 3.53646 17.7223 4.8781 0
2257 1 5.23955 19.3701 4.99171 0
2258 1 7.03243 21.0863 4.91652 0
2259 1 5.22934 21.1366 6.76393 0
2260 1 7.07099 19.2766 6.66524 0
2261 1 8.80374 19.277 5.04554 0
2263 1 8.7707 21.084 6.65833 0
2262 1 10.668 21.0782 5.05625 0
2264 1 10.638 19.3113 6.82372 0
2265 1 12.3465 19.2521 4.90737 0
2267 1 12.3902 21.0094 6.66002 0
2268 1 14.093 19.2585 6.74218 0
2266 1 14.1171 21.0534 4.91329 0
2269 1 15.89 19.3473 4.98535 0
2271 1 15.9036 21.0053 6.71734 0
2272 1 17.601 19.2199 6.75843 0
2270 1 17.649 21.0099 5.06704 0
2273 1 19.4203 19.3083 4.97554 0
2274 1 21.1192 21.0992 5.01225 0
2275 1 19.4049 20.9663 6.67837 0
2276 1 21.1691 19.2278 6.73233 0
2277 1 22.8728 19.325 5.01915 0
2278 1 24.5836 21.1211 5.15254 0
2279 1 22.782 21.0855 6.83383 0
2280 1 24.5649 19.3417 6.7325 0
2232 1 24.7037 17.7023 4.88428 0
2234 1 28.1515 17.7267 4.86693 0
2281 1 26.3849 19.5271 4.99613 0
2283 1 26.358 21.1321 6.74106 0
2284 1 26.3725 17.7423 6.63727 0
2285 1 28.1756 19.3038 6.81738 0
2282 1 28.2331 21.1442 5.04016 0
2287 1 29.9805 21.0883 6.70798 0
2289 1 29.9432 19.3854 4.91549 0
2243 1 33.5855 19.3142 4.92036 0