ITEM: TIMESTEP
1000
ITEM: NUMBER OF ATOMS
9360
ITEM: BOX BOUNDS pp pp pp
0.0000000000000000e+00 4.2323543945488403e+01
0.0000000000000000e+00 4.5854877274562803e+01
0.0000000000000000e+00 5.2908097529588801e+01
ITEM: ATOMS id type x y z c_kin
1386 1 -0.000933789 0.103608 1.43132 0.0794129
1436 1 42.1936 1.72798 3.18742 0.0070508
1437 1 1.67953 1.91827 1.3162 0.029553
1439 1 1.72006 3.47066 3.16428 0.030879
1440 1 3.50663 1.72143 3.13425 0.00213011
767 1 5.10966 3.5081 3.27327 0.0262197
1393 1 5.34694 1.85295 1.42854 0.0687626
1394 1 7.08076 3.57148 1.54281 0.0226496
1438 1 3.45357 3.50072 1.41113 0.0196861
1396 1 7.01664 1.76102 3.16893 0.0385331
1397 1 8.81315 1.73022 1.44037 0.00876398
724 1 10.5089 45.8327 1.43395 0.00423641
1400 1 10.3991 1.74869 3.24145 0.00855683
1401 1 12.2873 1.70431 1.50685 0.0560791
1402 1 14.0293 3.6119 1.45666 0.0469029
1403 1 13.9821 1.76345 3.19624 0.0107957
1359 1 15.8274 45.9141 3.16727 0.03971
1405 1 15.7594 1.73337 1.39941 0.0356266
1407 1 15.8143 3.49545 3.16581 0.0159918
1404 1 19.3456 3.62846 3.29162 0.0241962
1408 1 19.4179 1.7627 1.45434 0.0294039
1410 1 21.1637 3.64499 1.41953 0.0287959
1986 1 21.1512 1.73986 3.2779 0.066185
2033 1 17.7043 1.8511 3.18882 0.0126777
1413 1 22.8414 1.83958 1.48437 0.0516285
1414 1 24.5951 3.5706 1.43757 0.00433323
1415 1 22.6973 3.61564 3.18614 0.0250422
1416 1 24.5799 1.76978 3.14494 0.0632294
793 1 26.3415 1.77984 1.40584 0.00418641
1371 1 26.4351 -0.0710888 3.11355 0.0681895
1417 1 28.1688 45.886 1.44878 0.00953743
1420 1 28.1738 1.80395 3.06774 0.00444659
1375 1 29.9734 -0.0170484 3.21034 0.149168
1421 1 29.9802 1.83145 1.41158 0.0321139
1423 1 30.1158 3.54273 3.18674 0.00857925
1424 1 31.8826 1.80014 3.19839 0.00971527
798 1 33.542 1.82328 1.39816 0.00672774
803 1 31.7769 3.63316 1.46842 0.0932617
804 1 35.3446 3.61329 1.47897 0.0158672
1374 1 31.7431 -0.0912088 1.54355 0.00356089
1382 1 38.7443 45.7593 1.41092 0.0243539
1428 1 35.3162 1.75974 3.18384 0.0509521
1429 1 36.9978 1.74074 1.502 0.0696952
1432 1 38.7637 1.88637 3.15722 0.0198668
1387 1 40.5456 45.9495 3.13115 0.0608195
1433 1 40.6144 1.68762 1.37722 0.0138444
1434 1 42.1955 3.53146 1.46969 0.019606
1484 1 42.356 5.33659 3.17372 0.0626221
1485 1 1.75444 5.1591 1.43308 0.0503413
1441 1 5.30571 5.21083 1.46176 0.0370354
1443 1 5.17981 7.00209 3.23902 0.011823
1444 1 6.96023 5.33766 3.33787 0.0158536
1488 1 3.45298 5.31897 3.15459 0.0886329
1398 1 10.6405 3.50689 1.45725 0.117326
1399 1 8.78791 3.58304 3.46088 0.0132137
1445 1 8.86501 5.17684 1.45418 0.00882583
1448 1 10.48 5.24992 3.30562 0.00705405
1449 1 12.2893 5.30245 1.52239 0.00492501
1451 1 12.3461 7.04319 3.2447 0.0294482
2022 1 12.2679 3.44333 3.29693 0.044899
1450 1 14.0657 6.96255 1.4464 0.0181689
1452 1 14.0404 5.31691 3.18016 0.0341341
1453 1 15.8991 5.31705 1.4996 0.0071074
1455 1 15.8311 7.04997 3.1899 0.0165513
787 1 19.3861 5.38622 1.4596 0.0432252
1411 1 17.569 3.55824 1.45418 0.00646689
1454 1 17.5758 7.06049 1.44219 0.0114518
1456 1 17.6244 5.29368 3.19205 0.0135488
1458 1 21.1946 7.04583 1.46678 0.00654667
1459 1 19.2981 7.11874 3.27991 0.0250105
1460 1 21.0094 5.45566 3.24294 0.0696695
1461 1 22.887 5.31076 1.46803 0.00928811
1464 1 24.705 5.35188 3.29089 0.0241167
167 1 26.5038 3.55245 3.07078 0.00933127
1422 1 28.1677 3.57966 1.37664 0.0356256
1465 1 26.3899 5.35936 1.41617 0.0312932
1466 1 28.2249 6.93861 1.44976 0.0315995
1467 1 26.384 7.09784 3.11643 0.0834013
1468 1 28.3392 5.29869 3.27813 0.0705383
1469 1 30.0119 5.30537 1.43014 0.0505696
1470 1 31.7462 7.08748 1.48654 0.0135992
1472 1 31.8884 5.29941 3.23811 0.0430645
1427 1 33.5725 3.61965 3.15244 0.0330647
1473 1 33.4744 5.22091 1.36653 0.0561902
1476 1 35.4442 5.368 3.16939 0.0376165
1431 1 37.1205 3.583 3.14819 0.0466872
1474 1 37.1253 5.34177 1.24683 0.0110786
1480 1 38.8405 5.34365 3.18547 0.0219891
807 1 38.8375 3.46578 1.38191 0.06593
1430 1 40.4255 5.20231 1.37581 0.0207464
1435 1 40.5315 3.62998 3.23398 0.0339426
1477 1 38.8763 7.05941 1.43669 0.0229021
1482 1 -0.0164843 6.9782 1.46021 0.00433012
2153 1 40.5126 7.03669 3.23511 0.0681709
1486 1 3.51391 6.95684 1.48913 0.0151692
1487 1 1.69014 7.07232 3.32106 0.0100872
1533 1 1.84475 8.80019 1.52491 0.0399889
1489 1 5.20725 8.71151 1.51188 0.0960491
1492 1 6.96222 8.77284 3.15737 0.00794715
1536 1 3.45695 8.75852 3.24385 0.045685
1442 1 7.04826 7.01526 1.40552 0.0265779
1447 1 8.68906 7.03626 3.24294 0.0460252
1493 1 8.80437 8.7779 1.46368 0.041284
1495 1 8.70791 10.5337 3.33735 0.0534625
1446 1 10.5151 7.04242 1.5393 0.0396875
1494 1 10.4971 10.4381 1.53941 0.0793129
1496 1 10.5102 8.78598 3.29571 0.0221823
1497 1 12.2621 8.75019 1.51124 0.0428861
1500 1 14.0679 8.81633 3.32262 0.0626001
1501 1 15.8162 8.75713 1.32938 0.0278171
1503 1 15.794 10.4481 3.12782 0.00984607
1502 1 17.5863 10.4691 1.37295 0.0269609
1504 1 17.5613 8.7441 3.21723 0.0448018
1505 1 19.333 8.76686 1.4747 0.0118816
1506 1 21.1033 10.5389 1.40388 0.0355346
1507 1 19.3691 10.5509 3.20268 0.0113531
1462 1 24.6206 7.12093 1.52013 0.0927346
1463 1 22.9382 7.01554 3.16646 0.0994854
1508 1 21.1909 8.74646 3.26527 0.0313468
1509 1 22.9048 8.83464 1.34287 0.0305043
1510 1 24.7656 10.6367 1.42746 0.063521
1511 1 22.8498 10.4501 3.25455 0.0514789
888 1 26.5142 8.73041 1.37841 0.0732008
1512 1 24.7788 8.88289 3.13829 0.0262252
1515 1 26.4966 10.6358 3.15238 0.100049
1471 1 29.9728 7.09958 3.37063 0.0176159
1513 1 28.2835 8.9331 3.16177 0.0634122
1517 1 30.0044 8.88271 1.45235 0.0311737
1519 1 29.9912 10.6757 3.23563 0.0851961
1520 1 31.7253 8.7187 3.25865 0.0382981
900 1 35.3436 7.11327 1.41014 0.047479
1475 1 33.6156 6.92948 3.15245 0.0155313
1521 1 33.5274 8.87384 1.35995 0.0799015
1479 1 37.0827 7.02669 3.18888 0.0864014
1524 1 35.1249 8.73171 3.20185 0.00505774
1525 1 37.1118 8.75327 1.4007 0.0570991
1528 1 38.8313 8.71014 3.22921 0.033112
852 1 42.2899 8.69058 3.23335 0.0299697
1478 1 40.5775 8.82425 1.43354 0.0838608
1535 1 42.354 10.5632 1.5807 0.0395688
1532 1 1.7762 10.5815 3.2075 0.0163996
1580 1 42.3343 12.349 3.22146 0.0100448
1581 1 1.8078 12.3497 1.43605 0.0266881
2158 1 3.44908 12.2274 3.17528 0.0879581
1491 1 5.32558 10.6635 3.28716 0.0185857
1534 1 3.56649 10.5751 1.40032 0.0352258
1538 1 7.10299 14.1599 1.46629 0.0129391
1539 1 5.21991 14.1009 3.22663 0.00430685
1540 1 7.11266 12.3655 3.30738 0.052847
1584 1 5.29944 12.3653 1.50335 0.0213275
911 1 7.00907 10.4641 1.49212 0.0371974
1541 1 8.83553 12.3533 1.60156 0.101212
1542 1 10.5922 14.0132 1.44378 0.012817
1543 1 8.91464 14.0837 3.28909 0.0366179
1499 1 12.2336 10.603 3.15373 0.0824925
1544 1 10.5443 12.261 3.3488 0.00740226
1545 1 12.2722 12.3529 1.4896 0.0337921
1547 1 12.3223 14.0371 3.13457 0.0326993
1498 1 14.0548 10.5242 1.47539 0.00381969
1546 1 14.1054 14.1297 1.49528 0.0465174
1548 1 14.0231 12.2498 3.16778 0.0415352
1549 1 15.7908 12.2333 1.53537 0.0252771
1551 1 15.7659 14.1844 3.19911 0.0241127
1552 1 17.6015 12.3555 3.18902 0.0166197
1553 1 19.3808 12.3332 1.56916 0.0132082
1554 1 21.0153 14.0988 1.49378 0.0104585
1555 1 19.3469 14.0243 3.31939 0.0223982
1556 1 21.1956 12.2276 3.25485 0.0582444
1557 1 22.8604 12.2589 1.43974 0.00771743
1558 1 24.6273 14.1179 1.4658 0.00750833
1559 1 22.7524 14.0767 3.18139 0.0325084
1560 1 24.5774 12.2825 3.12735 0.0269677
1514 1 28.2848 10.6312 1.46625 0.0352548
1561 1 26.5445 12.3777 1.44061 0.0120243
1563 1 26.4615 14.0258 3.12472 0.0334759
1564 1 28.2502 12.3582 3.22374 0.0429911
1565 1 29.9875 12.4053 1.36267 0.0768605
1518 1 31.6812 10.5694 1.50737 0.00521227
1523 1 33.4868 10.5526 3.18032 0.0198209
1568 1 31.8039 12.3355 3.23203 0.0162994
1569 1 33.5363 12.3373 1.44493 0.0478095
1572 1 35.3372 12.4266 3.08219 0.0618759
1522 1 35.3129 10.5898 1.44966 0.118737
1526 1 38.8513 10.6349 1.39898 0.0111014
1527 1 37.1085 10.4437 3.146 0.0791515
1570 1 35.2892 14.2125 1.33455 0.0292175
1573 1 37.0704 12.3623 1.35825 0.0585874
1575 1 37.0435 14.0897 3.1648 0.0290816
1530 1 40.5392 10.4553 3.18976 0.0634703
1574 1 38.8465 14.0474 1.35796 0.0764659
1576 1 38.7876 12.3072 3.15685 0.102715
1577 1 40.5467 12.3377 1.45609 0.0936435
1579 1 40.5801 14.1159 3.21143 0.00208386
1578 1 42.379 14.1045 1.4488 0.0106672
1582 1 3.56984 14.0251 1.44294 0.0577118
1583 1 1.84032 14.0945 3.33738 0.00907457
1629 1 1.80717 15.8587 1.3986 0.0817253
1630 1 3.55374 17.6088 1.4906 0.00999066
1632 1 3.53578 15.9349 3.24924 0.0373539
1585 1 5.23592 15.7443 1.51872 0.0273592
1586 1 7.07728 17.5799 1.4428 0.0172737
1588 1 7.22504 15.8623 3.20736 0.0203936
1589 1 8.8069 15.8254 1.52023 0.0418802
1590 1 10.6119 17.6421 1.37152 0.0338833
1592 1 10.4959 15.8517 3.24049 0.00748971
1593 1 12.2519 15.8992 1.44728 0.00305047
1594 1 13.9523 17.5471 1.48384 0.0467026
1597 1 15.8896 15.9326 1.34658 0.0654345
1599 1 15.8314 17.5883 3.22697 0.029616
1600 1 17.5606 15.8769 3.26987 0.00625895
2170 1 13.9852 15.7964 3.20194 0.0332667
1550 1 17.6209 14.0405 1.56647 0.0157003
1601 1 19.1809 15.8731 1.47539 0.0153572
1602 1 21.0075 17.5283 1.38025 0.0422001
1603 1 19.1792 17.6136 3.21826 0.0181119
1604 1 20.9611 15.903 3.19814 0.0199426
1605 1 22.7557 15.9012 1.46803 0.113734
1607 1 22.9202 17.6015 3.25082 0.0157964
1608 1 24.6901 15.7431 3.15971 0.033162
1562 1 28.2445 14.1406 1.43404 0.0251432
1609 1 26.507 15.8493 1.47913 0.0482033
1611 1 28.2507 15.7213 3.18039 0.0168664
1567 1 30.0428 14.0772 3.24407 0.0902927
1613 1 30.0504 15.8898 1.44768 0.0337237
1615 1 29.9886 17.5597 3.20763 0.0659373
1566 1 31.7885 14.1368 1.55864 0.0635385
1571 1 33.5584 14.1437 3.2309 0.0494969
1614 1 31.7264 17.6176 1.5056 0.0506557
1616 1 31.7582 15.9061 3.22234 0.0285268
1617 1 33.554 15.9828 1.33449 0.0386197
1619 1 33.5775 17.6113 3.2755 0.0135494
1620 1 35.3416 15.8272 3.19898 0.0157116
1044 1 35.247 17.6566 1.41912 0.0299301
1621 1 37.0565 15.8822 1.44548 0.0204344
1624 1 38.8367 15.8258 3.27491 0.112372
946 1 38.8954 17.5655 1.47986 0.0229968
1625 1 40.5379 15.8166 1.49106 0.161273
1627 1 40.5873 17.491 3.29031 0.0827407
1628 1 42.3239 15.8352 3.24015 0.0256516
1626 1 42.3093 17.5201 1.50329 0.0197703
1631 1 1.7489 17.5637 3.1979 0.00710166
1677 1 1.72577 19.4057 1.50273 0.0381223
1679 1 1.80795 21.0857 3.19297 0.0649089
1587 1 5.30032 17.663 3.16841 0.0171715
1633 1 5.29024 19.3727 1.45576 0.0389491
1634 1 6.97151 21.1376 1.53357 0.058743
1680 1 3.49002 19.3738 3.16723 0.0189095
1591 1 8.89776 17.7373 3.27291 0.0849358
1636 1 6.99228 19.3565 3.15265 0.0225772
1637 1 8.72256 19.3451 1.44601 0.00952364
1638 1 10.5517 21.2506 1.38233 0.139292
1639 1 8.84018 21.1372 3.19175 0.0165043
1640 1 10.5673 19.4406 3.16793 0.0087018
1596 1 12.1895 17.6465 3.21622 0.00732474
1641 1 12.2939 19.4605 1.43211 0.0581441
1643 1 12.2698 21.0872 3.27828 0.0360254
975 1 17.5317 17.626 1.38973 0.0100146
1644 1 13.9572 19.3342 3.25465 0.0335216
1645 1 15.7484 19.3068 1.44678 0.021933
1647 1 15.7377 21.0421 3.2445 0.0251268
1648 1 17.5448 19.4276 3.30739 0.0124223
1649 1 19.3852 19.4473 1.47909 0.0672287
1651 1 19.3602 21.1866 3.25554 0.0373434
1652 1 21.1519 19.3406 3.15254 0.0153203
1606 1 24.6833 17.7121 1.56609 0.0288121
1650 1 24.6107 19.4006 3.21034 0.00905148
1653 1 22.8201 19.2625 1.40995 0.0337374
1655 1 22.8293 20.9891 3.32648 0.0118188
1610 1 28.3094 17.5914 1.48822 0.038353
1612 1 26.441 17.6541 3.20409 0.1015
1657 1 26.5629 19.3691 1.49098 0.0425219
1658 1 28.2504 21.1711 1.37675 0.0208343
1660 1 28.2513 19.4136 3.20599 0.0708857
1661 1 29.984 19.2817 1.47455 0.00238069
1618 1 33.5509 19.3642 1.53639 0.00962559
1664 1 31.7931 19.3306 3.28193 0.00355141
1667 1 33.5772 21.1047 3.26878 0.0449344
1623 1 37.0044 17.5228 3.17382 0.0621542
1668 1 35.2913 19.3955 3.35438 0.0511761
1669 1 37.0203 19.3791 1.62834 0.0561684
1670 1 38.7707 21.0399 1.56599 0.0240022
1671 1 37.0908 21.1318 3.27461 0.0599621
1672 1 38.8253 19.3297 3.26946 0.0409297
1673 1 40.6061 19.3417 1.44274 0.0445329
1674 1 -0.0487362 21.1157 1.55855 0.0013778
1676 1 42.3781 19.3295 3.13766 0.0702412
1725 1 1.72115 22.8469 1.35042 0.0104514
1635 1 5.19976 21.1522 3.13452 0.0145688
1678 1 3.38699 21.1933 1.40206 0.0143171
1681 1 5.31433 23.0115 1.4362 0.0067943
1683 1 5.24882 24.7223 3.11646 0.0490221
1728 1 3.45526 22.817 3.13176 0.0343935
1684 1 6.98647 23.0002 3.1899 0.025067
1685 1 8.70168 22.7636 1.43984 0.0526923
1642 1 14.0598 21.182 1.44333 0.105176
1688 1 10.5773 22.9468 3.15397 0.0137921
1689 1 12.3244 23.0009 1.51853 0.0340052
1690 1 14.0886 24.6847 1.39792 0.0520381
1692 1 14.0265 22.9439 3.29492 0.0370172
1072 1 15.7768 22.9478 1.53855 0.0210799
1695 1 15.8684 24.763 3.20943 0.0187104
1696 1 17.4942 22.8819 3.35642 0.0115279
1027 1 20.9981 22.8744 3.22598 0.0132921
1076 1 19.4 21.2448 52.8399 0.00268829
1693 1 17.5695 21.189 1.53261 0.0308244
1697 1 17.4967 24.6589 1.5259 0.0600905
1698 1 20.9553 24.587 1.38352 0.038529
1699 1 19.1997 24.4536 3.28458 0.0219833
1654 1 24.6766 21.1015 1.44764 0.0320529
1701 1 22.7655 22.8497 1.59233 0.0974857
1702 1 24.5061 24.4369 1.47023 0.0509239
1703 1 22.8784 24.5893 3.28127 0.0430882
1704 1 24.5643 22.818 3.26301 0.0141727
1659 1 26.5031 21.1462 3.29367 0.050212
1705 1 26.4354 22.898 1.47023 0.00405193
1706 1 28.1563 24.5574 1.38728 0.0090489
1707 1 26.3616 24.5441 3.23505 0.0715856
1708 1 28.199 22.8522 3.23866 0.044837
1663 1 30.0459 21.0951 3.13594 0.107577
1709 1 29.9686 22.9374 1.47627 0.0396704
1711 1 29.9382 24.6355 3.24626 0.0053661
1662 1 31.8337 21.0243 1.54217 0.057706
1665 1 35.3351 21.0833 1.46574 0.0165508
1710 1 31.8537 24.498 1.33412 0.0647495
1712 1 31.6569 22.9499 3.18531 0.0548057
1713 1 33.5995 22.8481 1.61605 0.0540596
1715 1 33.678 24.5982 3.19633 0.0395257
1666 1 37.0366 22.882 1.52496 0.0387413
1714 1 35.3619 24.6159 1.4769 0.0569915
1716 1 35.333 22.9142 3.23065 0.0226825
1719 1 37.1562 24.6738 3.36869 0.0483034
1720 1 38.8927 22.7618 3.34674 0.00424615
1675 1 40.5223 21.0261 3.20113 0.00315982
1721 1 40.5166 22.8126 1.41145 0.00789827
1722 1 -0.105323 24.6114 1.34523 0.0129547
1724 1 -0.0461869 22.9123 3.18543 0.0477828
1152 1 1.59989 26.502 1.34366 0.0120672
1726 1 3.39918 24.6929 1.44425 0.00815299
1727 1 1.69304 24.6973 3.15904 0.0251846
1775 1 1.66228 28.2091 3.16427 0.103393
1776 1 3.42548 26.4199 3.19572 0.040587
1729 1 5.2632 26.4052 1.43488 0.0654139
1732 1 7.12135 26.3895 3.13571 0.0157847
1773 1 3.47762 28.1979 1.44334 0.00815385
2353 1 5.19089 28.0442 3.13069 0.0464695
1682 1 7.09535 24.6944 1.31894 0.0257867
1687 1 8.76445 24.6856 3.10856 0.073083
1733 1 8.84614 26.5425 1.38961 0.00354757
1686 1 10.4727 24.6812 1.47968 0.10024
1736 1 10.4929 26.5234 3.15669 0.0473702
1737 1 12.2505 26.4036 1.51194 0.0183376
1738 1 14.1115 28.1431 1.45688 0.0959333
1740 1 14.0802 26.4048 3.17932 0.0115017
1741 1 15.8503 26.3905 1.4073 0.141125
1068 1 19.3945 28.1742 3.32564 0.0367286
1694 1 17.7294 26.4327 3.2418 0.00514049
1746 1 20.7561 27.8762 1.48769 0.0709642
1748 1 20.8288 26.1855 3.25634 0.034954
1749 1 22.7313 26.4082 1.48646 0.00611531
1750 1 24.242 28.1509 1.24583 0.0805022
1751 1 22.3493 27.9397 3.36732 0.0787914
1752 1 24.5627 26.4443 3.24441 0.0558464
1753 1 26.3218 26.011 1.1154 0.0289814
1756 1 28.0609 26.288 3.11395 0.00850644
1759 1 26.2736 27.8959 2.07234 0.023173
1136 1 30.1422 26.257 1.23521 0.0239752
1754 1 28.2925 27.9121 0.745419 0.0626041
1758 1 30.3794 27.5714 3.1176 0.0273401
1139 1 31.9926 28.0369 1.35741 0.040156
1760 1 31.9513 26.0802 3.1659 0.0415444
1761 1 33.5658 26.1574 1.25812 0.0220836
1763 1 33.5536 27.9248 3.13263 0.0126777
1764 1 35.3597 26.4192 3.24951 0.078796
1143 1 38.7413 28.1804 1.43346 0.119647
1765 1 36.9943 26.3857 1.39276 0.0565174
1768 1 38.7329 26.4946 3.25291 0.0537144
1717 1 38.8135 24.6148 1.51299 0.0322416
1718 1 40.4877 26.5515 1.58783 0.0395271
1723 1 40.5355 24.655 3.27248 0.0254721
1766 1 42.1725 26.54 3.27564 0.0100061
1770 1 0.00130652 28.2226 1.39954 0.105544
1818 1 -0.108449 31.7056 1.50198 0.00402632
1821 1 1.75938 29.9516 1.52853 0.0123713
1822 1 3.39091 31.6688 1.34633 0.0290073
1824 1 3.42965 29.9129 3.21065 0.0272204
1730 1 7.06261 28.1949 1.42627 0.0455965
1777 1 5.27425 29.9407 1.47126 0.0512691
1778 1 7.14134 31.6068 1.47325 0.0119988
1780 1 7.06412 29.8005 3.19977 0.0452977
1735 1 8.76502 28.1802 3.30471 0.0298593
1781 1 8.80652 29.8406 1.43984 0.119421
1782 1 10.5804 31.7813 1.57891 0.0396725
1783 1 8.78275 31.6976 3.21589 0.0275018
1734 1 10.5291 28.2274 1.43228 0.0035688
1739 1 12.3816 28.2604 3.15181 0.0246169
1784 1 10.443 29.9642 3.28295 0.0475308
1785 1 12.2136 29.9535 1.41283 0.00223729
1743 1 15.8084 28.1756 3.19328 0.050786
1788 1 14.0971 29.9908 3.28836 0.0341026
1789 1 15.9287 29.8687 1.49658 0.0356273
1791 1 15.8918 31.7821 3.19353 0.0719544
1742 1 17.6778 28.1887 1.51599 0.0118688
1790 1 17.565 31.6959 1.5269 0.0597289
1792 1 17.6131 29.9517 3.17452 0.0415806
1793 1 19.2482 29.9925 1.41893 0.0342252
1795 1 19.3729 31.8695 3.29384 0.0513657
1755 1 24.2207 29.4141 3.48187 0.0339862
1796 1 21.0233 30.0162 3.27054 0.0544191
1797 1 22.4418 29.6529 1.38237 0.0108992
1799 1 22.6999 31.6923 2.17484 0.0645418
1800 1 24.7919 31.6578 3.35961 0.109979
1801 1 24.667 30.4986 1.44986 0.0555341
1808 1 26.4318 29.9438 3.06736 0.0622445
2382 1 26.8289 29.9228 0.722121 0.0457446
1757 1 28.4449 28.6417 2.80388 0.0653593
1805 1 30.1931 29.6333 1.29241 0.00522854
2426 1 28.4865 30.9203 2.46052 0.0531267
1181 1 32.2382 29.9231 3.06732 0.0387143
1806 1 33.7416 29.841 1.24915 0.0923343
1810 1 35.1787 29.9695 3.2237 0.0420259
1762 1 35.3795 28.1161 1.35787 0.00210091
1767 1 37.0073 28.1296 3.2242 0.0693289
1813 1 37.0582 29.9772 1.54465 0.00824744
1815 1 36.9319 31.8481 3.19273 0.0326712
1816 1 38.7788 30.015 3.28484 0.0922657
1147 1 40.5402 29.8642 1.51184 0.00216654
1814 1 38.7734 31.6614 1.52207 0.0233244
1817 1 40.4699 31.7482 3.31443 0.0310901
1820 1 42.1261 29.8347 3.30543 0.015982
1823 1 1.75222 31.6599 3.2692 0.0516058
1866 1 42.2916 35.2438 1.417 0.0188896
1869 1 1.81072 33.4427 1.49933 0.0438354
1871 1 1.81725 35.2259 3.25356 0.042824
1872 1 3.5173 33.457 3.15574 0.0912595
1779 1 5.23195 31.5528 3.1693 0.0346159
1825 1 5.29904 33.3582 1.36423 0.0182295
1826 1 7.0683 35.2839 1.35059 0.00695299
1827 1 5.34172 35.1281 3.12114 0.0489708
1828 1 7.06723 33.4578 3.16411 0.0820322
1829 1 8.79532 33.512 1.40873 0.0158208
1830 1 10.5079 35.2964 1.45968 0.0563137
1831 1 8.74082 35.1873 3.14411 0.0341805
1832 1 10.592 33.4811 3.27393 0.0191331
1787 1 12.3355 31.6764 3.23845 0.0194486
1833 1 12.2738 33.5046 1.48494 0.0255511
1834 1 14.1046 35.3118 1.46868 0.0059401
1835 1 12.4467 35.4092 3.21687 0.0113294
1786 1 14.145 31.7538 1.51035 0.0289125
1836 1 14.1329 33.5649 3.30231 0.0552416
1837 1 15.8626 33.5593 1.57133 0.0162361
1839 1 15.8324 35.3525 3.32464 0.0196726
1214 1 19.2922 35.3276 3.32549 0.0406068
1794 1 20.7043 31.7892 1.25834 0.0190275
1840 1 17.6049 33.5365 3.22745 0.0203278
1841 1 19.2889 33.6244 1.52663 0.0158631
1798 1 24.5996 32.8115 1.40241 0.0206116
1843 1 21.0522 33.5228 3.22402 0.0342294
1845 1 22.5703 33.9759 1.26263 0.0246062
1846 1 24.5741 35.3262 1.70711 0.029774
1848 1 23.5849 33.5733 3.40076 0.0505696
1803 1 25.8425 33.7544 3.4108 0.0366582
1804 1 26.619 31.9681 1.85596 0.0848885
1849 1 26.6464 34.1463 1.22493 0.0208295
1183 1 28.3394 31.8712 0.408033 0.0137434
1807 1 30.6937 31.7475 2.61438 0.0348977
1852 1 28.4965 33.2514 2.2542 0.0378859
1853 1 30.4251 33.4735 1.11219 0.0153864
1855 1 29.9356 35.3019 3.25931 0.0340861
1184 1 32.3143 31.6396 1.12666 0.0233221
1236 1 35.2081 31.8425 1.40684 0.00471945
1811 1 33.5458 31.8833 3.17736 0.00631396
1856 1 31.9191 33.7575 3.18313 0.0312193
1857 1 33.5612 33.7128 1.25857 0.0171169
1860 1 35.2636 33.6179 3.19977 0.0327004
1861 1 36.9972 33.5867 1.49699 0.00741615
1863 1 37.0076 35.3425 3.28914 0.0396018
1864 1 38.7859 33.5309 3.24925 0.030793
1819 1 40.5732 35.323 3.21078 0.0977963
1865 1 40.4747 33.474 1.49724 0.0544815
1868 1 42.3599 33.5561 3.32384 0.0157363
1293 1 1.78399 36.9676 1.35117 0.0348035
1296 1 3.59654 37.0082 3.25036 0.0177392
1870 1 3.56414 35.2198 1.38462 0.0180144
1249 1 5.22588 36.9803 1.50261 0.0212152
1250 1 7.0473 38.8188 1.45772 0.00691814
1251 1 5.32043 38.8583 3.20534 0.036516
1252 1 7.09857 36.996 3.09953 0.014083
1253 1 8.84505 37.0891 1.39353 0.0353019
1255 1 8.86169 38.7854 3.24377 0.0622689
1256 1 10.572 37.0256 3.19422 0.0750791
1257 1 12.3544 37.0441 1.38127 0.0455175
1259 1 12.4335 38.8177 3.08792 0.0385723
640 1 17.5557 35.4305 1.53623 0.00522404
1260 1 14.0582 36.9872 3.28174 0.0147484
1261 1 15.772 37.0921 1.47505 0.0360165
1263 1 15.7773 38.8686 3.28573 0.00221013
1264 1 17.5233 37.2134 3.26852 0.0358435
1312 1 17.5506 38.8476 1.40177 0.0141274
1265 1 19.2098 37.1519 1.41643 0.0871238
1268 1 20.9144 37.2382 3.2009 0.0198674
1842 1 20.9462 35.5073 1.44974 0.0140625
1269 1 22.8315 37.0978 1.43148 0.0132403
1271 1 22.8222 38.8338 3.29677 0.0643441
1847 1 22.5817 35.5797 3.26456 0.0128118
1272 1 24.5944 37.0622 3.31086 0.0164496
1273 1 26.4274 37.0729 1.36591 0.119872
1275 1 26.4179 38.7524 3.22085 0.0138482
1851 1 26.7701 35.7869 3.27224 0.0108063
1276 1 28.4407 37.2629 3.21179 0.0454099
1277 1 30.1589 37.2329 1.5129 0.019338
1850 1 28.4961 35.5499 1.32227 0.00874197
1280 1 31.8814 37.0947 3.22768 0.133651
1281 1 33.6074 37.1139 1.39926 0.0469041
1284 1 35.2726 37.1625 3.23786 0.0177106
1854 1 31.8152 35.5087 1.35491 0.0254104
1859 1 33.5741 35.3819 3.13034 0.0203782
1285 1 37.089 37.1689 1.43867 0.100332
1288 1 38.7294 37.1027 3.2523 0.0204568
1858 1 35.4382 35.4074 1.34641 0.0312663
1862 1 38.7212 35.2735 1.51779 0.0120585
664 1 38.7789 38.878 1.45329 0.0192594
1290 1 0.0311596 38.8217 1.42923 0.141516
1292 1 42.386 37.0745 3.22139 0.0182654
1867 1 40.5085 36.9986 1.46467 0.10225
668 1 1.77006 38.7497 3.19157 0.155849
1294 1 3.55567 38.7703 1.47309 0.0117439
1341 1 1.79539 40.5273 1.48381 0.0181373
1344 1 3.50721 40.5168 3.07003 0.0168893
1297 1 5.17526 40.5396 1.38773 0.0265163
1300 1 6.99257 42.3256 1.37768 0.0204433
1922 1 7.03487 40.5524 3.12682 0.0180022
1254 1 10.5443 38.7149 1.44973 0.0943013
1301 1 8.81546 40.599 1.42833 0.0154968
1303 1 8.73017 42.3678 3.27536 0.050112
1258 1 14.0217 38.8008 1.41615 0.0621036
1304 1 10.499 40.4971 3.31892 0.0157166
1305 1 12.2298 40.5583 1.38213 0.0354131
1307 1 12.2568 42.219 3.2042 0.0082775
1308 1 14.0126 40.6807 3.27127 0.0254302
1309 1 15.9227 40.6014 1.54567 0.0208657
1310 1 17.5866 42.4258 1.5301 0.024725
1311 1 17.6039 40.7576 3.26079 0.0517587
1357 1 15.9007 42.4268 3.17318 0.0163649
688 1 19.4088 42.4115 3.23674 0.107468
1262 1 21.0935 40.6166 3.21702 0.00730882
1266 1 20.9609 38.9059 1.34799 0.0369194
1267 1 19.1786 38.8854 3.22784 0.055988
1886 1 19.3445 40.6393 1.48939 0.0501754
1319 1 22.8071 42.3949 3.21945 0.0265726
1320 1 22.8455 40.4521 1.4814 0.0298166
1270 1 24.5864 38.7362 1.4355 0.0658627
1317 1 26.3691 40.6257 1.46745 0.0338388
1318 1 24.5759 42.2031 1.58338 0.023624
1321 1 28.1464 40.5471 3.20816 0.0178646
1322 1 28.2141 42.3308 1.40681 0.0245673
1945 1 24.6325 40.4169 3.28058 0.0674735
1274 1 28.1382 38.8781 1.45961 0.0112726
1279 1 30.1471 39.0174 3.34788 0.0580364
1325 1 29.9711 40.7116 1.35874 0.0716999
1328 1 31.8031 40.7266 3.16287 0.0494735
1278 1 31.7271 38.8739 1.46715 0.0490748
1283 1 33.4247 38.9716 3.18596 0.0875508
1329 1 33.5688 40.5995 1.40697 0.0034189
1330 1 35.2497 42.3604 1.35971 0.0119548
1282 1 35.2931 38.946 1.44659 0.0100002
1286 1 38.7915 40.6708 3.02633 0.0372447
1287 1 37.0215 38.9019 3.15833 0.0837485
1332 1 35.3228 40.5893 3.22367 0.00641313
1333 1 36.975 40.5878 1.36054 0.0248987
1335 1 37.0802 42.3396 3.22934 0.0193551
1291 1 40.6365 38.8183 3.04871 0.0195245
1337 1 40.515 40.6271 1.42791 0.0492973
1340 1 42.3917 40.6729 3.21054 0.00252862
762 1 3.41995 42.3325 1.4472 0.0673643
1343 1 1.6372 42.411 3.1988 0.027468
1389 1 1.89598 44.1978 1.38684 0.0144733
1390 1 3.5487 45.9089 1.36363 0.0283781
1391 1 1.71397 46.0405 3.14021 0.0334062
1392 1 3.4902 44.1366 3.31211 0.0370521
721 1 5.20568 44.106 1.46847 0.0114032
1299 1 5.24674 42.192 3.09866 0.00535673
1347 1 5.19681 45.797 3.22589 0.0204422
144 1 8.66152 44.0035 1.55713 0.0210386
1298 1 10.4275 44.1475 3.25129 0.0173298
1346 1 7.0141 -0.0118464 1.44898 0.00614563
1348 1 6.91229 44.0929 3.2023 0.0317688
1351 1 8.695 45.8049 3.20829 0.0603743
1302 1 10.5075 42.3743 1.5449 0.0708236
1306 1 13.9447 42.4404 1.44636 0.024072
1350 1 14.0626 45.9041 1.37732 0.0207748
1353 1 12.2153 44.0804 1.49871 0.084304
1355 1 12.2711 45.9694 3.19492 0.0379224
2025 1 14.0013 44.1553 3.15845 0.0187269
1358 1 15.9491 44.1171 1.39313 0.126853
1412 1 17.6296 0.0921691 1.45614 0.0862516
743 1 21.1089 0.012401 1.4743 0.0446494
1313 1 21.143 42.44 1.51781 0.0421325
1315 1 19.376 44.1471 1.53437 0.0624754
1360 1 17.6525 44.1155 3.32253 0.0463547
1363 1 19.3197 -0.0269954 3.28742 0.0617397
1364 1 21.1276 44.2145 3.27055 0.0805483
1365 1 22.9346 44.2471 1.46161 0.0331349
1366 1 24.5402 -0.0102867 1.45406 0.00318099
1367 1 22.9132 45.8607 3.27665 0.0420342
745 1 26.3645 43.9911 1.44752 0.0105703
1323 1 26.3867 42.3948 3.21386 0.00584869
1368 1 24.6495 44.0982 3.23239 0.0290024
1370 1 28.109 44.1472 3.19826 0.010385
1326 1 31.7947 42.4129 1.37491 0.00719218
1327 1 30.0096 42.3512 3.24734 0.0513453
1373 1 29.9054 44.1155 1.44135 0.0258298
1331 1 33.5491 42.3726 3.25241 0.0405184
1376 1 31.718 44.0336 3.16461 0.0507607
1377 1 33.5654 44.0712 1.57115 0.012094
1379 1 33.5375 -0.0620441 3.1618 0.101542
1380 1 35.3333 43.9954 3.13262 0.0321322
1378 1 36.9188 44.0608 1.40256 0.156508
1383 1 37.0009 -0.0179754 3.22936 0.0763653
1384 1 38.6997 44.1416 3.25321 0.0603697
1425 1 35.2673 45.9077 1.42887 0.0107726
1334 1 40.6027 44.1569 1.46706 0.0261053
1338 1 42.4397 42.4418 1.30437 0.0488356
1339 1 40.4982 42.4027 3.12702 0.0822263
1381 1 38.7358 42.4925 1.45606 0.0250938
1388 1 -0.0259618 44.1825 3.10387 0.0549446
2061 1 1.68985 1.82617 4.99966 0.0180983
2063 1 1.65852 3.50211 6.728 0.0378971
2064 1 3.4287 1.78915 6.73968 0.0372673
1971 1 5.23141 45.8791 6.76484 0.0104444
2017 1 5.21243 1.74923 4.99946 0.0405327
2019 1 5.19988 3.53962 6.66019 0.0220179
2020 1 7.0255 1.85108 6.7685 0.0560079
1975 1 8.75692 45.8713 6.62723 0.0372274
2021 1 8.7482 1.81456 5.05177 0.0456422
2024 1 10.5318 1.80568 6.77205 0.0780083
1974 1 12.3063 1.77314 5.05898 0.0470683
1979 1 12.2246 45.7801 6.80491 0.0032332
2027 1 12.3695 3.72415 6.76737 0.00511742
2028 1 13.9968 1.83718 6.79351 0.0263928
2026 1 14.1197 3.54275 4.91311 0.0408578
2029 1 15.6872 45.9151 6.72297 0.00520092
2031 1 15.7985 3.50059 6.85565 0.0522192
2032 1 15.8472 1.78286 4.91882 0.136401
1978 1 17.496 3.48454 5.03456 0.0416173
1987 1 19.4317 1.67476 4.99185 0.0459317
2034 1 21.083 3.53643 5.07055 0.000624286
2035 1 19.3608 3.47294 6.7813 0.0329772
2606 1 17.5809 1.73408 6.75982 0.00728447
2036 1 21.2325 1.86221 6.88311 0.11769
2037 1 22.9393 1.66976 5.10439 0.0588225
2039 1 22.8186 3.60997 6.78914 0.0167927
2040 1 24.6586 1.69246 6.7 0.101432
1419 1 28.2639 3.44772 4.83756 0.0181485
1994 1 28.1204 45.8506 4.99783 0.0614302
2041 1 26.3518 1.82719 4.90125 0.0773051
1998 1 31.8157 45.8079 4.91899 0.00336273
2044 1 28.2381 1.75981 6.71886 0.0287378
2045 1 29.8768 1.73996 4.93362 0.0423442
2047 1 29.8976 3.58556 6.65742 0.0647148
2003 1 33.5286 45.8359 6.64014 0.0103389
2048 1 31.596 1.70657 6.6886 0.0199282
2049 1 33.6958 1.88013 4.89593 0.0500535
2051 1 33.5547 3.43979 6.6915 0.0389966
2002 1 35.3195 45.765 5.00617 0.0601338
2052 1 35.3545 1.63992 6.70435 0.00219261
2053 1 37.0546 1.77318 4.93364 0.0818399
2056 1 38.809 1.71964 6.74504 0.0215813
2010 1 42.2769 45.8964 4.98141 0.00106078
2011 1 40.4848 45.8404 6.80145 0.0158007
2054 1 38.7566 3.53792 4.91034 0.0301179
2057 1 40.4458 1.71808 4.90147 0.0477158
2059 1 40.534 3.48845 6.80704 0.00306355
2060 1 -0.0623302 1.70708 6.75973 0.0320207
2062 1 3.41803 3.4525 5.05059 0.0198031
2109 1 1.69424 5.19287 4.93068 0.0555393
2111 1 1.82098 7.08042 6.78225 0.0365822
2065 1 5.21441 5.19457 5.00028 0.116986
2066 1 6.84216 7.08413 5.01182 0.0578331
2068 1 6.89549 5.33432 6.70165 0.0521668
2112 1 3.46286 5.27518 6.73061 0.0613078
1395 1 6.98596 3.51297 5.01018 0.0298687
2018 1 8.77263 3.62622 6.84899 0.0391693
2023 1 10.6261 3.44604 5.1169 0.0616375
2069 1 8.91157 5.31956 5.17778 0.097985
2072 1 10.5779 5.3217 6.80873 0.0311968
2073 1 12.4504 5.31677 4.94699 0.0292962
2076 1 14.1258 5.29578 6.7639 0.0444233
2077 1 15.7544 5.30289 4.92319 0.0228175
2079 1 15.8801 6.9391 6.66808 0.0419001
2030 1 17.4556 5.20139 6.72345 0.0903839
2078 1 17.6375 7.02631 5.0302 0.0166919
2081 1 19.3099 5.27165 5.07641 0.0479417
2083 1 19.3369 7.15341 6.76554 0.0197118
2084 1 21.141 5.31283 6.70578 0.0127048
2038 1 24.5758 3.48709 4.91686 0.0181154
2082 1 21.1599 7.03174 4.95739 0.0188348
2085 1 22.9196 5.36936 4.91216 0.0386795
2086 1 24.6798 7.10436 5.04878 0.0347199
2088 1 24.6879 5.2826 6.6642 0.0451999
2042 1 26.4057 5.1705 4.92321 0.0326317
2089 1 26.4102 7.03007 6.71476 0.0229424
2713 1 26.3871 3.5871 6.68787 0.0316726
1418 1 31.8254 7.01741 4.98766 0.0567027
2046 1 31.8505 3.57743 4.89048 0.0628167
2092 1 28.1264 5.32563 6.57462 0.0166756
2093 1 29.915 5.31835 4.96016 0.0236644
2095 1 29.9185 7.06902 6.66235 0.0212511
2096 1 31.7813 5.18646 6.68269 0.00655408
2097 1 33.6491 5.28873 4.97566 0.0712312
2100 1 35.2694 5.32648 6.80161 0.07044
2144 1 33.5282 7.00748 6.7044 0.0091492
1483 1 38.8777 7.0623 5.03068 0.100828
2050 1 35.4422 3.5538 4.83915 0.00847711
2055 1 36.9584 3.37097 6.71389 0.0560803
2101 1 38.8164 5.21669 6.69805 0.0365923
2102 1 37.1152 5.32057 5.04832 0.0333007
2058 1 -0.0787117 3.44709 5.08181 0.0755035
2104 1 40.4759 7.08355 6.73419 0.0214853
2105 1 40.5705 5.25977 5.02184 0.0122723
2106 1 42.2139 7.15033 5.10181 0.0572485
2108 1 42.2582 5.36957 6.625 0.0335662
2110 1 3.42934 7.03474 5.04876 0.00641863
2115 1 3.48005 10.6035 4.92733 0.100303
2157 1 1.6644 8.88764 4.99359 0.0678087
2159 1 1.72157 10.6673 6.72333 0.0218197
2067 1 5.12673 7.04399 6.81841 0.038922
2113 1 5.22285 8.85468 4.91262 0.0225492
2116 1 6.86613 8.81112 6.7123 0.0541117
2160 1 3.52559 8.90171 6.78092 0.0250012
2071 1 8.70011 7.1854 6.83593 0.0649442