ITEM: TIMESTEP
500
ITEM: NUMBER OF ATOMS
9360
ITEM: BOX BOUNDS pp pp pp
0.0000000000000000e+00 4.2323543945488403e+01
0.0000000000000000e+00 4.5854877274562803e+01
0.0000000000000000e+00 5.2908097529588801e+01
ITEM: ATOMS id type x y z c_kin
1386 1 0.0499866 0.0475641 1.463 0.0609608
1436 1 42.3684 1.74882 3.2702 0.0395067
1437 1 1.84206 1.68207 1.42562 0.0192338
1439 1 1.73168 3.40634 3.1681 0.0352448
1440 1 3.46187 1.70678 3.22796 0.0454093
767 1 5.28689 3.50266 3.1925 0.0214742
1393 1 5.29735 1.71713 1.32285 0.0435277
1394 1 7.01131 3.51343 1.38943 0.0375185
1438 1 3.59843 3.36671 1.45782 0.0200885
1396 1 7.00856 1.75793 3.17534 0.00591775
1397 1 8.77366 1.74769 1.37388 0.025125
724 1 10.5553 45.8372 1.58855 0.0333549
1400 1 10.5767 1.79037 3.1554 0.0301258
1401 1 12.3174 1.76485 1.39351 0.0532815
1402 1 14.1406 3.49918 1.45917 0.0260617
1403 1 14.0756 1.80236 3.19264 0.00970398
1359 1 15.7721 45.7937 3.23679 0.0158514
1405 1 15.8804 1.69 1.49661 0.0179344
1407 1 15.8489 3.51986 3.19604 0.0455274
1404 1 19.3442 3.4733 3.17241 0.0320632
1408 1 19.3922 1.67642 1.39907 0.0405299
1410 1 21.1708 3.51222 1.4545 0.0138863
1986 1 21.1774 1.72421 3.0985 0.104422
2033 1 17.6978 1.61485 3.12213 0.00200561
1413 1 22.8485 1.68585 1.32671 0.00985668
1414 1 24.5445 3.47784 1.38851 0.0219183
1415 1 22.8592 3.53503 3.15798 0.0106773
1416 1 24.5305 1.67704 3.2059 0.000870624
793 1 26.2753 1.7154 1.47592 0.00557578
1371 1 26.3499 -0.0861184 3.22607 0.0250459
1417 1 28.1157 45.7924 1.50729 0.0335095
1420 1 28.1399 1.89988 3.20101 0.0192088
1375 1 29.8965 -0.0155254 3.1568 0.0552763
1421 1 29.9075 1.776 1.45622 0.00888667
1423 1 29.9369 3.50766 3.04646 0.122214
1424 1 31.6919 1.75653 3.1433 0.00513418
798 1 33.4666 1.7538 1.4039 0.019461
803 1 31.7214 3.42756 1.33326 0.00496603
804 1 35.2413 3.53856 1.50498 0.0416657
1374 1 31.7254 0.0269693 1.42401 0.0190456
1382 1 38.8795 45.9231 1.42094 0.0321843
1428 1 35.2712 1.80662 3.20593 0.00249336
1429 1 37.0074 1.82096 1.57165 0.00988953
1432 1 38.7637 1.75765 3.25687 0.0566931
1387 1 40.5084 45.9476 3.14593 0.0146367
1433 1 40.5492 1.7356 1.3767 0.0162234
1434 1 42.4084 3.41132 1.36224 0.0096268
1484 1 42.3213 5.13051 3.1178 0.0374896
1485 1 1.85206 5.22966 1.43022 0.0207775
1441 1 5.26413 5.21913 1.47147 0.0339991
1443 1 5.34427 7.02642 3.22963 0.0162785
1444 1 6.9433 5.21706 3.3232 0.0842949
1488 1 3.57212 5.23771 3.26924 0.0438072
1398 1 10.502 3.50582 1.41728 0.0279035
1399 1 8.77632 3.4839 3.25488 0.0383122
1445 1 8.79547 5.25522 1.35835 0.00711799
1448 1 10.5159 5.16934 3.26645 0.0331042
1449 1 12.4006 5.28057 1.3717 0.0152376
1451 1 12.2681 7.11946 3.17958 0.0320626
2022 1 12.3527 3.52596 3.17389 0.070263
1450 1 14.0776 7.09515 1.53626 0.0461756
1452 1 14.1208 5.21948 3.14877 0.0468135
1453 1 15.8091 5.2586 1.29249 0.0272955
1455 1 15.917 7.0597 3.2021 0.0481198
787 1 19.3314 5.22667 1.48067 0.00173467
1411 1 17.5581 3.50245 1.3606 0.00323469
1454 1 17.655 7.0039 1.39777 0.0322175
1456 1 17.5406 5.23712 3.20037 0.0853196
1458 1 21.0457 7.04513 1.44153 0.0144411
1459 1 19.3435 7.058 3.22653 0.012694
1460 1 21.2399 5.26683 3.22158 0.0341915
1461 1 22.8831 5.32873 1.40769 0.0571905
1464 1 24.5619 5.33587 3.09794 0.00309325
167 1 26.3403 3.48696 3.13451 0.00555635
1422 1 28.2129 3.57615 1.39563 0.00880184
1465 1 26.5151 5.30279 1.45352 0.0277651
1466 1 28.2635 6.96133 1.38694 0.0369308
1467 1 26.4119 7.02604 3.15852 0.018503
1468 1 28.2159 5.32201 3.24008 0.0129543
1469 1 30.0051 5.36532 1.34181 0.0158524
1470 1 31.7643 7.03564 1.36068 0.0271173
1472 1 31.7172 5.16428 3.17132 0.00706007
1427 1 33.4434 3.48971 3.26688 0.0617829
1473 1 33.4762 5.28314 1.4147 0.00547324
1476 1 35.2781 5.24508 3.15406 0.00456445
1431 1 37.0054 3.50586 3.34337 0.00843144
1474 1 37.1277 5.22829 1.56016 0.0228458
1480 1 38.7733 5.11894 3.33801 0.0253727
807 1 38.7629 3.50126 1.50929 0.0118739
1430 1 40.5066 5.27383 1.47536 0.0185363
1435 1 40.5923 3.46194 3.1951 0.011605
1477 1 38.833 6.96705 1.4884 0.0295521
1482 1 -0.0143012 6.98086 1.55333 0.0285026
2153 1 40.6067 6.98793 3.32868 0.0250678
1486 1 3.66373 6.93457 1.54182 0.0303451
1487 1 1.78045 6.99027 3.1666 0.0911973
1533 1 1.80152 8.7338 1.51049 0.00177882
1489 1 5.24735 8.73244 1.49607 0.00788285
1492 1 6.97606 8.75503 3.14238 0.032747
1536 1 3.55859 8.68413 3.19491 0.0122717
1442 1 7.05512 7.02562 1.41939 0.0724923
1447 1 8.78015 6.97715 3.11327 0.113062
1493 1 8.80419 8.82247 1.40063 0.0122306
1495 1 8.844 10.5272 3.14001 0.00611304
1446 1 10.5734 7.03308 1.40468 0.00592062
1494 1 10.5144 10.5712 1.43112 0.0134619
1496 1 10.588 8.7461 3.2644 0.0262889
1497 1 12.274 8.81129 1.43035 0.0817386
1500 1 13.9609 8.90237 3.18305 0.01637
1501 1 15.806 8.77502 1.5149 0.078299
1503 1 15.8747 10.5877 3.17404 0.00563955
1502 1 17.5994 10.5563 1.45867 0.0266558
1504 1 17.674 8.89383 3.19237 0.0409539
1505 1 19.3197 8.82789 1.42851 0.0460972
1506 1 21.0895 10.5595 1.44205 0.0124814
1507 1 19.3669 10.5894 3.21693 0.037039
1462 1 24.6979 7.06453 1.41676 0.0875881
1463 1 22.8154 7.07267 3.2114 0.042342
1508 1 21.0652 8.88908 3.20322 0.00603206
1509 1 22.8541 8.81832 1.41313 0.0264159
1510 1 24.6892 10.5784 1.41292 0.0187342
1511 1 22.8814 10.571 3.23121 0.0219401
888 1 26.4533 8.83497 1.43826 0.00510185
1512 1 24.6116 8.8445 3.11626 0.00469825
1515 1 26.453 10.5012 3.23019 0.110038
1471 1 30.0029 7.05692 3.16793 0.0157644
1513 1 28.237 8.78259 3.13841 0.056305
1517 1 30.0538 8.76374 1.50039 0.069308
1519 1 29.9022 10.5431 3.30371 0.0137422
1520 1 31.7312 8.8814 3.20232 0.00787338
900 1 35.272 6.99616 1.49459 0.00882765
1475 1 33.5335 7.01478 3.24748 0.0791965
1521 1 33.4975 8.75251 1.52929 0.0212068
1479 1 37.1355 7.03517 3.19344 0.012585
1524 1 35.2578 8.75571 3.14985 0.0596176
1525 1 37.0613 8.72641 1.41284 0.0153601
1528 1 38.9432 8.80025 3.1463 0.0396732
852 1 42.3123 8.75724 3.18566 0.0427691
1478 1 40.6394 8.78634 1.39269 0.0168001
1535 1 42.3813 10.6081 1.53528 0.00928531
1532 1 1.74805 10.477 3.18452 0.0195158
1580 1 42.3077 12.3632 3.23681 0.0203277
1581 1 1.87359 12.3582 1.49536 0.0782312
2158 1 3.54611 12.3635 3.2171 0.0586564
1491 1 5.27601 10.6134 3.11612 0.0063336
1534 1 3.5208 10.4691 1.50484 0.0465944
1538 1 7.03337 14.1704 1.44052 0.0179019
1539 1 5.41315 14.0576 3.19755 0.000326429
1540 1 7.04634 12.3151 3.2159 0.0385278
1584 1 5.31631 12.4111 1.24432 0.041766
911 1 7.09803 10.5672 1.41887 0.0180183
1541 1 8.7667 12.3958 1.49439 0.0607402
1542 1 10.4901 14.0575 1.45233 0.0300169
1543 1 8.8187 13.9792 3.35263 0.0529522
1499 1 12.2956 10.5148 3.24419 0.0530214
1544 1 10.5836 12.2243 3.30966 0.0286009
1545 1 12.2977 12.3148 1.41225 0.023508
1547 1 12.2059 14.0107 3.27874 0.0217631
1498 1 14.068 10.593 1.37417 0.0358282
1546 1 14.052 14.0986 1.57473 0.0396336
1548 1 14.0592 12.2345 3.26984 0.0180986
1549 1 15.8392 12.3629 1.43239 0.0202912
1551 1 15.8357 14.1228 3.18961 0.0724105
1552 1 17.5447 12.2922 3.18063 0.0248981
1553 1 19.4234 12.3523 1.48501 0.0484579
1554 1 21.1727 14.1162 1.48667 0.00435359
1555 1 19.3694 14.0398 3.19025 0.023341
1556 1 21.1325 12.2644 3.3042 0.0119879
1557 1 22.9691 12.2552 1.3738 0.0448938
1558 1 24.7224 14.1018 1.42079 0.00449556
1559 1 22.8551 14.0371 3.23142 0.0142079
1560 1 24.626 12.2884 3.24807 0.0109166
1514 1 28.3178 10.4303 1.46204 0.0185576
1561 1 26.4694 12.204 1.33963 0.0309033
1563 1 26.478 14.0617 3.15169 0.0342877
1564 1 28.3261 12.2917 3.14033 0.0212362
1565 1 30.0563 12.2288 1.487 0.0165363
1518 1 31.8006 10.4656 1.41193 0.0223286
1523 1 33.523 10.5945 3.09767 0.0605176
1568 1 31.716 12.3006 3.25558 0.0034813
1569 1 33.5402 12.3828 1.50913 0.000319919
1572 1 35.2517 12.3452 3.20461 0.0474524
1522 1 35.3166 10.6392 1.45743 0.0568144
1526 1 38.9098 10.5767 1.43933 0.0594073
1527 1 37.0569 10.5891 3.11534 0.0196722
1570 1 35.2501 14.1544 1.43353 0.0115728
1573 1 37.0518 12.3316 1.43486 0.0681208
1575 1 37.0042 14.1532 3.22099 0.0465148
1530 1 40.6491 10.4968 3.1965 0.0225175
1574 1 38.923 14.0894 1.49002 0.0846292
1576 1 38.8278 12.3979 3.27519 0.0663782
1577 1 40.5859 12.3838 1.52949 0.0233738
1579 1 40.6841 14.195 3.2706 0.00446984
1578 1 42.5051 14.1725 1.37989 0.0117225
1582 1 3.53328 14.0968 1.38576 0.0037191
1583 1 1.77707 14.0889 3.17953 0.0110879
1629 1 1.80971 15.9468 1.41346 0.0560649
1630 1 3.53894 17.7185 1.42962 0.00596448
1632 1 3.56536 15.8446 3.16063 0.00844113
1585 1 5.21558 15.92 1.39748 0.034417
1586 1 7.05755 17.5629 1.4952 0.0236343
1588 1 7.07382 15.8038 3.24767 0.0379888
1589 1 8.81894 15.9264 1.46366 0.0126672
1590 1 10.4559 17.5614 1.50483 0.0265693
1592 1 10.5158 15.8222 3.25469 0.062941
1593 1 12.2283 15.8113 1.48566 0.0544927
1594 1 13.9188 17.6549 1.46803 0.00334496
1597 1 15.7886 15.8927 1.43488 0.0214336
1599 1 15.8376 17.6281 3.21185 0.00556627
1600 1 17.5494 15.8986 3.23389 0.0212876
2170 1 14.0229 15.8416 3.21396 0.0122899
1550 1 17.571 14.0066 1.48353 0.0407109
1601 1 19.3192 15.8171 1.47035 0.00704609
1602 1 21.0895 17.5554 1.48971 0.0128993
1603 1 19.4166 17.6559 3.18601 0.00470049
1604 1 21.1243 15.8262 3.21681 0.0949514
1605 1 22.8912 15.875 1.53384 0.112671
1607 1 22.9064 17.6234 3.34309 0.0240663
1608 1 24.6283 15.9051 3.17373 0.0277419
1562 1 28.2029 14.1121 1.4092 0.0307113
1609 1 26.5431 15.8989 1.48618 0.0361313
1611 1 28.2909 15.7961 3.21462 0.0151509
1567 1 29.9654 14.049 3.17075 0.0484394
1613 1 30.09 15.7856 1.47535 0.0345058
1615 1 30.0283 17.6867 3.28454 0.00884486
1566 1 31.7399 14.058 1.51038 0.0142685
1571 1 33.5168 14.1285 3.19591 0.0105557
1614 1 31.7496 17.6635 1.47779 0.0582187
1616 1 31.7797 15.9002 3.2458 0.0104897
1617 1 33.4743 15.8468 1.48393 0.00864431
1619 1 33.5713 17.7003 3.33444 0.0188827
1620 1 35.1988 15.9135 3.19223 0.0100032
1044 1 35.2659 17.6152 1.33724 0.0393198
1621 1 37.1287 15.8043 1.37134 0.0344278
1624 1 38.8842 15.9077 3.20604 0.0580771
946 1 38.8804 17.6157 1.50147 0.0353669
1625 1 40.6799 15.8905 1.39249 0.0720214
1627 1 40.5832 17.6533 3.16594 0.0199647
1628 1 42.3672 15.9111 3.16067 0.063572
1626 1 42.3183 17.688 1.4503 0.0195567
1631 1 1.76772 17.6027 3.19579 0.0373588
1677 1 1.75381 19.5043 1.4964 0.023567
1679 1 1.77808 21.1562 3.16506 0.032478
1587 1 5.39679 17.5796 3.29411 0.0614333
1633 1 5.30413 19.3496 1.46374 0.096664
1634 1 6.92557 21.2131 1.47399 0.00786245
1680 1 3.5342 19.3065 3.19185 0.0457173
1591 1 8.76987 17.5627 3.28968 0.100136
1636 1 7.05708 19.4074 3.29535 0.0278779
1637 1 8.68313 19.4055 1.51947 0.0343696
1638 1 10.4596 21.1918 1.51784 0.0223953
1639 1 8.73299 21.2193 3.28282 0.032273
1640 1 10.5465 19.3623 3.15626 0.0657045
1596 1 12.2162 17.5788 3.26043 0.0381916
1641 1 12.25 19.3954 1.50596 0.0196246
1643 1 12.2528 21.0684 3.21823 0.0223675
975 1 17.6303 17.6164 1.43565 0.0291112
1644 1 13.9309 19.3088 3.25005 0.0363429
1645 1 15.6901 19.425 1.48763 0.0191741
1647 1 15.7883 21.089 3.26704 0.034573
1648 1 17.5673 19.358 3.1975 0.0205993
1649 1 19.3565 19.3313 1.46436 0.0259092
1651 1 19.3393 21.1401 3.1916 0.0083287
1652 1 21.108 19.3219 3.17213 0.0170038
1606 1 24.6545 17.6302 1.48074 0.0244479
1650 1 24.6615 19.4271 3.20349 0.0350483
1653 1 22.8878 19.2657 1.44468 0.0144167
1655 1 22.794 21.1468 3.28869 0.00964766
1610 1 28.3225 17.6405 1.50005 0.0125878
1612 1 26.4163 17.587 3.22126 0.0897621
1657 1 26.4555 19.3735 1.49771 0.0214315
1658 1 28.2601 21.1426 1.53179 0.0379008
1660 1 28.1852 19.3908 3.27888 0.00670978
1661 1 30.0127 19.4333 1.44027 0.00721623
1618 1 33.5748 19.3944 1.52291 0.0195473
1664 1 31.7313 19.3382 3.21359 0.0364925
1667 1 33.5417 21.2096 3.30407 0.0217724
1623 1 37.0025 17.5807 3.11676 0.0520374
1668 1 35.3455 19.3761 3.16988 0.0380814
1669 1 37.0709 19.3465 1.45042 0.00355059
1670 1 38.8174 21.162 1.47086 0.109981
1671 1 37.077 21.0919 3.20744 0.0226283
1672 1 38.7995 19.412 3.22529 0.0207652
1673 1 40.517 19.4434 1.48931 0.0832863
1674 1 -0.0365991 21.3031 1.53704 0.0638644
1676 1 42.3367 19.4157 3.13569 0.00926935
1725 1 1.76777 23.008 1.47208 0.0154054
1635 1 5.30573 21.1215 3.26149 0.0336394
1678 1 3.62184 21.1521 1.47344 0.000512045
1681 1 5.26188 22.9218 1.59596 0.0409809
1683 1 5.19669 24.6718 3.22831 0.0648356
1728 1 3.51541 22.895 3.12042 0.0186511
1684 1 6.98191 22.9279 3.29932 0.0138958
1685 1 8.72563 23.0359 1.51546 0.0183133
1642 1 14.0036 21.1005 1.42453 0.00922578
1688 1 10.4902 22.995 3.27582 0.139286
1689 1 12.2634 22.9075 1.54911 0.0582742
1690 1 14.0122 24.7055 1.45474 0.0281972
1692 1 14.0438 22.8982 3.16085 0.0104371
1072 1 15.752 22.876 1.33841 0.0360653
1695 1 15.8318 24.5522 3.21496 0.0225292
1696 1 17.4225 22.7785 3.21261 0.0305515
1027 1 21.026 22.7646 3.2277 0.0505545
1076 1 19.6501 21.2367 52.8589 0.0586688
1693 1 17.6252 21.0841 1.43608 0.012882
1697 1 17.6805 24.5054 1.44789 0.00268494
1698 1 20.9248 24.5659 1.37191 0.0147113
1699 1 19.3313 24.4045 3.26667 0.0156406
1654 1 24.5539 21.1644 1.48511 0.0222836
1701 1 22.7271 22.8507 1.45851 0.00789194
1702 1 24.5429 24.5891 1.51981 0.016598
1703 1 22.7285 24.5504 3.22788 0.0539585
1704 1 24.6191 22.8436 3.19171 0.00376201
1659 1 26.3801 21.1283 3.15008 0.0347109
1705 1 26.458 22.9135 1.35115 0.0340681
1706 1 28.2686 24.5226 1.46336 0.0182309
1707 1 26.3949 24.5112 3.21553 0.0013675
1708 1 28.1724 22.9015 3.31768 0.0255185
1663 1 30.0072 21.1197 3.20534 0.0472156
1709 1 30.1332 22.9756 1.48816 0.0160933
1711 1 30.0054 24.638 3.2296 0.0149932
1662 1 31.8395 21.0481 1.42074 0.0328479
1665 1 35.4288 21.109 1.44766 0.0317206
1710 1 31.8085 24.6803 1.35003 0.0403388
1712 1 31.7962 22.7849 3.14907 0.0772105
1713 1 33.6589 22.9182 1.39863 0.0240799
1715 1 33.6761 24.5715 3.28699 0.0133382
1666 1 37.2282 23.0029 1.57168 0.0470367
1714 1 35.4593 24.6689 1.35624 0.0311323
1716 1 35.3904 22.8687 3.20577 0.0269778
1719 1 37.1791 24.6536 3.22952 0.0427048
1720 1 38.8714 22.8693 3.25958 0.0173806
1675 1 40.5421 21.1252 3.24044 0.0221036
1721 1 40.4973 22.9247 1.46815 0.0208949
1722 1 -0.0497184 24.7081 1.41017 0.0478491
1724 1 0.0509272 22.9119 3.29588 0.00456107
1152 1 1.74085 26.4282 1.35101 0.0647812
1726 1 3.55799 24.7219 1.40453 0.0190904
1727 1 1.87029 24.7347 3.18322 0.0228056
1775 1 1.75443 28.2815 3.14208 0.00780779
1776 1 3.50388 26.4794 3.18849 0.010891
1729 1 5.21202 26.3705 1.40386 0.0200849
1732 1 6.99218 26.4844 3.2169 0.0670624
1773 1 3.53012 28.1471 1.35517 0.0373811
2353 1 5.30028 28.2801 3.20314 0.047977
1682 1 6.98396 24.6922 1.53591 0.0196872
1687 1 8.69519 24.7258 3.22022 0.0312416
1733 1 8.84239 26.4281 1.44774 0.0286519
1686 1 10.4936 24.7656 1.41829 0.0700892
1736 1 10.4659 26.401 3.25308 0.00972016
1737 1 12.2391 26.3932 1.34029 0.0353003
1738 1 14.0953 28.1359 1.4758 0.0439271
1740 1 14.0887 26.3157 3.20505 0.0304351
1741 1 15.837 26.2153 1.4132 0.056157
1068 1 19.4014 28.146 3.38824 0.0322518
1694 1 17.5791 26.1792 3.23467 0.054723
1746 1 20.6673 27.6365 1.48301 0.00864773
1748 1 20.9433 26.1309 3.428 0.0273564
1749 1 22.6753 26.1733 1.48794 0.00385842
1750 1 24.0408 27.9674 1.44475 0.0263369
1751 1 22.5185 27.8306 3.33568 0.0747152
1752 1 24.7 26.395 3.30383 0.0778205
1753 1 26.5128 26.0971 1.33819 0.00438305
1756 1 28.1517 26.1983 3.20961 0.0367338
1759 1 26.2011 28.2324 1.78905 0.00452618
1136 1 30.0473 26.2938 1.35006 0.0056529
1754 1 28.4478 28.1098 0.886522 0.0217795
1758 1 30.3319 27.7756 3.08376 0.00182407
1139 1 32.0314 28.025 1.37508 0.0728578
1760 1 32.0351 26.2956 3.23882 0.00463753
1761 1 33.6533 26.2321 1.45397 0.0201355
1763 1 33.677 28.0306 3.21143 0.0111937
1764 1 35.3543 26.3617 3.18074 0.0512505
1143 1 38.7642 28.2095 1.42088 0.0881562
1765 1 37.1834 26.449 1.44731 0.0277081
1768 1 38.9446 26.3409 3.1953 0.0216924
1717 1 38.8204 24.7671 1.44251 0.0413732
1718 1 40.5956 26.6132 1.55978 0.0635575
1723 1 40.5352 24.6245 3.20503 0.0326112
1766 1 42.3498 26.5585 3.22429 0.0587521
1770 1 -0.0108335 28.2558 1.44395 0.051919
1818 1 -0.00777235 31.6792 1.49439 0.0388964
1821 1 1.79004 29.9761 1.41013 0.0321436
1822 1 3.49761 31.7159 1.53372 0.0433867
1824 1 3.58046 29.9549 3.19513 0.0716976
1730 1 7.00732 28.2074 1.55028 0.0517251
1777 1 5.30797 30.0261 1.4676 0.0330093
1778 1 7.06487 31.7072 1.50138 0.0258359
1780 1 7.05782 30.0337 3.26368 0.0421603
1735 1 8.76201 28.2507 3.32423 0.0469392
1781 1 8.777 29.9281 1.52755 0.012532
1782 1 10.5577 31.6867 1.42823 0.0402445
1783 1 8.8579 31.6468 3.34464 0.0121752
1734 1 10.4383 28.1049 1.48742 0.0234022
1739 1 12.2828 28.1043 3.18138 0.0390305
1784 1 10.5999 29.853 3.20748 0.0422615
1785 1 12.2372 29.9088 1.44927 0.00884575
1743 1 15.8787 28.0724 3.1534 0.011583
1788 1 14.0813 29.8665 3.15687 0.0115447
1789 1 15.8418 29.9352 1.49861 0.00281815
1791 1 15.8379 31.676 3.26807 0.015019
1742 1 17.6675 28.0172 1.54955 0.0347569
1790 1 17.5786 31.7026 1.39633 0.0366006
1792 1 17.6013 29.9025 3.1923 0.0436109
1793 1 19.3742 29.868 1.48832 0.00687278
1795 1 19.2896 31.7109 3.35394 0.0399559
1755 1 24.0831 29.4809 3.36646 0.00367312
1796 1 21.0551 29.9908 3.52439 0.0195011
1797 1 22.2156 29.4385 1.54632 0.00621496
1799 1 22.7397 31.5527 1.92783 0.0379427
1800 1 24.725 31.6249 3.36496 0.0217447
1801 1 24.6998 30.4105 1.34851 0.0508904
1808 1 26.3912 30.0453 3.03052 0.0321302
2382 1 26.8714 30.0679 0.515985 0.0181012
1757 1 28.1902 28.5902 3.10066 0.0298952
1805 1 30.2477 29.8818 1.32128 0.0193917
2426 1 28.4457 30.9246 2.58737 0.0541894
1181 1 32.1349 29.9336 2.99312 0.0229071
1806 1 33.7687 29.9537 1.31634 0.0736303
1810 1 35.2595 29.952 3.20763 0.0665556
1762 1 35.3496 27.9825 1.39852 0.0907039
1767 1 37.0456 28.1786 3.20872 0.0372774
1813 1 36.9665 29.9937 1.51595 0.0270572
1815 1 36.9484 31.7611 3.29705 0.0124512
1816 1 38.6558 29.9526 3.24237 0.0376247
1147 1 40.5478 30.0346 1.41457 0.022389
1814 1 38.7828 31.7649 1.45673 0.00819531
1817 1 40.4874 31.5821 3.22735 0.0399113
1820 1 42.2431 29.9143 3.19618 0.0201916
1823 1 1.70375 31.6081 3.30412 0.0731331
1866 1 42.2781 35.2336 1.47896 0.00934557
1869 1 1.76786 33.4228 1.47311 0.024435
1871 1 1.706 35.2051 3.15573 0.0262598
1872 1 3.55322 33.4937 3.19158 0.00413651
1779 1 5.29226 31.799 3.27455 0.0194203
1825 1 5.36125 33.5236 1.48872 0.0783983
1826 1 7.01041 35.1716 1.38412 0.0158641
1827 1 5.31122 35.1556 3.19869 0.00424226
1828 1 7.06198 33.4543 3.23246 0.104759
1829 1 8.89216 33.4111 1.44988 0.00409004
1830 1 10.6036 35.1965 1.44126 0.0560108
1831 1 8.84105 35.2014 3.16155 0.0335251
1832 1 10.5912 33.4185 3.21099 0.0101654
1787 1 12.3512 31.6235 3.13091 0.0463009
1833 1 12.2721 33.4447 1.45046 0.0286006
1834 1 14.0273 35.1889 1.57885 0.116516
1835 1 12.2104 35.2048 3.30821 0.0199756
1786 1 14.0509 31.6016 1.45299 0.0183805
1836 1 14.0581 33.405 3.25522 0.00320567
1837 1 15.8867 33.3381 1.51304 0.00778153
1839 1 15.7478 35.2246 3.24729 0.0313399
1214 1 19.2567 35.3007 3.25003 0.0278222
1794 1 20.7298 31.8773 1.26975 0.0930276
1840 1 17.5953 33.501 3.15798 0.030867
1841 1 19.2773 33.7141 1.41153 0.0174525
1798 1 24.5591 32.9026 1.41201 0.0158114
1843 1 20.9798 33.5118 3.35857 0.0029834
1845 1 22.499 33.9242 1.28058 0.0124061
1846 1 24.4768 35.3604 1.61826 0.0161906
1848 1 23.4788 33.6374 3.4353 0.0397197
1803 1 25.6882 33.7756 3.43942 0.0197806
1804 1 26.5448 32.0475 1.9124 0.0353267
1849 1 26.5105 34.2079 1.19623 0.00947052
1183 1 28.4372 31.8355 0.550495 0.0460944
1807 1 30.5322 31.9047 2.74029 0.0365255
1852 1 28.5113 33.4492 2.48399 0.00960858
1853 1 30.3123 33.5633 1.10409 0.00882
1855 1 29.9747 35.3597 3.04614 0.0254882
1184 1 32.1321 31.8315 1.22908 0.0201875
1236 1 35.2484 31.8293 1.46162 0.0200931
1811 1 33.5433 31.8637 3.19937 0.0254215
1856 1 31.8271 33.7609 3.11294 0.0246714
1857 1 33.5797 33.7093 1.39341 0.00788185
1860 1 35.2746 33.6549 3.16546 0.0107948
1861 1 37.0475 33.4669 1.43301 0.0245968
1863 1 37.0625 35.3503 3.07071 0.00687355
1864 1 38.818 33.4444 3.17271 0.0221511
1819 1 40.5811 35.2633 3.22892 0.0915726
1865 1 40.5074 33.508 1.46814 0.0507547
1868 1 42.2208 33.42 3.17071 0.0304082
1293 1 1.71882 36.9814 1.46242 0.0389287
1296 1 3.4978 36.896 3.29613 0.0272591
1870 1 3.5378 35.2938 1.47442 0.0493743
1249 1 5.25403 37.0149 1.43315 0.0562321
1250 1 7.04231 38.7451 1.40449 0.0167016
1251 1 5.27056 38.7442 3.18594 0.0468358
1252 1 6.98548 36.9533 3.12101 0.0121426
1253 1 8.83306 36.9633 1.37268 0.0316681
1255 1 8.81634 38.8102 3.09247 0.0312748
1256 1 10.5843 36.9955 3.22121 0.0345332
1257 1 12.2803 36.9086 1.55009 0.010314
1259 1 12.2776 38.7455 3.26177 0.0521276
640 1 17.4908 35.3434 1.44857 0.000245395
1260 1 14.08 37.0341 3.24583 0.00586091
1261 1 15.681 37.0255 1.50875 0.0642552
1263 1 15.7166 38.8304 3.20728 0.00809071
1264 1 17.5288 37.1141 3.22964 0.0561787
1312 1 17.5615 38.8498 1.43392 0.0917599
1265 1 19.1652 37.1288 1.38594 0.035046
1268 1 20.8072 37.2355 3.22692 0.0784625
1842 1 20.8399 35.5834 1.33488 0.0147379
1269 1 22.7876 37.1563 1.26188 0.0479977
1271 1 22.7741 38.7144 3.191 0.0387279
1847 1 22.5164 35.7573 3.11811 0.0195963
1272 1 24.6045 37.1234 3.25824 0.0141005
1273 1 26.3542 37.1953 1.39717 0.000619873
1275 1 26.4509 38.7585 3.18498 0.0129217
1851 1 26.7011 35.5908 3.20451 0.04909
1276 1 28.4261 37.268 3.07432 0.0216406
1277 1 30.1027 37.2688 1.26308 0.0705721
1850 1 28.3715 35.5422 1.36675 0.0318801
1280 1 31.8397 37.1572 3.14736 0.0647143
1281 1 33.5124 37.1939 1.34407 0.0132693
1284 1 35.2967 37.0808 3.18677 0.0160696
1854 1 31.8899 35.4663 1.34535 0.00198076
1859 1 33.6695 35.4821 3.20001 0.0226329
1285 1 37.028 37.1722 1.39054 0.0644948
1288 1 38.7921 37.0402 3.1131 0.0722855
1858 1 35.2892 35.421 1.41157 0.0296789
1862 1 38.9457 35.2789 1.36778 0.10174
664 1 38.7767 38.7446 1.35384 0.0558335
1290 1 -0.0617797 38.6925 1.4104 0.0345158
1292 1 42.3163 36.9668 3.22542 0.0397693
1867 1 40.646 36.9889 1.51246 0.0245282
668 1 1.75454 38.7306 3.15895 0.0383012
1294 1 3.5643 38.693 1.50483 0.0059229
1341 1 1.85593 40.4513 1.4318 0.0378332
1344 1 3.5139 40.4575 3.23883 0.0237054
1297 1 5.24076 40.4433 1.44456 0.0569059
1300 1 7.03574 42.2458 1.41047 0.0200849
1922 1 7.01502 40.4972 3.25246 0.00572126
1254 1 10.6201 38.7533 1.50479 0.144653
1301 1 8.83316 40.5238 1.4084 0.0291418
1303 1 8.83754 42.3156 3.16849 0.0647164
1258 1 14.0041 38.6587 1.43919 0.0344247
1304 1 10.5186 40.5637 3.23425 0.00995026
1305 1 12.2988 40.5205 1.36528 0.056958
1307 1 12.3244 42.2993 3.25303 0.0844065
1308 1 13.98 40.6431 3.17399 0.0328174
1309 1 15.7108 40.4964 1.40747 0.0014504
1310 1 17.5191 42.4299 1.43536 0.0345659
1311 1 17.4226 40.5532 3.21731 0.0390682
1357 1 15.8513 42.373 3.22311 0.0797917
688 1 19.2611 42.272 3.23539 0.0665037
1262 1 21.0871 40.4806 3.19623 0.0564609
1266 1 21.0024 38.8553 1.47799 0.0239591
1267 1 19.1569 38.9513 3.23366 0.0378702
1886 1 19.3548 40.6747 1.4565 0.0496815
1319 1 22.7838 42.295 3.24232 0.061189
1320 1 22.8257 40.5888 1.32706 0.063103
1270 1 24.5427 38.8873 1.37241 0.0272185
1317 1 26.3592 40.5633 1.35785 0.0933799
1318 1 24.6192 42.4016 1.5325 0.0264918
1321 1 28.2955 40.5624 3.16771 0.0461102
1322 1 28.1747 42.3328 1.4547 0.0291547
1945 1 24.5733 40.4547 3.2542 0.0545275
1274 1 28.146 38.9762 1.34798 0.0366739
1279 1 30.1044 38.9803 3.1052 0.0208046
1325 1 30.0558 40.6776 1.52499 0.120262
1328 1 31.8537 40.7148 3.2963 0.0365831
1278 1 31.8191 39.0789 1.42451 0.0173268
1283 1 33.6424 38.8629 3.1343 0.026117
1329 1 33.5966 40.6188 1.45548 0.00673727
1330 1 35.3291 42.3945 1.32411 0.0206559
1282 1 35.3466 38.8354 1.31724 0.0448101
1286 1 38.7838 40.5167 3.12588 0.0562701
1287 1 36.9704 38.9046 3.18486 0.0517571
1332 1 35.3628 40.684 3.09487 0.0119887
1333 1 37.0806 40.6416 1.37228 0.0369259
1335 1 37.1867 42.358 3.1797 0.00287186
1291 1 40.5991 38.8407 3.10968 0.0741123
1337 1 40.4926 40.5976 1.27421 0.0253862
1340 1 42.3181 40.4853 3.10329 0.027531
762 1 3.54716 42.2479 1.41867 0.0109935
1343 1 1.73198 42.3282 3.15934 0.0200856
1389 1 1.70397 44.0593 1.43347 0.0187651
1390 1 3.50655 45.8068 1.45425 0.0186253
1391 1 1.71897 45.7848 3.23437 0.0561243
1392 1 3.52572 44.0803 3.11659 0.019985
721 1 5.33189 44.0235 1.51939 0.00533883
1299 1 5.26216 42.2857 3.21241 0.0151268
1347 1 5.12521 45.7843 3.29725 0.0084703
144 1 8.81303 44.0808 1.49727 0.0304944
1298 1 10.6013 44.0693 3.24884 0.0354581
1346 1 7.00004 -0.046466 1.54889 0.00745833
1348 1 7.05742 44.033 3.19456 0.0496595
1351 1 8.77165 45.7645 3.29224 0.00831238
1302 1 10.5467 42.2782 1.48222 0.0330813
1306 1 13.9566 42.2736 1.37359 0.0559676
1350 1 14.1319 45.8706 1.44266 0.0169471
1353 1 12.2926 44.081 1.40513 0.0280725
1355 1 12.3336 45.821 3.18999 0.0119652
2025 1 13.9869 43.9998 3.24307 0.0237605
1358 1 15.7706 44.1416 1.42667 0.0464973
1412 1 17.5144 0.0380712 1.42377 0.0295305
743 1 21.122 -0.142195 1.45706 0.0107197
1313 1 21.0975 42.3908 1.38283 0.00352303
1315 1 19.26 44.1327 1.43456 0.00261608
1360 1 17.5753 44.0544 3.23039 0.0175018
1363 1 19.4128 -0.0371379 3.1557 0.051008
1364 1 21.0886 43.9738 3.23559 0.00545488
1365 1 22.8526 44.077 1.43462 0.0464983
1366 1 24.5289 -0.066616 1.49361 0.0458634
1367 1 22.8561 45.7413 3.29247 0.0230608
745 1 26.3601 44.0408 1.42962 0.00676959
1323 1 26.3739 42.3264 3.11867 0.108018
1368 1 24.5836 43.9836 3.30081 0.0194196
1370 1 28.1404 43.9911 3.17133 0.0611252
1326 1 31.8313 42.2442 1.36154 0.0542682
1327 1 29.9766 42.3214 3.19889 0.0297815
1373 1 29.973 43.9491 1.39561 0.0184593
1331 1 33.5929 42.327 3.18553 0.0128016
1376 1 31.7655 44.0908 3.09019 0.014738
1377 1 33.537 44.1511 1.41899 0.0176818
1379 1 33.4986 0.0991077 3.19337 0.0684918
1380 1 35.3436 44.1574 3.23478 0.0373093
1378 1 37.049 44.1803 1.47995 0.103087
1383 1 37.0022 0.0323849 3.23359 0.00857481
1384 1 38.7908 44.23 3.19395 0.0675959
1425 1 35.3173 45.846 1.47111 0.0404403
1334 1 40.6984 44.1856 1.29107 0.0333709
1338 1 42.2772 42.3005 1.41908 0.0330238
1339 1 40.5238 42.3289 3.1912 0.0203308
1381 1 38.8558 42.5679 1.51026 0.0397814
1388 1 -0.12251 44.2166 3.12307 0.00943214
2061 1 1.68142 1.74968 5.02717 0.0216934
2063 1 1.76282 3.4746 6.78734 0.00457869
2064 1 3.40712 1.75125 6.69022 0.0379872
1971 1 5.22721 45.7741 6.7298 0.054435
2017 1 5.29951 1.69725 4.93161 0.0187358
2019 1 5.27309 3.39562 6.67328 0.00678257
2020 1 7.04687 1.75301 6.76426 0.0130009
1975 1 8.83519 45.8348 6.7741 0.0235418
2021 1 8.75332 1.68581 5.02155 0.0130164
2024 1 10.5766 1.65672 6.71082 0.0908174
1974 1 12.3507 1.88667 4.97514 0.0195638
1979 1 12.3763 45.91 6.67191 0.0240394
2027 1 12.2747 3.53911 6.6585 0.0722893
2028 1 14.1099 1.82829 6.65134 0.00321021
2026 1 14.1153 3.56482 4.89592 0.0306843
2029 1 15.7617 45.8527 6.76296 0.0114132
2031 1 15.7852 3.59465 6.58799 0.0967985
2032 1 15.9623 1.7011 4.91828 0.0200289
1978 1 17.6287 3.45359 4.94256 0.0538241
1987 1 19.2562 1.74419 4.9342 0.0508341
2034 1 21.0311 3.46876 4.94213 0.0767438
2035 1 19.3836 3.51682 6.67788 0.0153109
2606 1 17.5614 1.83141 6.75089 0.0158779
2036 1 21.1093 1.73442 6.74222 0.0245207
2037 1 22.7765 1.71173 4.97184 0.0936166
2039 1 22.9471 3.47733 6.70747 0.00864857
2040 1 24.6489 1.7583 6.88006 0.02149
1419 1 28.0915 3.52519 4.90969 0.0185265
1994 1 28.0703 45.8268 4.85358 0.0540824
2041 1 26.392 1.74841 4.89115 0.0181378
1998 1 31.6022 45.9006 4.92546 0.0317956
2044 1 28.1105 1.7055 6.64161 0.0506016
2045 1 29.7736 1.83441 4.9558 0.00860104
2047 1 29.8532 3.50763 6.7132 0.0467095
2003 1 33.5405 45.7721 6.72706 0.0720683
2048 1 31.6729 1.69361 6.65576 0.00280989
2049 1 33.5076 1.77993 4.95904 0.113526
2051 1 33.5348 3.57472 6.68973 0.0420951
2002 1 35.3116 45.9224 5.10472 0.0456612
2052 1 35.257 1.81041 6.90091 0.0173232
2053 1 36.972 1.70642 5.04566 0.0602917
2056 1 38.8395 1.78697 6.78393 0.00310592
2010 1 42.308 45.8122 4.87889 0.0535351
2011 1 40.6821 45.8518 6.68603 0.0264861
2054 1 38.7232 3.34591 4.95306 0.0148717
2057 1 40.5723 1.79553 4.86582 0.00426217
2059 1 40.6317 3.57871 6.76278 0.0170499
2060 1 -0.0909059 1.81405 6.66588 0.047743
2062 1 3.46692 3.45176 4.95524 0.0299786
2109 1 1.74046 5.2255 4.88104 0.0561569
2111 1 1.72148 6.98784 6.63795 0.0293612
2065 1 5.32344 5.25042 5.10076 0.0939912
2066 1 7.05479 7.07307 4.92956 0.0162964
2068 1 7.02614 5.2466 6.74106 0.0181133
2112 1 3.42194 5.2094 6.71076 0.0082481
1395 1 7.12751 3.46612 5.06062 0.00766453
2018 1 8.80492 3.47715 6.85494 0.0155808
2023 1 10.4394 3.46459 5.01103 0.0129813
2069 1 8.73414 5.31775 4.97735 0.075842
2072 1 10.5657 5.30487 6.67436 0.0316983
2073 1 12.3237 5.27024 4.88177 0.00515285
2076 1 14.0548 5.29063 6.78787 0.011321
2077 1 15.851 5.29015 5.02126 0.0345877
2079 1 15.7891 7.10035 6.7989 0.00313231
2030 1 17.6206 5.38957 6.74498 0.0734101
2078 1 17.5733 7.11513 4.95716 0.00925692
2081 1 19.2824 5.24657 4.949 0.0210585
2083 1 19.4026 7.04028 6.69119 0.0343775
2084 1 21.1008 5.22195 6.68629 0.00592045
2038 1 24.6409 3.36947 5.02511 0.001358
2082 1 21.108 6.95791 4.99003 0.0425065
2085 1 22.9899 5.27228 4.88674 0.0050904
2086 1 24.6891 7.09298 4.91777 0.0677008
2088 1 24.6272 5.36177 6.65844 0.0192927
2042 1 26.3335 5.27789 4.95356 0.0440727
2089 1 26.4572 7.08523 6.68457 0.0339855
2713 1 26.332 3.5901 6.76488 0.0900652
1418 1 31.7717 6.9449 5.00075 0.00629673
2046 1 31.7295 3.46878 4.90067 0.0235857
2092 1 28.2021 5.30625 6.77683 0.00979491
2093 1 29.9388 5.18549 4.83959 0.0258583
2095 1 29.9856 6.99908 6.65825 0.0285627
2096 1 31.6843 5.24615 6.65841 0.0290773
2097 1 33.4425 5.30189 4.96116 0.0167683
2100 1 35.2507 5.28739 6.74043 0.117927
2144 1 33.5098 7.06324 6.72588 0.0161237
1483 1 38.7976 7.13982 4.93102 0.0559469
2050 1 35.1966 3.50736 5.01848 0.00628594
2055 1 37.1125 3.53518 6.73708 0.00888982
2101 1 38.8354 5.19066 6.65994 0.0448741
2102 1 37.0219 5.28805 4.93291 0.038384
2058 1 -0.0133919 3.48442 4.97261 0.0298371
2104 1 40.522 6.98006 6.71051 0.0125513
2105 1 40.5354 5.16283 4.94786 0.0508901
2106 1 42.3804 6.90165 4.9943 0.0669323
2108 1 42.2849 5.22488 6.71804 0.0396105
2110 1 3.4679 6.96815 4.96405 0.0132786
2115 1 3.53745 10.5057 4.92171 0.024279
2157 1 1.75636 8.80784 4.8846 0.000878305
2159 1 1.70475 10.529 6.76699 0.0205721
2067 1 5.23901 7.01386 6.65673 0.0267081
2113 1 5.28615 8.87727 5.00404 0.0238901
2116 1 6.95449 8.81642 6.7247 0.00177339
2160 1 3.5932 8.75477 6.7315 0.00968255