        3999
Lattice="  35.4000   0.0000   0.0000   0.0000  35.4000   0.0000   0.0000   0.0000  35.4000 " Time=0.000E+00  Step=0  Energy=-17786.883  Barrier=0.000
Ni     0.35415759    0.35409934    0.35413128       1
Ni     2.12426764    2.12412366    0.35424291       2
Ni     2.12424312    0.35418426    2.12418426       3
Ni     0.35402224    2.12403139    2.12404542       4
Ni     3.89445474    0.35431585    0.35440940       5
Ni     5.66466448    2.12436388    0.35466448       6
Ni     5.66471417    0.35459797    2.12459797       7
Ni     3.89441675    2.12424528    2.12435899       8
Ni     7.43459797    0.35459797    0.35471417       9
Ni     9.20452892    2.12452892    0.35472539      10
Ni     9.20479147    0.35510254    2.12510254      11
Ni     7.43510254    2.12479147    2.12510254      12
Ni    10.97427858    0.35475973    0.35482138      13
Ni    12.74400000    2.12401748    0.35381172      14
Ni    12.74400000    0.35581906    2.12581906      15
Ni    10.97473933    2.12529520    2.12549773      16
Ni    14.51372142    0.35475973    0.35482138      17
Ni    16.28347108    2.12452892    0.35472539      18
Ni    16.28320853    0.35510254    2.12510254      19
Ni    14.51326067    2.12529520    2.12549773      20
Ni     0.35407160    3.89401994    0.35407927      21
Ni     2.12416980    5.66400000    0.35417504      22
Ni     2.12403108    3.89402503    2.12407745      23
Ni     0.35399054    5.66400000    2.12402650      24
Ni     3.89449019    3.89412241    0.35446524      25
Ni     5.66489558    5.66400000    0.35489558      26
Ni     5.66482138    3.89427858    2.12475973      27
Ni     3.89412229    5.66400000    2.12417209      28
Ni     7.43475973    3.89427858    0.35482138      29
Ni     9.20401748    5.66400000    0.35381172      30
Ni     9.20529520    3.89473933    2.12549773      31
Ni     7.43581906    5.66400000    2.12581906      32
Ni    10.97391719    3.89391719    0.35355432      33
Ni    12.74400000    5.66400000    0.35367654      34
Ni    12.74400000    3.89339927    2.12258528      35
Ni    10.97339927    5.66400000    2.12258528      36
Ni    14.51408281    3.89391719    0.35355432      37
Ni    16.28398252    5.66400000    0.35381172      38
Ni    16.28270480    3.89473933    2.12549773      39
Ni    14.51460073    5.66400000    2.12258528      40
Ni     0.35407160    7.43398006    0.35407927      41
Ni     2.12426764    9.20387634    0.35424291      42
Ni     2.12403108    7.43397497    2.12407745      43
Ni     0.35402224    9.20396861    2.12404542      44
Ni     3.89449019    7.43387759    0.35446524      45
Ni     5.66466448    9.20363612    0.35466448      46
Ni     5.66482138    7.43372142    2.12475973      47
Ni     3.89441675    9.20375472    2.12435899      48
Ni     7.43475973    7.43372142    0.35482138      49
Ni     9.20452892    9.20347108    0.35472539      50
Ni     9.20529520    7.43326067    2.12549773      51
Ni     7.43510254    9.20320853    2.12510254      52
Ni    10.97391719    7.43408281    0.35355432      53
Ni    12.74400000    9.20398252    0.35381172      54
Ni    12.74400000    7.43460073    2.12258528      55
Ni    10.97473933    9.20270480    2.12549773      56
Ni    14.51408281    7.43408281    0.35355432      57
Ni    16.28347108    9.20347108    0.35472539      58
Ni    16.28270480    7.43326067    2.12549773      59
Ni    14.51326067    9.20270480    2.12549773      60
Ni     0.35415759   10.97390066    0.35413128      61
Ni     2.12429863   12.74376365    0.35423635      62
Ni     2.12424312   10.97381574    2.12418426      63
Ni     0.35415759   12.74386872    2.12409934      64
Ni     3.89445474   10.97368415    0.35440940      65
Ni     5.66447342   12.74352658    0.35447342      66
Ni     5.66471417   10.97340203    2.12459797      67
Ni     3.89445474   12.74359060    2.12431585      68
Ni     7.43459797   10.97340203    0.35471417      69
Ni     9.20436388   12.74333552    0.35466448      70
Ni     9.20479147   10.97289746    2.12510254      71
Ni     7.43459797   12.74328583    2.12459797      72
Ni    10.97427858   10.97324027    0.35482138      73
Ni    12.74400000   12.74310442    0.35489558      74
Ni    12.74400000   10.97218094    2.12581906      75
Ni    10.97427858   12.74317862    2.12475973      76
Ni    14.51372142   10.97324027    0.35482138      77
Ni    16.28363612   12.74333552    0.35466448      78
Ni    16.28320853   10.97289746    2.12510254      79
Ni    14.51372142   12.74317862    2.12475973      80
Ni     0.35419332   14.51383483    0.35413402      81
Ni     2.12422605   16.28377395    0.35416109      82
Ni     2.12429224   14.51372825    2.12416790      83
Ni     0.35418605   16.28382375    2.12409157      84
Ni     3.89433571   14.51366429    0.35428156      85
Ni     5.66423635   16.28370137    0.35423635      86
Ni     5.66440940   14.51354526    2.12431585      87
Ni     3.89427175   16.28370776    2.12416790      88
Ni     7.43431585   14.51354526    0.35440940      89
Ni     9.20412366   16.28373236    0.35424291      90
Ni     9.20424528   14.51358325    2.12435899      91
Ni     7.43418426   16.28375688    2.12418426      92
Ni    10.97412241   14.51350981    0.35446524      93
Ni    12.74400000   16.28383020    0.35417504      94
Ni    12.74400000   14.51387771    2.12417209      95
Ni    10.97402503   16.28396892    2.12407745      96
Ni    14.51387759   14.51350981    0.35446524      97
Ni    16.28387634   16.28373236    0.35424291      98
Ni    16.28375472   14.51358325    2.12435899      99
Ni    14.51397497   16.28396892    2.12407745     100
Ni     0.35402224    0.35404542    3.89403139     101
Ni     2.12397647    2.12403891    3.89403891     102
Ni     2.12403108    0.35407745    5.66402503     103
Ni     0.35395160    2.12400977    5.66400707     104
Ni     3.89441675    0.35435899    3.89424528     105
Ni     5.66472539    2.12452892    3.89452892     106
Ni     5.66482138    0.35475973    5.66427858     107
Ni     3.89389587    2.12403379    5.66401172     108
Ni     7.43510254    0.35510254    3.89479147     109
Ni     9.20585434    2.12585434    3.89585434     110
Ni     9.20529520    0.35549773    5.66473933     111
Ni     7.43549773    2.12529520    5.66473933     112
Ni    10.97473933    0.35549773    3.89529520     113
Ni    12.74400000    2.12827793    3.89827793     114
Ni    12.74400000    0.35258528    5.66339927     115
Ni    10.97643392    2.12688758    5.66643392     116
Ni    14.51326067    0.35549773    3.89529520     117
Ni    16.28214566    2.12585434    3.89585434     118
Ni    16.28270480    0.35549773    5.66473933     119
Ni    14.51156608    2.12688758    5.66643392     120
Ni     0.35395160    3.89400707    3.89400977     121
Ni     2.12392367    5.66400000    3.89401732     122
Ni     2.12389276    3.89400745    5.66400745     123
Ni     0.35391912    5.66400000    5.66400034     124
Ni     3.89389587    3.89401172    3.89403379     125
Ni     5.66381172    5.66400000    3.89401748     126
Ni     5.66355432    3.89391719    5.66391719     127
Ni     3.89381381    5.66400000    5.66400196     128
Ni     7.43549773    3.89473933    3.89529520     129
Ni     9.20827793    5.66400000    3.89827793     130
Ni     9.20688758    3.89643392    5.66643392     131
Ni     7.43258528    5.66400000    5.66339927     132
Ni    10.97643392    3.89643392    3.89688758     133
Ni    12.74400000    5.66400000    3.88487634     134
Ni    12.74400000    3.90380997    5.67380997     135
Ni    10.98380997    5.66400000    5.67380997     136
Ni    14.51156608    3.89643392    3.89688758     137
Ni    16.27972207    5.66400000    3.89827793     138
Ni    16.28111242    3.89643392    5.66643392     139
Ni    14.50419003    5.66400000    5.67380997     140
Ni     0.35395160    7.43399293    3.89400977     141
Ni     2.12397647    9.20396109    3.89403891     142
Ni     2.12389276    7.43399255    5.66400745     143
Ni     0.35395160    9.20399023    5.66400707     144
Ni     3.89389587    7.43398828    3.89403379     145
Ni     5.66472539    9.20347108    3.89452892     146
Ni     5.66355432    7.43408281    5.66391719     147
Ni     3.89389587    9.20396621    5.66401172     148
Ni     7.43549773    7.43326067    3.89529520     149
Ni     9.20585434    9.20214566    3.89585434     150
Ni     9.20688758    7.43156608    5.66643392     151
Ni     7.43549773    9.20270480    5.66473933     152
Ni    10.97643392    7.43156608    3.89688758     153
Ni    12.74400000    9.19972207    3.89827793     154
Ni    12.74400000    7.42419003    5.67380997     155
Ni    10.97643392    9.20111242    5.66643392     156
Ni    14.51156608    7.43156608    3.89688758     157
Ni    16.28214566    9.20214566    3.89585434     158
Ni    16.28111242    7.43156608    5.66643392     159
Ni    14.51156608    9.20111242    5.66643392     160
Ni     0.35402224   10.97395458    3.89403139     161
Ni     2.12426764   12.74375709    3.89412366     162
Ni     2.12403108   10.97392255    5.66402503     163
Ni     0.35407160   12.74392073    5.66401994     164
Ni     3.89441675   10.97364101    3.89424528     165
Ni     5.66466448   12.74333552    3.89436388     166
Ni     5.66482138   10.97324027    5.66427858     167
Ni     3.89449019   12.74353476    5.66412241     168
Ni     7.43510254   10.97289746    3.89479147     169
Ni     9.20452892   12.74327461    3.89452892     170
Ni     9.20529520   10.97250227    5.66473933     171
Ni     7.43475973   12.74317862    5.66427858     172
Ni    10.97473933   10.97250227    3.89529520     173
Ni    12.74400000   12.74418828    3.89401748     174
Ni    12.74400000   10.97541472    5.66339927     175
Ni    10.97391719   12.74444568    5.66391719     176
Ni    14.51326067   10.97250227    3.89529520     177
Ni    16.28347108   12.74327461    3.89452892     178
Ni    16.28270480   10.97250227    5.66473933     179
Ni    14.51408281   12.74444568    5.66391719     180
Ni     0.35417894   14.51383697    3.89406565     181
Ni     2.12425964   16.28374036    3.89409074     182
Ni     2.12430743   14.51370680    5.66405918     183
Ni     0.35419474   16.28381467    5.66403074     184
Ni     3.89441217   14.51358783    3.89417745     185
Ni     5.66424291   16.28373236    3.89412366     186
Ni     5.66446524   14.51350981    5.66412241     187
Ni     3.89429320   16.28369257    5.66405918     188
Ni     7.43435899   14.51358325    3.89424528     189
Ni     9.20403891   16.28402353    3.89403891     190
Ni     9.20403379   14.51410413    5.66401172     191
Ni     7.43407745   16.28396892    5.66402503     192
Ni    10.97401172   14.51410413    3.89403379     193
Ni    12.74400000   16.28407633    3.89401732     194
Ni    12.74400000   14.51418619    5.66400196     195
Ni    10.97400745   16.28410724    5.66400745     196
Ni    14.51398828   14.51410413    3.89403379     197
Ni    16.28396109   16.28402353    3.89403891     198
Ni    16.28396621   14.51410413    5.66401172     199
Ni    14.51399255   16.28410724    5.66400745     200
Ni     0.35399054    0.35402650    7.43400000     201
Ni     2.12392367    2.12401732    7.43400000     202
Ni     2.12403108    0.35407745    9.20397497     203
Ni     0.35395160    2.12400977    9.20399293     204
Ni     3.89412229    0.35417209    7.43400000     205
Ni     5.66381172    2.12401748    7.43400000     206
Ni     5.66482138    0.35475973    9.20372142     207
Ni     3.89389587    2.12403379    9.20398828     208
Ni     7.43581906    0.35581906    7.43400000     209
Ni     9.20827793    2.12827793    7.43400000     210
Ni     9.20529520    0.35549773    9.20326067     211
Ni     7.43549773    2.12529520    9.20326067     212
Ni    10.97339927    0.35258528    7.43400000     213
Ni    12.74400000    2.11487634    7.43400000     214
Ni    12.74400000    0.35258528    9.20460073     215
Ni    10.97643392    2.12688758    9.20156608     216
Ni    14.51460073    0.35258528    7.43400000     217
Ni    16.27972207    2.12827793    7.43400000     218
Ni    16.28270480    0.35549773    9.20326067     219
Ni    14.51156608    2.12688758    9.20156608     220
Ni     0.35391912    3.89400034    7.43400000     221
Ni     2.12386641    5.66400000    7.43400000     222
Ni     2.12389276    3.89400745    9.20399255     223
Ni     0.35391912    5.66400000    9.20399966     224
Ni     3.89381381    3.89400196    7.43400000     225
Ni     5.66367654    5.66400000    7.43400000     226
Ni     5.66355432    3.89391719    9.20408281     227
Ni     3.89381381    5.66400000    9.20399804     228
Ni     7.43258528    3.89339927    7.43400000     229
Ni     9.19487634    5.66400000    7.43400000     230
Ni     9.20688758    3.89643392    9.20156608     231
Ni     7.43258528    5.66400000    9.20460073     232
Ni    10.98380997    3.90380997    7.43400000     233
Ni    12.74400000    3.90380997    9.19419003     234
Ni    10.98380997    5.66400000    9.19419003     235
Ni    14.50419003    3.90380997    7.43400000     236
Ni    16.29312366    5.66400000    7.43400000     237
Ni    16.28111242    3.89643392    9.20156608     238
Ni    14.50419003    5.66400000    9.19419003     239
Ni     0.35391912    7.43399966    7.43400000     240
Ni     2.12392367    9.20398268    7.43400000     241
Ni     2.12389276    7.43399255    9.20399255     242
Ni     0.35395160    9.20399023    9.20399293     243
Ni     3.89381381    7.43399804    7.43400000     244
Ni     5.66381172    9.20398252    7.43400000     245
Ni     5.66355432    7.43408281    9.20408281     246
Ni     3.89389587    9.20396621    9.20398828     247
Ni     7.43258528    7.43460073    7.43400000     248
Ni     9.20827793    9.19972207    7.43400000     249
Ni     9.20688758    7.43156608    9.20156608     250
Ni     7.43549773    9.20270480    9.20326067     251
Ni    10.98380997    7.42419003    7.43400000     252
Ni    12.74400000    9.21312366    7.43400000     253
Ni    12.74400000    7.42419003    9.19419003     254
Ni    10.97643392    9.20111242    9.20156608     255
Ni    14.50419003    7.42419003    7.43400000     256
Ni    16.27972207    9.19972207    7.43400000     257
Ni    16.28111242    7.43156608    9.20156608     258
Ni    14.51156608    9.20111242    9.20156608     259
Ni     0.35399054   10.97397350    7.43400000     260
Ni     2.12416980   12.74382496    7.43400000     261
Ni     2.12403108   10.97392255    9.20397497     262
Ni     0.35407160   12.74392073    9.20398006     263
Ni     3.89412229   10.97382791    7.43400000     264
Ni     5.66489558   12.74310442    7.43400000     265
Ni     5.66482138   10.97324027    9.20372142     266
Ni     3.89449019   12.74353476    9.20387759     267
Ni     7.43581906   10.97218094    7.43400000     268
Ni     9.20401748   12.74418828    7.43400000     269
Ni     9.20529520   10.97250227    9.20326067     270
Ni     7.43475973   12.74317862    9.20372142     271
Ni    10.97339927   10.97541472    7.43400000     272
Ni    12.74400000   12.74432346    7.43400000     273
Ni    12.74400000   10.97541472    9.20460073     274
Ni    10.97391719   12.74444568    9.20408281     275
Ni    14.51460073   10.97541472    7.43400000     276
Ni    16.28398252   12.74418828    7.43400000     277
Ni    16.28270480   10.97250227    9.20326067     278
Ni    14.51408281   12.74444568    9.20408281     279
Ni     0.35414629   14.51386214    7.43400000     280
Ni     2.12428896   16.28371104    7.43400000     281
Ni     2.12430743   14.51370680    9.20394082     282
Ni     0.35419474   16.28381467    9.20396926     283
Ni     3.89449171   14.51350829    7.43400000     284
Ni     5.66417504   16.28383020    7.43400000     285
Ni     5.66446524   14.51350981    9.20387759     286
Ni     3.89429320   16.28369257    9.20394082     287
Ni     7.43417209   14.51387771    7.43400000     288
Ni     9.20401732   16.28407633    7.43400000     289
Ni     9.20403379   14.51410413    9.20398828     290
Ni     7.43407745   16.28396892    9.20397497     291
Ni    10.97400196   14.51418619    7.43400000     292
Ni    12.74400000   16.28413359    7.43400000     293
Ni    12.74400000   14.51418619    9.20399804     294
Ni    10.97400745   16.28410724    9.20399255     295
Ni    14.51399804   14.51418619    7.43400000     296
Ni    16.28398268   16.28407633    7.43400000     297
Ni    16.28396621   14.51410413    9.20398828     298
Ni    14.51399255   16.28410724    9.20399255     299
Ni     0.35402224    0.35404542   10.97396861     300
Ni     2.12397647    2.12403891   10.97396109     301
Ni     2.12424312    0.35418426   12.74381574     302
Ni     0.35402224    2.12403139   12.74395458     303
Ni     3.89441675    0.35435899   10.97375472     304
Ni     5.66472539    2.12452892   10.97347108     305
Ni     5.66471417    0.35459797   12.74340203     306
Ni     3.89441675    2.12424528   12.74364101     307
Ni     7.43510254    0.35510254   10.97320853     308
Ni     9.20585434    2.12585434   10.97214566     309
Ni     9.20479147    0.35510254   12.74289746     310
Ni     7.43510254    2.12479147   12.74289746     311
Ni    10.97473933    0.35549773   10.97270480     312
Ni    12.74400000    2.12827793   10.96972207     313
Ni    12.74400000    0.35581906   12.74218094     314
Ni    10.97473933    2.12529520   12.74250227     315
Ni    14.51326067    0.35549773   10.97270480     316
Ni    16.28214566    2.12585434   10.97214566     317
Ni    16.28320853    0.35510254   12.74289746     318
Ni    14.51326067    2.12529520   12.74250227     319
Ni     0.35395160    3.89400707   10.97399023     320
Ni     2.12392367    5.66400000   10.97398268     321
Ni     2.12403108    3.89402503   12.74392255     322
Ni     0.35399054    5.66400000   12.74397350     323
Ni     3.89389587    3.89401172   10.97396621     324
Ni     5.66381172    5.66400000   10.97398252     325
Ni     5.66482138    3.89427858   12.74324027     326
Ni     3.89412229    5.66400000   12.74382791     327
Ni     7.43549773    3.89473933   10.97270480     328
Ni     9.20827793    5.66400000   10.96972207     329
Ni     9.20529520    3.89473933   12.74250227     330
Ni     7.43581906    5.66400000   12.74218094     331
Ni    10.97643392    3.89643392   10.97111242     332
Ni    12.74400000    5.66400000   10.98312366     333
Ni    12.74400000    3.89339927   12.74541472     334
Ni    10.97339927    5.66400000   12.74541472     335
Ni    14.51156608    3.89643392   10.97111242     336
Ni    16.27972207    5.66400000   10.96972207     337
Ni    16.28270480    3.89473933   12.74250227     338
Ni    14.51460073    5.66400000   12.74541472     339
Ni     0.35395160    7.43399293   10.97399023     340
Ni     2.12397647    9.20396109   10.97396109     341
Ni     2.12403108    7.43397497   12.74392255     342
Ni     0.35402224    9.20396861   12.74395458     343
Ni     3.89389587    7.43398828   10.97396621     344
Ni     5.66472539    9.20347108   10.97347108     345
Ni     5.66482138    7.43372142   12.74324027     346
Ni     3.89441675    9.20375472   12.74364101     347
Ni     7.43549773    7.43326067   10.97270480     348
Ni     9.20585434    9.20214566   10.97214566     349
Ni     9.20529520    7.43326067   12.74250227     350
Ni     7.43510254    9.20320853   12.74289746     351
Ni    10.97643392    7.43156608   10.97111242     352
Ni    12.74400000    9.19972207   10.96972207     353
Ni    12.74400000    7.43460073   12.74541472     354
Ni    10.97473933    9.20270480   12.74250227     355
Ni    14.51156608    7.43156608   10.97111242     356
Ni    16.28214566    9.20214566   10.97214566     357
Ni    16.28270480    7.43326067   12.74250227     358
Ni    14.51326067    9.20270480   12.74250227     359
Ni     0.35402224   10.97395458   10.97396861     360
Ni     2.12426764   12.74375709   10.97387634     361
Ni     2.12424312   10.97381574   12.74381574     362
Ni     0.35415759   12.74386872   12.74390066     363
Ni     3.89441675   10.97364101   10.97375472     364
Ni     5.66466448   12.74333552   10.97363612     365
Ni     5.66471417   10.97340203   12.74340203     366
Ni     3.89445474   12.74359060   12.74368415     367
Ni     7.43510254   10.97289746   10.97320853     368
Ni     9.20452892   12.74327461   10.97347108     369
Ni     9.20479147   10.97289746   12.74289746     370
Ni     7.43459797   12.74328583   12.74340203     371
Ni    10.97473933   10.97250227   10.97270480     372
Ni    12.74400000   12.74418828   10.97398252     373
Ni    12.74400000   10.97218094   12.74218094     374
Ni    10.97427858   12.74317862   12.74324027     375
Ni    14.51326067   10.97250227   10.97270480     376
Ni    16.28347108   12.74327461   10.97347108     377
Ni    16.28320853   10.97289746   12.74289746     378
Ni    14.51372142   12.74317862   12.74324027     379
Ni     0.35417894   14.51383697   10.97393435     380
Ni     2.12425964   16.28374036   10.97390926     381
Ni     2.12429224   14.51372825   12.74383210     382
Ni     0.35418605   16.28382375   12.74390843     383
Ni     3.89441217   14.51358783   10.97382255     384
Ni     5.66424291   16.28373236   10.97387634     385
Ni     5.66440940   14.51354526   12.74368415     386
Ni     3.89427175   16.28370776   12.74383210     387
Ni     7.43435899   14.51358325   10.97375472     388
Ni     9.20403891   16.28402353   10.97396109     389
Ni     9.20424528   14.51358325   12.74364101     390
Ni     7.43418426   16.28375688   12.74381574     391
Ni    10.97401172   14.51410413   10.97396621     392
Ni    12.74400000   16.28407633   10.97398268     393
Ni    12.74400000   14.51387771   12.74382791     394
Ni    10.97402503   16.28396892   12.74392255     395
Ni    14.51398828   14.51410413   10.97396621     396
Ni    16.28396109   16.28402353   10.97396109     397
Ni    16.28375472   14.51358325   12.74364101     398
Ni    14.51397497   16.28396892   12.74392255     399
Ni     0.35415759    0.35409934   14.51386872     400
Ni     2.12426764    2.12412366   14.51375709     401
Ni     2.12429224    0.35416790   16.28372825     402
Ni     0.35417894    2.12406565   16.28383697     403
Ni     3.89445474    0.35431585   14.51359060     404
Ni     5.66466448    2.12436388   14.51333552     405
Ni     5.66440940    0.35431585   16.28354526     406
Ni     3.89441217    2.12417745   16.28358783     407
Ni     7.43459797    0.35459797   14.51328583     408
Ni     9.20452892    2.12452892   14.51327461     409
Ni     9.20424528    0.35435899   16.28358325     410
Ni     7.43435899    2.12424528   16.28358325     411
Ni    10.97427858    0.35475973   14.51317862     412
Ni    12.74400000    2.12401748   14.51418828     413
Ni    12.74400000    0.35417209   16.28387771     414
Ni    10.97401172    2.12403379   16.28410413     415
Ni    14.51372142    0.35475973   14.51317862     416
Ni    16.28347108    2.12452892   14.51327461     417
Ni    16.28375472    0.35435899   16.28358325     418
Ni    14.51398828    2.12403379   16.28410413     419
Ni     0.35407160    3.89401994   14.51392073     420
Ni     2.12416980    5.66400000   14.51382496     421
Ni     2.12430743    3.89405918   16.28370680     422
Ni     0.35414629    5.66400000   16.28386214     423
Ni     3.89449019    3.89412241   14.51353476     424
Ni     5.66489558    5.66400000   14.51310442     425
Ni     5.66446524    3.89412241   16.28350981     426
Ni     3.89449171    5.66400000   16.28350829     427
Ni     7.43475973    3.89427858   14.51317862     428
Ni     9.20401748    5.66400000   14.51418828     429
Ni     9.20403379    3.89401172   16.28410413     430
Ni     7.43417209    5.66400000   16.28387771     431
Ni    10.97391719    3.89391719   14.51444568     432
Ni    12.74400000    5.66400000   14.51432346     433
Ni    12.74400000    3.89400196   16.28418619     434
Ni    10.97400196    5.66400000   16.28418619     435
Ni    14.51408281    3.89391719   14.51444568     436
Ni    16.28398252    5.66400000   14.51418828     437
Ni    16.28396621    3.89401172   16.28410413     438
Ni    14.51399804    5.66400000   16.28418619     439
Ni     0.35407160    7.43398006   14.51392073     440
Ni     2.12426764    9.20387634   14.51375709     441
Ni     2.12430743    7.43394082   16.28370680     442
Ni     0.35417894    9.20393435   16.28383697     443
Ni     3.89449019    7.43387759   14.51353476     444
Ni     5.66466448    9.20363612   14.51333552     445
Ni     5.66446524    7.43387759   16.28350981     446
Ni     3.89441217    9.20382255   16.28358783     447
Ni     7.43475973    7.43372142   14.51317862     448
Ni     9.20452892    9.20347108   14.51327461     449
Ni     9.20403379    7.43398828   16.28410413     450
Ni     7.43435899    9.20375472   16.28358325     451
Ni    10.97391719    7.43408281   14.51444568     452
Ni    12.74400000    9.20398252   14.51418828     453
Ni    12.74400000    7.43399804   16.28418619     454
Ni    10.97401172    9.20396621   16.28410413     455
Ni    14.51408281    7.43408281   14.51444568     456
Ni    16.28347108    9.20347108   14.51327461     457
Ni    16.28396621    7.43398828   16.28410413     458
Ni    14.51398828    9.20396621   16.28410413     459
Ni     0.35415759   10.97390066   14.51386872     460
Ni     2.12429863   12.74376365   14.51376365     461
Ni     2.12429224   10.97383210   16.28372825     462
Ni     0.35419332   12.74386598   16.28383483     463
Ni     3.89445474   10.97368415   14.51359060     464
Ni     5.66447342   12.74352658   14.51352658     465
Ni     5.66440940   10.97368415   16.28354526     466
Ni     3.89433571   12.74371844   16.28366429     467
Ni     7.43459797   10.97340203   14.51328583     468
Ni     9.20436388   12.74333552   14.51333552     469
Ni     9.20424528   10.97364101   16.28358325     470
Ni     7.43431585   12.74359060   16.28354526     471
Ni    10.97427858   10.97324027   14.51317862     472
Ni    12.74400000   12.74310442   14.51310442     473
Ni    12.74400000   10.97382791   16.28387771     474
Ni    10.97412241   12.74353476   16.28350981     475
Ni    14.51372142   10.97324027   14.51317862     476
Ni    16.28363612   12.74333552   14.51333552     477
Ni    16.28375472   10.97364101   16.28358325     478
Ni    14.51387759   12.74353476   16.28350981     479
Ni     0.35419332   14.51383483   14.51386598     480
Ni     2.12422605   16.28377395   14.51383891     481
Ni     2.12424322   14.51378430   16.28378430     482
Ni     0.35416270   16.28384825   16.28386854     483
Ni     3.89433571   14.51366429   14.51371844     484
Ni     5.66423635   16.28370137   14.51376365     485
Ni     5.66428156   14.51366429   16.28366429     486
Ni     3.89421570   16.28375678   16.28378430     487
Ni     7.43431585   14.51354526   14.51359060     488
Ni     9.20412366   16.28373236   14.51375709     489
Ni     9.20417745   14.51358783   16.28358783     490
Ni     7.43416790   16.28370776   16.28372825     491
Ni    10.97412241   14.51350981   14.51353476     492
Ni    12.74400000   16.28383020   14.51382496     493
Ni    12.74400000   14.51350829   16.28350829     494
Ni    10.97405918   16.28369257   16.28370680     495
Ni    14.51387759   14.51350981   14.51353476     496
Ni    16.28387634   16.28373236   14.51375709     497
Ni    16.28382255   14.51358783   16.28358783     498
Ni    14.51394082   16.28369257   16.28370680     499
Ni     0.35418605    0.35409157   18.05382375     500
Ni     2.12425964    2.12409074   18.05374036     501
Ni     2.12417625    0.35409157   19.82381395     502
Ni     0.35416071    2.12404965   19.82383929     503
Ni     3.89427175    0.35416790   18.05370776     504
Ni     5.66424291    2.12412366   18.05373236     505
Ni     5.66413128    0.35409934   19.82384241     506
Ni     3.89416303    2.12406565   19.82382106     507
Ni     7.43418426    0.35418426   18.05375688     508
Ni     9.20403891    2.12403891   18.05402353     509
Ni     9.20403139    0.35404542   19.82397776     510
Ni     7.43404542    2.12403139   19.82397776     511
Ni    10.97402503    0.35407745   18.05396892     512
Ni    12.74400000    2.12401732   18.05407633     513
Ni    12.74400000    0.35402650   19.82400946     514
Ni    10.97400707    2.12400977   19.82404840     515
Ni    14.51397497    0.35407745   18.05396892     516
Ni    16.28396109    2.12403891   18.05402353     517
Ni    16.28396861    0.35404542   19.82397776     518
Ni    14.51399293    2.12400977   19.82404840     519
Ni     0.35419474    3.89403074   18.05381467     520
Ni     2.12428896    5.66400000   18.05371104     521
Ni     2.12418533    3.89403074   19.82380526     522
Ni     0.35417242    5.66400000   19.82382758     523
Ni     3.89429320    3.89405918   18.05369257     524
Ni     5.66417504    5.66400000   18.05383020     525
Ni     5.66407927    3.89401994   19.82392840     526
Ni     3.89413786    5.66400000   19.82385371     527
Ni     7.43407745    3.89402503   18.05396892     528
Ni     9.20401732    5.66400000   18.05407633     529
Ni     9.20400977    3.89400707   19.82404840     530
Ni     7.43402650    5.66400000   19.82400946     531
Ni    10.97400745    3.89400745   18.05410724     532
Ni    12.74400000    5.66400000   18.05413359     533
Ni    12.74400000    3.89400034   19.82408088     534
Ni    10.97400034    5.66400000   19.82408088     535
Ni    14.51399255    3.89400745   18.05410724     536
Ni    16.28398268    5.66400000   18.05407633     537
Ni    16.28399023    3.89400707   19.82404840     538
Ni    14.51399966    5.66400000   19.82408088     539
Ni     0.35419474    7.43396926   18.05381467     540
Ni     2.12425964    9.20390926   18.05374036     541
Ni     2.12418533    7.43396926   19.82380526     542
Ni     0.35416071    9.20395035   19.82383929     543
Ni     3.89429320    7.43394082   18.05369257     544
Ni     5.66424291    9.20387634   18.05373236     545
Ni     5.66407927    7.43398006   19.82392840     546
Ni     3.89416303    9.20393435   19.82382106     547
Ni     7.43407745    7.43397497   18.05396892     548
Ni     9.20403891    9.20396109   18.05402353     549
Ni     9.20400977    7.43399293   19.82404840     550
Ni     7.43404542    9.20396861   19.82397776     551
Ni    10.97400745    7.43399255   18.05410724     552