ITEM: TIMESTEP
0
ITEM: NUMBER OF ATOMS
74
ITEM: BOX BOUNDS xy xz yz pp pp pp
                     0.00000000000000e+00 1.06200000000000e+01 0.00000000000000e+00
0.00000000000000e+00	1.06200000000000e+01	0.00000000000000e+00
0.00000000000000e+00	1.06200000000000e+01	0.00000000000000e+00
ITEM: ATOMS id type x y z DisplacementX DisplacementY DisplacementZ
1 1 -5.275e+00 -1.748e+00 -9.072e-05 1.037e-02 3.627e-03 4.245e-04
2 1 -1.747e+00 -5.277e+00 4.171e-04 1.904e-03 1.196e-02 -1.766e-03
3 1 -3.497e+00 -3.495e+00 5.212e-04 -4.315e-03 -4.629e-03 -2.614e-04
4 1 1.772e+00 5.294e+00 7.454e-04 3.657e-03 3.699e-03 -2.123e-03
5 1 5.292e+00 1.773e+00 -2.330e-03 3.905e-03 2.524e-03 5.690e-05
6 1 1.255e-02 5.292e+00 1.761e+00 2.431e-03 3.948e-03 1.340e-03
7 1 1.383e-02 5.293e+00 -1.758e+00 1.633e-03 4.580e-03 3.992e-04
8 1 5.293e+00 1.151e-02 1.761e+00 3.525e-03 1.419e-03 2.055e-04
9 1 5.291e+00 1.082e-02 -1.760e+00 3.237e-03 2.373e-03 -3.575e-04
10 1 5.293e+00 -1.749e+00 -6.105e-04 1.217e-03 1.463e-03 -1.244e-03
11 1 -1.747e+00 5.293e+00 -8.848e-04 -7.643e-04 4.125e-03 -2.822e-04
12 1 -5.263e+00 1.766e+00 1.546e-03 -3.301e-03 7.258e-03 5.586e-04
13 1 1.765e+00 -5.261e+00 9.655e-04 9.116e-03 -5.581e-03 1.133e-04
14 1 -5.264e+00 9.386e-03 1.755e+00 -1.700e-03 5.905e-03 4.296e-03
15 1 -5.263e+00 8.514e-03 -1.757e+00 -2.799e-04 6.348e-03 -3.884e-03
16 1 8.097e-03 -5.265e+00 -1.757e+00 5.671e-03 -4.179e-03 -4.649e-03
17 1 1.081e-02 -5.263e+00 1.757e+00 5.899e-03 -1.005e-03 4.762e-03
18 1 3.530e+00 3.531e+00 -1.885e-03 1.035e-03 1.013e-03 -1.962e-04
19 1 -3.507e+00 3.535e+00 -1.758e-03 8.186e-03 -3.913e-03 -1.634e-04
20 1 3.535e+00 -3.509e+00 -2.961e-04 -4.853e-03 8.139e-03 1.210e-03
21 1 1.178e-02 3.529e+00 3.521e+00 4.000e-03 1.688e-03 -6.225e-03
22 1 1.010e-02 3.530e+00 -3.518e+00 3.715e-03 -1.892e-04 4.732e-03
23 1 3.530e+00 1.219e-02 3.519e+00 -9.689e-04 3.949e-03 -4.426e-03
24 1 3.531e+00 1.075e-02 -3.519e+00 8.566e-04 5.639e-03 4.915e-03
25 1 -3.507e+00 9.389e-03 3.516e+00 4.709e-03 4.718e-03 -1.373e-03
26 1 -3.504e+00 7.910e-03 -3.514e+00 6.555e-03 5.790e-03 1.516e-03
27 1 1.093e-02 -3.503e+00 3.515e+00 6.066e-03 6.149e-03 -4.790e-04
28 1 1.147e-02 -3.504e+00 -3.517e+00 6.087e-03 6.154e-03 2.492e-03
29 1 -3.495e+00 -1.745e+00 -1.748e+00 -3.223e-03 5.595e-03 -9.014e-03
30 1 -3.493e+00 -1.748e+00 1.748e+00 -4.790e-03 6.445e-03 1.068e-02
31 1 -1.747e+00 -3.494e+00 1.748e+00 5.342e-03 -4.621e-03 8.517e-03
32 1 -1.747e+00 -3.495e+00 -1.747e+00 7.351e-03 -5.688e-03 -1.180e-02
33 1 1.769e+00 3.530e+00 1.760e+00 1.791e-04 2.262e-03 -3.827e-03
34 1 1.772e+00 3.531e+00 -1.760e+00 2.131e-03 1.240e-03 4.372e-03
35 1 3.530e+00 1.771e+00 -1.760e+00 1.858e-03 3.090e-03 1.359e-03
36 1 3.530e+00 1.771e+00 1.757e+00 7.097e-04 1.530e-03 -3.076e-03
37 1 -1.749e+00 3.535e+00 1.759e+00 5.558e-03 -2.668e-03 -4.081e-03
38 1 -1.747e+00 3.534e+00 -1.761e+00 3.167e-03 -8.881e-04 5.167e-03
39 1 3.535e+00 -1.746e+00 -1.760e+00 -1.894e-03 5.046e-03 3.986e-03
40 1 3.535e+00 -1.746e+00 1.762e+00 -2.493e-03 3.784e-03 -3.545e-03
41 1 -3.505e+00 1.768e+00 -1.755e+00 2.075e-03 2.561e-03 3.764e-04
42 1 -3.504e+00 1.770e+00 1.759e+00 3.826e-03 3.167e-03 6.719e-05
43 1 1.769e+00 -3.505e+00 1.756e+00 2.692e-03 2.827e-03 1.651e-03
44 1 1.768e+00 -3.503e+00 -1.756e+00 3.892e-03 3.413e-03 9.167e-04
45 1 1.769e+00 1.773e+00 -3.519e+00 2.433e-03 3.562e-03 2.057e-03
46 1 1.769e+00 1.770e+00 3.517e+00 3.316e-03 3.874e-03 -3.013e-03
47 1 -1.747e+00 1.769e+00 -3.514e+00 7.590e-03 5.532e-03 -2.111e-03
48 1 -1.748e+00 1.770e+00 3.516e+00 4.766e-03 5.329e-03 1.627e-03
49 1 1.767e+00 -1.747e+00 3.515e+00 4.795e-03 5.496e-03 -7.889e-04
50 1 1.767e+00 -1.747e+00 -3.515e+00 4.532e-03 6.010e-03 -1.539e-03
51 1 -1.748e+00 -1.749e+00 -3.529e+00 6.567e-03 7.387e-03 1.186e-02
52 1 -1.748e+00 -1.747e+00 3.527e+00 6.763e-03 5.685e-03 -1.421e-02
53 1 -1.748e+00 1.237e-02 -5.280e+00 2.490e-03 5.069e-03 -3.334e-03
54 1 1.450e-02 -1.747e+00 -5.280e+00 3.327e-03 3.651e-03 -6.281e-04
55 1 1.210e-02 1.771e+00 -5.280e+00 7.216e-03 6.253e-03 -4.431e-04
56 1 1.768e+00 1.082e-02 -5.280e+00 8.690e-03 5.366e-03 -2.071e-03
57 1 -8.182e-04 -6.510e-04 3.033e-05 -1.732e+00 -1.732e+00 -1.625e-05
58 1 -3.494e+00 9.819e-04 -2.471e-04 -1.926e-02 1.488e-02 5.833e-04
59 1 2.323e-03 -3.494e+00 5.586e-04 1.696e-02 -1.747e-02 5.161e-04
60 1 -1.747e+00 2.469e-04 1.747e+00 1.531e-02 1.689e-02 -8.713e-04
61 1 -1.747e+00 -5.281e-04 -1.747e+00 1.688e-02 1.485e-02 1.318e-03
62 1 4.271e-04 -1.745e+00 -1.746e+00 1.709e-02 1.555e-02 2.015e-03
63 1 -4.119e-04 -1.747e+00 1.747e+00 1.656e-02 1.619e-02 2.189e-04
64 1 9.649e-03 1.098e-02 3.514e+00 6.539e-03 6.610e-03 1.289e-02
65 1 1.278e-02 9.502e-03 -3.515e+00 5.057e-03 8.094e-03 -1.435e-02
66 1 1.255e-02 3.532e+00 6.686e-04 1.582e-03 1.024e-02 3.315e-04
67 1 3.533e+00 1.209e-02 4.706e-04 1.140e-02 1.852e-03 -1.547e-03
68 1 1.766e+00 1.768e+00 -1.276e-03 -3.235e-03 -4.280e-03 -4.628e-04
69 1 1.211e-02 1.769e+00 -1.757e+00 6.355e-03 -5.898e-03 9.411e-03
70 1 1.067e-02 1.769e+00 1.756e+00 5.542e-03 -6.457e-03 -8.863e-03
71 1 1.770e+00 8.606e-03 1.758e+00 -5.784e-03 4.489e-03 -1.152e-02
72 1 1.769e+00 8.372e-03 -1.758e+00 -6.454e-03 6.915e-03 1.013e-02
73 1 -1.746e+00 1.782e+00 2.223e-04 1.476e-02 -1.689e-02 -1.590e-04
74 1 1.782e+00 -1.749e+00 -5.108e-05 -1.821e-02 1.526e-02 1.204e-03
ITEM: TIMESTEP
0
ITEM: NUMBER OF ATOMS
74
ITEM: BOX BOUNDS xy xz yz pp pp pp
                     0.00000000000000e+00 1.06200000000000e+01 0.00000000000000e+00
0.00000000000000e+00	1.06200000000000e+01	0.00000000000000e+00
0.00000000000000e+00	1.06200000000000e+01	0.00000000000000e+00
ITEM: ATOMS id type x y z DisplacementX DisplacementY DisplacementZ
75 1 -5.276e+00 1.566e-04 -1.746e+00 1.076e-02 1.588e-03 -6.468e-04
76 1 -3.497e+00 -1.585e-04 -3.497e+00 -5.305e-03 -7.545e-04 -7.851e-03
77 1 1.357e-02 -5.282e+00 -1.746e+00 1.059e-03 3.726e-04 9.188e-04
78 1 1.393e-02 5.285e+00 -1.748e+00 1.020e-03 1.406e-03 1.441e-03
79 1 -1.748e+00 -5.281e+00 1.409e-02 1.670e-03 -2.180e-04 6.978e-04
80 1 -1.747e+00 5.280e+00 1.294e-02 2.129e-03 1.365e-03 1.638e-03
81 1 -5.262e+00 2.537e-03 1.767e+00 -4.068e-03 -1.573e-03 5.984e-03
82 1 5.294e+00 1.415e-03 -1.748e+00 5.605e-04 7.179e-04 1.059e-03
83 1 5.293e+00 3.514e-04 1.775e+00 1.903e-03 -4.771e-05 2.922e-04
84 1 5.294e+00 -1.761e+00 1.549e-02 2.591e-03 -1.209e-03 1.479e-03
85 1 5.292e+00 1.759e+00 1.305e-02 2.831e-03 7.216e-04 9.599e-04
86 1 1.178e-02 5.277e+00 1.772e+00 3.704e-03 6.059e-03 2.749e-03
87 1 1.050e-02 -5.278e+00 1.773e+00 2.204e-03 -5.791e-03 2.956e-03
88 1 1.770e+00 -5.278e+00 1.337e-02 3.805e-03 -3.875e-03 1.330e-03
89 1 1.770e+00 5.278e+00 1.235e-02 4.024e-03 2.819e-03 6.718e-04
90 1 -5.263e+00 -1.758e+00 1.015e-02 -4.298e-03 -4.417e-03 3.233e-03
91 1 -5.264e+00 1.758e+00 9.523e-03 1.005e-03 4.211e-03 5.160e-03
92 1 -3.508e+00 -6.837e-04 3.533e+00 8.758e-03 1.218e-04 -3.898e-03
93 1 3.534e+00 1.053e-03 -3.507e+00 -5.641e-03 1.604e-03 8.097e-03
94 1 3.528e+00 2.858e-03 3.534e+00 7.442e-04 -6.100e-04 -2.409e-03
95 1 3.530e+00 3.519e+00 1.254e-02 -1.914e-03 -4.411e-03 2.228e-03
96 1 3.531e+00 -3.520e+00 1.032e-02 -2.603e-03 2.486e-03 2.673e-03
97 1 9.053e-03 -3.516e+00 3.533e+00 2.000e-03 2.257e-03 -3.761e-03
98 1 1.118e-02 3.518e+00 3.532e+00 3.857e-03 -1.306e-03 -2.754e-03
99 1 -3.505e+00 3.516e+00 9.922e-03 4.678e-03 -8.499e-04 5.345e-03
100 1 -3.503e+00 -3.515e+00 1.060e-02 4.259e-03 2.984e-03 5.669e-03
101 1 8.798e-03 -3.515e+00 -3.502e+00 4.660e-03 8.936e-04 4.190e-03
102 1 1.219e-02 3.517e+00 -3.503e+00 5.854e-03 -2.264e-03 4.357e-03
103 1 -1.749e+00 1.749e+00 -3.496e+00 5.032e-03 8.326e-03 -8.119e-03
104 1 -1.748e+00 -1.746e+00 -3.494e+00 3.678e-03 -9.929e-03 -6.362e-03
105 1 -3.494e+00 -1.748e+00 -1.747e+00 -7.537e-03 -8.011e-03 6.634e-03
106 1 -3.494e+00 1.747e+00 -1.748e+00 -7.012e-03 9.997e-03 5.600e-03
107 1 -1.747e+00 1.760e+00 3.534e+00 3.785e-03 -3.236e-03 -2.801e-03
108 1 -1.747e+00 -1.761e+00 3.532e+00 3.114e-03 4.835e-03 -1.927e-03
109 1 1.769e+00 1.759e+00 -3.504e+00 1.368e-03 -1.659e-05 2.319e-03
110 1 1.769e+00 -1.756e+00 -3.504e+00 3.153e-03 -1.840e-03 2.584e-03
111 1 1.770e+00 1.757e+00 3.533e+00 2.981e-03 -5.306e-04 -1.813e-03
112 1 1.769e+00 -1.758e+00 3.533e+00 1.431e-03 -1.628e-04 -1.521e-03
113 1 -3.504e+00 -1.756e+00 1.767e+00 4.186e-03 -1.250e-03 3.695e-03
114 1 -3.504e+00 1.758e+00 1.768e+00 3.082e-03 5.417e-04 1.518e-03
115 1 3.535e+00 -1.760e+00 -1.747e+00 -4.064e-03 4.145e-03 4.880e-03
116 1 3.534e+00 1.759e+00 -1.748e+00 -3.467e-03 -3.320e-03 5.365e-03
117 1 3.529e+00 -1.759e+00 1.771e+00 1.173e-03 1.356e-03 -1.279e-03
118 1 3.528e+00 1.759e+00 1.772e+00 9.132e-04 -9.575e-04 -1.493e-03
119 1 1.770e+00 -3.516e+00 1.771e+00 2.355e-03 -1.498e-05 -7.472e-04
120 1 1.769e+00 3.518e+00 1.772e+00 1.579e-03 1.019e-05 5.253e-04
121 1 -1.747e+00 3.515e+00 1.770e+00 5.184e-03 1.364e-03 4.472e-03
122 1 -1.747e+00 -3.514e+00 1.771e+00 4.901e-03 -2.134e-03 3.284e-03
123 1 1.769e+00 -3.515e+00 -1.747e+00 3.976e-03 -5.941e-04 4.223e-03
124 1 1.768e+00 3.512e+00 -1.747e+00 1.953e-03 2.105e-03 6.186e-03
125 1 -1.747e+00 -3.529e+00 -1.748e+00 4.487e-03 1.137e-02 4.425e-03
126 1 -1.747e+00 3.531e+00 -1.748e+00 4.931e-03 -1.404e-02 7.649e-03
127 1 -1.746e+00 -8.074e-04 -5.276e+00 -1.654e-03 8.484e-04 9.704e-03
128 1 1.767e+00 6.073e-04 -5.262e+00 1.065e-02 1.752e-04 -3.047e-03
129 1 1.048e-02 1.756e+00 -5.264e+00 4.931e-03 4.577e-03 -2.562e-03
130 1 8.657e-03 -1.759e+00 -5.263e+00 4.527e-03 -4.548e-03 -3.047e-03
131 1 1.496e-03 6.187e-04 -8.169e-04 -1.734e+00 7.574e-04 -1.734e+00
132 1 2.834e-04 -3.763e-04 -3.492e+00 1.387e-02 6.513e-05 -2.053e-02
133 1 -3.494e+00 -1.676e-04 1.634e-03 -1.890e-02 -6.450e-04 1.381e-02
134 1 -1.061e-03 1.748e+00 -1.748e+00 1.277e-02 -5.967e-04 1.389e-02
135 1 1.196e-04 -1.746e+00 -1.746e+00 1.375e-02 6.489e-04 1.497e-02
136 1 -1.748e+00 -1.747e+00 -7.159e-05 1.556e-02 -1.075e-03 1.575e-02
137 1 -1.746e+00 1.747e+00 9.215e-04 1.598e-02 2.811e-04 1.366e-02
138 1 9.568e-03 -3.519e+00 1.103e-02 5.173e-03 -1.179e-02 3.315e-03
139 1 9.811e-03 3.518e+00 9.411e-03 3.901e-03 1.302e-02 5.023e-03
140 1 1.402e-02 -1.275e-03 3.533e+00 1.746e-03 1.380e-05 1.082e-02
141 1 3.533e+00 -1.057e-03 1.307e-02 1.081e-02 1.241e-03 -5.179e-04
142 1 1.781e+00 -1.800e-04 -1.749e+00 -1.981e-02 1.382e-04 1.350e-02
143 1 -1.749e+00 1.923e-03 1.783e+00 1.381e-02 1.086e-03 -2.010e-02
144 1 1.768e+00 9.892e-05 1.766e+00 -5.071e-03 1.048e-03 -6.838e-03
145 1 9.734e-03 1.758e+00 1.768e+00 5.268e-03 -8.879e-03 -5.469e-03
146 1 9.438e-03 -1.757e+00 1.768e+00 5.104e-03 9.019e-03 -7.870e-03
147 1 1.769e+00 -1.757e+00 1.081e-02 -5.728e-03 9.263e-03 4.783e-03
148 1 1.769e+00 1.756e+00 1.002e-02 -9.887e-03 -1.084e-02 3.328e-03
ITEM: TIMESTEP
0
ITEM: NUMBER OF ATOMS
74
ITEM: BOX BOUNDS xy xz yz pp pp pp
                     0.00000000000000e+00 1.06200000000000e+01 0.00000000000000e+00
0.00000000000000e+00	1.06200000000000e+01	0.00000000000000e+00
0.00000000000000e+00	1.06200000000000e+01	0.00000000000000e+00
ITEM: ATOMS id type x y z DisplacementX DisplacementY DisplacementZ
149 1 2.425e-04 -5.278e+00 -1.746e+00 9.585e-04 1.133e-02 7.849e-04
150 1 -1.894e-04 -3.495e+00 -3.495e+00 8.445e-04 -5.261e-03 -6.789e-03
151 1 -5.283e+00 1.230e-02 -1.748e+00 2.907e-04 6.236e-04 2.086e-03
152 1 5.282e+00 1.178e-02 -1.747e+00 8.426e-05 9.152e-04 1.536e-03
153 1 -5.282e+00 -1.748e+00 1.392e-02 -3.693e-04 7.883e-04 6.000e-04
154 1 5.282e+00 -1.747e+00 1.379e-02 1.382e-03 1.982e-03 1.640e-03
155 1 1.445e-03 -5.263e+00 1.768e+00 4.610e-04 -6.711e-03 8.635e-03
156 1 -9.242e-04 5.291e+00 -1.747e+00 1.865e-04 1.874e-03 1.237e-03
157 1 1.133e-03 5.292e+00 1.775e+00 1.650e-03 2.626e-03 1.273e-03
158 1 -1.760e+00 5.291e+00 1.227e-02 -2.095e-03 1.216e-03 4.654e-04
159 1 1.760e+00 5.293e+00 1.310e-02 2.475e-03 3.844e-03 1.162e-03
160 1 5.278e+00 1.037e-02 1.775e+00 4.339e-03 3.825e-03 4.499e-03
161 1 -5.277e+00 1.256e-02 1.772e+00 -5.280e-03 3.304e-03 3.930e-03
162 1 -5.277e+00 1.770e+00 1.416e-02 -5.739e-03 3.014e-03 1.637e-03
163 1 5.279e+00 1.772e+00 1.167e-02 5.736e-03 3.683e-03 2.764e-03
164 1 -1.758e+00 -5.263e+00 9.601e-03 -3.570e-03 -4.088e-03 4.664e-03
165 1 1.757e+00 -5.265e+00 1.022e-02 3.225e-03 -1.426e-03 4.449e-03
166 1 -7.124e-04 -3.510e+00 3.532e+00 -2.609e-04 8.045e-03 -4.847e-03
167 1 2.812e-04 3.534e+00 -3.509e+00 -4.799e-04 -5.998e-03 8.273e-03
168 1 7.473e-04 3.529e+00 3.532e+00 1.152e-04 7.782e-04 -2.660e-03
169 1 3.518e+00 3.530e+00 1.097e-02 -3.119e-03 -1.459e-03 2.041e-03
170 1 -3.516e+00 3.531e+00 1.394e-02 1.973e-03 -1.678e-03 2.472e-03
171 1 -3.516e+00 9.286e-03 3.533e+00 2.192e-03 2.534e-03 -4.102e-03
172 1 3.517e+00 9.824e-03 3.534e+00 -2.335e-03 2.476e-03 -3.649e-03
173 1 3.515e+00 -3.503e+00 1.002e-02 -7.640e-04 5.270e-03 4.150e-03
174 1 -3.516e+00 -3.504e+00 1.132e-02 1.910e-03 2.771e-03 6.246e-03
175 1 -3.517e+00 9.258e-03 -3.503e+00 7.033e-04 2.406e-03 2.995e-03
176 1 3.518e+00 9.544e-03 -3.504e+00 -9.938e-04 4.183e-03 5.152e-03
177 1 1.747e+00 -1.748e+00 -3.494e+00 1.060e-02 6.353e-03 -7.384e-03
178 1 -1.746e+00 -1.747e+00 -3.493e+00 -1.021e-02 4.653e-03 -7.292e-03
179 1 -1.747e+00 -3.496e+00 -1.746e+00 -1.032e-02 -7.598e-03 3.553e-03
180 1 1.746e+00 -3.495e+00 -1.748e+00 1.063e-02 -6.986e-03 4.965e-03
181 1 1.760e+00 -1.747e+00 3.533e+00 -3.388e-03 3.924e-03 -1.269e-03
182 1 -1.760e+00 -1.748e+00 3.533e+00 3.649e-03 4.194e-03 -3.134e-03
183 1 1.756e+00 1.767e+00 -3.505e+00 2.727e-05 3.206e-03 2.533e-03
184 1 -1.755e+00 1.769e+00 -3.505e+00 8.758e-05 1.688e-03 1.029e-03
185 1 1.758e+00 1.771e+00 3.532e+00 -2.469e-04 1.594e-04 -2.694e-03
186 1 -1.756e+00 1.770e+00 3.534e+00 2.472e-04 2.092e-03 -3.290e-03
187 1 -1.759e+00 -3.507e+00 1.768e+00 6.615e-04 2.179e-03 1.081e-03
188 1 1.756e+00 -3.506e+00 1.770e+00 1.301e-03 2.094e-03 1.750e-03
189 1 -1.760e+00 3.533e+00 -1.745e+00 3.291e-03 -3.590e-03 3.567e-03
190 1 1.758e+00 3.535e+00 -1.746e+00 -3.620e-03 -4.498e-03 4.750e-03
191 1 -1.757e+00 3.530e+00 1.773e+00 4.327e-04 -1.056e-04 -1.085e-03
192 1 1.760e+00 3.530e+00 1.771e+00 -2.459e-03 1.593e-03 8.655e-05
193 1 -3.517e+00 1.770e+00 1.772e+00 -3.879e-04 1.319e-03 -1.131e-03
194 1 3.518e+00 1.771e+00 1.772e+00 8.630e-06 7.934e-04 6.961e-05
195 1 3.515e+00 -1.748e+00 1.767e+00 7.182e-04 3.889e-03 5.178e-03
196 1 -3.514e+00 -1.746e+00 1.769e+00 -3.683e-04 4.808e-03 4.102e-03
197 1 -3.513e+00 1.767e+00 -1.748e+00 -1.665e-03 3.554e-03 3.103e-03
198 1 3.515e+00 1.769e+00 -1.746e+00 3.807e-03 4.736e-03 4.702e-03
199 1 -3.529e+00 -1.747e+00 -1.749e+00 1.359e-02 4.233e-03 4.269e-03
200 1 3.530e+00 -1.747e+00 -1.746e+00 -1.270e-02 5.009e-03 3.715e-03
201 1 -9.756e-04 -1.747e+00 -5.277e+00 5.945e-04 -6.115e-04 1.104e-02
202 1 7.458e-04 1.768e+00 -5.261e+00 -1.130e-03 8.938e-03 -4.811e-03
203 1 1.757e+00 9.585e-03 -5.262e+00 3.963e-03 4.457e-03 -2.682e-03
204 1 -1.759e+00 8.245e-03 -5.264e+00 -3.968e-03 6.345e-03 -2.160e-03
205 1 -1.137e-03 3.336e-04 -3.302e-04 1.272e-03 -1.732e+00 -1.733e+00
206 1 -3.461e-05 1.086e-03 -3.494e+00 7.648e-04 1.583e-02 -2.036e-02
207 1 1.702e-03 -3.495e+00 -1.456e-05 -5.514e-04 -1.972e-02 1.812e-02
208 1 1.747e+00 1.053e-03 -1.746e+00 -5.813e-05 1.516e-02 1.318e-02
209 1 -1.747e+00 -6.841e-04 -1.747e+00 -2.213e-04 1.432e-02 1.532e-02
210 1 -1.746e+00 -1.745e+00 -1.919e-03 -6.513e-04 1.534e-02 1.332e-02
211 1 1.746e+00 -1.747e+00 -2.330e-03 1.908e-04 1.621e-02 1.569e-02
212 1 -3.515e+00 1.006e-02 1.077e-02 -1.202e-02 4.881e-03 5.433e-03
213 1 3.516e+00 1.006e-02 1.074e-02 1.309e-02 3.678e-03 3.926e-03
214 1 -7.118e-05 1.467e-02 3.533e+00 5.264e-04 1.312e-03 8.797e-03
215 1 1.271e-03 3.533e+00 1.452e-02 9.957e-04 7.861e-03 -6.242e-05
216 1 -2.598e-03 1.781e+00 -1.748e+00 1.457e-03 -2.132e-02 1.476e-02
217 1 1.357e-03 -1.747e+00 1.779e+00 1.461e-04 1.475e-02 -2.016e-02
218 1 7.087e-04 1.768e+00 1.769e+00 2.101e-04 -6.509e-03 -3.785e-03
219 1 1.758e+00 1.115e-02 1.768e+00 -1.088e-02 4.256e-03 -9.542e-03
220 1 -1.756e+00 9.085e-03 1.768e+00 8.808e-03 3.555e-03 -6.634e-03
221 1 -1.757e+00 1.768e+00 8.375e-03 1.178e-02 -6.455e-03 3.932e-03
222 1 1.756e+00 1.771e+00 9.578e-03 -9.922e-03 -7.176e-03 4.685e-03
ITEM: TIMESTEP
0
ITEM: NUMBER OF ATOMS
74
ITEM: BOX BOUNDS xy xz yz pp pp pp
                     0.00000000000000e+00 1.06200000000000e+01 0.00000000000000e+00
0.00000000000000e+00	1.06200000000000e+01	0.00000000000000e+00
0.00000000000000e+00	1.06200000000000e+01	0.00000000000000e+00
ITEM: ATOMS id type x y z DisplacementX DisplacementY DisplacementZ
223 1 1.354e-03 5.276e+00 1.748e+00 6.772e-05 -1.023e-02 -1.205e-03
224 1 -9.493e-04 3.494e+00 3.493e+00 -3.673e-04 5.333e-03 6.345e-03
225 1 -5.281e+00 -1.371e-02 1.748e+00 -1.233e-03 -6.363e-04 -6.292e-04
226 1 5.282e+00 -1.357e-02 1.748e+00 1.600e-03 -5.392e-04 -1.672e-04
227 1 -5.280e+00 1.747e+00 -1.350e-02 1.942e-05 -3.338e-03 4.655e-04
228 1 5.280e+00 1.747e+00 -1.380e-02 2.158e-03 -4.294e-04 -5.842e-06
229 1 -5.574e-04 5.262e+00 -1.768e+00 1.019e-03 4.224e-03 -8.718e-03
230 1 9.510e-04 -5.292e+00 1.746e+00 -1.790e-04 -2.116e-03 -2.564e-03
231 1 1.148e-03 -5.291e+00 -1.773e+00 4.810e-04 -2.157e-03 -9.999e-04
232 1 -1.761e+00 -5.292e+00 -1.500e-02 -2.325e-04 -1.756e-03 -7.079e-04
233 1 1.760e+00 -5.293e+00 -1.162e-02 6.326e-04 -2.898e-03 -1.867e-03
234 1 5.276e+00 -1.065e-02 -1.772e+00 3.831e-03 -2.215e-03 -2.881e-03
235 1 -5.280e+00 -1.286e-02 -1.771e+00 -6.138e-03 -3.143e-03 -5.114e-03
236 1 -5.278e+00 -1.773e+00 -1.198e-02 -2.534e-03 -1.941e-03 -3.941e-03
237 1 5.277e+00 -1.771e+00 -1.349e-02 5.376e-03 -2.243e-03 -4.260e-03
238 1 -1.758e+00 5.265e+00 -9.587e-03 -2.907e-03 4.235e-03 -4.588e-03
239 1 1.757e+00 5.263e+00 -1.086e-02 5.388e-03 1.500e-03 -5.728e-03
240 1 -7.569e-04 3.507e+00 -3.533e+00 2.801e-03 -8.332e-03 2.641e-03
241 1 -5.192e-04 -3.532e+00 3.508e+00 1.311e-03 5.111e-03 -6.846e-03
242 1 8.300e-04 -3.529e+00 -3.532e+00 1.151e-03 1.226e-03 2.658e-03
243 1 3.517e+00 -3.528e+00 -1.199e-02 -3.641e-03 2.145e-03 -2.342e-03
244 1 -3.518e+00 -3.531e+00 -1.170e-02 3.526e-03 1.053e-03 -2.592e-03
245 1 -3.516e+00 -1.044e-02 -3.532e+00 2.534e-03 -2.946e-03 2.375e-03
246 1 3.519e+00 -1.064e-02 -3.533e+00 -1.091e-03 -3.388e-03 5.919e-03
247 1 3.515e+00 3.505e+00 -1.017e-02 -1.142e-03 -5.605e-03 -3.284e-03
248 1 -3.517e+00 3.504e+00 -1.022e-02 -4.746e-04 -4.755e-03 -2.755e-03
249 1 -3.517e+00 -9.541e-03 3.505e+00 1.548e-03 -3.929e-03 -4.403e-03
250 1 3.514e+00 -9.634e-03 3.503e+00 -2.524e-03 -4.360e-03 -1.799e-03
251 1 1.745e+00 1.748e+00 3.495e+00 1.102e-02 -3.933e-03 8.564e-03
252 1 -1.748e+00 1.748e+00 3.491e+00 -1.012e-02 -4.337e-03 7.506e-03
253 1 -1.749e+00 3.494e+00 1.749e+00 -9.671e-03 7.267e-03 -3.380e-03
254 1 1.747e+00 3.494e+00 1.748e+00 9.045e-03 7.114e-03 -4.373e-03
255 1 1.760e+00 1.747e+00 -3.533e+00 -3.913e-03 -5.863e-03 2.939e-03
256 1 -1.759e+00 1.748e+00 -3.532e+00 4.902e-03 -4.881e-03 6.369e-04
257 1 1.756e+00 -1.770e+00 3.505e+00 4.333e-04 -6.246e-04 -8.682e-04
258 1 -1.758e+00 -1.768e+00 3.503e+00 -8.533e-04 -3.611e-03 -2.276e-03
259 1 1.757e+00 -1.769e+00 -3.534e+00 -2.513e-04 -2.611e-03 3.047e-04
260 1 -1.758e+00 -1.769e+00 -3.534e+00 1.406e-03 -1.482e-03 1.077e-03
261 1 -1.758e+00 3.505e+00 -1.768e+00 -2.931e-03 -1.175e-03 -1.537e-03
262 1 1.758e+00 3.504e+00 -1.768e+00 4.382e-04 -3.633e-03 -2.247e-03
263 1 -1.759e+00 -3.534e+00 1.747e+00 4.599e-03 3.666e-03 -4.755e-03
264 1 1.761e+00 -3.534e+00 1.747e+00 -3.583e-03 3.467e-03 -4.090e-03
265 1 -1.756e+00 -3.530e+00 -1.773e+00 1.296e-03 -1.630e-03 9.954e-04
266 1 1.758e+00 -3.530e+00 -1.772e+00 -2.515e-03 -1.163e-04 7.225e-05
267 1 -3.518e+00 -1.770e+00 -1.772e+00 -8.078e-05 2.973e-04 -4.318e-04
268 1 3.518e+00 -1.767e+00 -1.770e+00 -2.158e-04 -1.564e-03 -8.252e-04
269 1 3.516e+00 1.745e+00 -1.768e+00 1.773e-03 -5.434e-03 -3.390e-03
270 1 -3.516e+00 1.747e+00 -1.768e+00 -2.026e-03 -6.059e-03 -3.752e-03
271 1 -3.513e+00 -1.768e+00 1.747e+00 -1.591e-03 -4.697e-03 -5.253e-03
272 1 3.514e+00 -1.769e+00 1.748e+00 3.347e-03 -3.256e-03 -4.389e-03
273 1 -3.530e+00 1.746e+00 1.748e+00 1.409e-02 -4.151e-03 -4.054e-03
274 1 3.529e+00 1.746e+00 1.746e+00 -1.197e-02 -3.762e-03 -5.318e-03
275 1 3.495e-04 1.748e+00 5.276e+00 -6.859e-04 2.551e-04 -1.192e-02
276 1 -7.150e-04 -1.766e+00 5.261e+00 -6.751e-04 -8.114e-03 5.582e-03
277 1 1.758e+00 -1.047e-02 5.264e+00 5.089e-03 -4.467e-03 4.214e-03
278 1 -1.758e+00 -1.027e-02 5.263e+00 -4.395e-03 -3.471e-03 2.177e-03
279 1 3.053e-04 -1.408e-03 2.219e-03 1.085e-03 1.732e+00 1.733e+00
280 1 -8.913e-04 -2.111e-04 3.494e+00 2.976e-04 -1.430e-02 2.290e-02
281 1 -3.329e-04 3.495e+00 1.108e-04 -9.483e-05 2.092e-02 -1.375e-02
282 1 1.747e+00 -7.958e-04 1.748e+00 -7.289e-05 -1.602e-02 -1.439e-02
283 1 -1.749e+00 6.254e-04 1.747e+00 1.343e-03 -1.555e-02 -1.349e-02
284 1 -1.746e+00 1.749e+00 4.151e-06 -8.215e-04 -1.567e-02 -1.491e-02
285 1 1.748e+00 1.747e+00 3.508e-04 5.299e-04 -1.710e-02 -1.464e-02
286 1 -3.516e+00 -1.069e-02 -9.894e-03 -1.269e-02 -5.776e-03 -3.984e-03
287 1 3.518e+00 -9.000e-03 -1.111e-02 1.405e-02 -2.842e-03 -3.649e-03
288 1 -1.149e-03 -1.450e-02 -3.533e+00 -4.493e-04 1.852e-03 -1.114e-02
289 1 1.432e-03 -3.535e+00 -1.398e-02 -1.195e-03 -1.043e-02 -8.370e-04
290 1 8.900e-05 -1.781e+00 1.746e+00 -4.961e-04 2.085e-02 -1.400e-02
291 1 -6.140e-04 1.746e+00 -1.782e+00 -2.446e-04 -1.485e-02 1.992e-02
292 1 6.010e-04 -1.765e+00 -1.768e+00 -4.071e-04 6.244e-03 6.386e-03
293 1 1.757e+00 -7.843e-03 -1.768e+00 -9.351e-03 -5.633e-03 8.159e-03
294 1 -1.758e+00 -8.462e-03 -1.770e+00 8.851e-03 -2.795e-03 6.464e-03
295 1 -1.756e+00 -1.771e+00 -1.070e-02 9.154e-03 7.920e-03 -4.484e-03
296 1 1.756e+00 -1.771e+00 -9.171e-03 -1.037e-02 8.482e-03 -3.454e-03
ITEM: TIMESTEP
0
ITEM: NUMBER OF ATOMS
74
ITEM: BOX BOUNDS xy xz yz pp pp pp
                     0.00000000000000e+00 1.06200000000000e+01 0.00000000000000e+00
0.00000000000000e+00	1.06200000000000e+01	0.00000000000000e+00
0.00000000000000e+00	1.06200000000000e+01	0.00000000000000e+00
ITEM: ATOMS id type x y z DisplacementX DisplacementY DisplacementZ
297 1 5.276e+00 5.991e-04 1.747e+00 -1.076e-02 -8.484e-04 -2.975e-03
298 1 3.495e+00 -2.807e-04 3.494e+00 5.842e-03 -4.945e-04 7.775e-03
299 1 -1.281e-02 5.282e+00 1.746e+00 -1.074e-03 3.097e-03 -7.870e-04
300 1 -1.368e-02 -5.282e+00 1.748e+00 -1.289e-03 3.651e-04 -9.774e-04
301 1 1.747e+00 5.283e+00 -1.262e-02 -1.489e-03 1.551e-03 -1.800e-03
302 1 1.748e+00 -5.283e+00 -1.406e-02 -1.010e-03 -2.435e-03 -1.555e-04
303 1 5.263e+00 -5.525e-04 -1.768e+00 3.409e-03 -1.329e-03 -6.303e-03
304 1 -5.293e+00 1.803e-05 1.746e+00 -2.552e-03 -3.232e-04 1.695e-03
305 1 -5.292e+00 3.447e-04 -1.775e+00 -3.597e-03 -1.378e-04 1.699e-04
306 1 -5.291e+00 1.761e+00 -1.536e-02 -1.697e-03 2.281e-03 -3.779e-03
307 1 -5.292e+00 -1.760e+00 -1.429e-02 -1.620e-03 -1.362e-03 -1.414e-03
308 1 -1.168e-02 -5.280e+00 -1.772e+00 -2.774e-03 -4.763e-03 -3.669e-03
309 1 -1.170e-02 5.277e+00 -1.772e+00 -2.558e-03 4.649e-03 -2.304e-03
310 1 -1.771e+00 5.279e+00 -1.143e-02 -2.831e-03 4.604e-03 -3.487e-03
311 1 -1.770e+00 -5.276e+00 -1.336e-02 -2.362e-03 -5.904e-03 -3.426e-03
312 1 5.263e+00 1.758e+00 -9.405e-03 3.882e-03 3.611e-03 -4.270e-03
313 1 5.262e+00 -1.758e+00 -1.051e-02 2.751e-03 -4.441e-03 -5.518e-03
314 1 3.508e+00 1.063e-03 -3.533e+00 -8.605e-03 1.985e-04 4.332e-03
315 1 -3.533e+00 -1.023e-03 3.508e+00 6.567e-03 2.149e-04 -8.553e-03
316 1 -3.529e+00 5.977e-04 -3.532e+00 -1.489e-03 -8.074e-04 2.827e-03
317 1 -3.530e+00 -3.520e+00 -1.185e-02 2.116e-03 2.408e-03 -1.831e-03
318 1 -3.531e+00 3.518e+00 -1.096e-02 3.591e-03 -1.351e-03 -2.415e-03
319 1 -1.212e-02 3.517e+00 -3.533e+00 -3.097e-03 -3.615e-03 3.427e-03
320 1 -1.217e-02 -3.516e+00 -3.533e+00 -2.208e-03 2.053e-03 4.973e-03
321 1 3.505e+00 -3.516e+00 -9.181e-03 -4.732e-03 1.263e-03 -4.656e-03
322 1 3.504e+00 3.515e+00 -9.264e-03 -5.438e-03 -1.028e-03 -3.668e-03
323 1 -8.234e-03 3.517e+00 3.504e+00 -4.285e-03 4.899e-04 -2.494e-03
324 1 -1.006e-02 -3.517e+00 3.504e+00 -5.665e-03 -6.816e-04 -2.652e-03
325 1 1.747e+00 -1.747e+00 3.493e+00 -4.047e-03 -1.090e-02 7.270e-03
326 1 1.747e+00 1.748e+00 3.495e+00 -5.758e-03 8.421e-03 7.622e-03
327 1 3.493e+00 1.747e+00 1.747e+00 5.719e-03 9.954e-03 -5.439e-03
328 1 3.494e+00 -1.747e+00 1.747e+00 6.729e-03 -1.005e-02 -3.593e-03
329 1 1.746e+00 -1.761e+00 -3.532e+00 -3.884e-03 3.477e-03 6.196e-04
330 1 1.746e+00 1.761e+00 -3.533e+00 -6.213e-03 -4.323e-03 2.056e-03
331 1 -1.766e+00 -1.756e+00 3.505e+00 -1.522e-03 -2.715e-04 -1.610e-03
332 1 -1.768e+00 1.757e+00 3.503e+00 -3.742e-03 -1.221e-04 -3.089e-03
333 1 -1.772e+00 -1.760e+00 -3.534e+00 -1.329e-03 6.855e-04 2.618e-03
334 1 -1.770e+00 1.758e+00 -3.535e+00 -1.711e-03 -1.187e-04 1.865e-03
335 1 3.504e+00 1.756e+00 -1.769e+00 -9.817e-04 5.874e-04 -2.008e-03
336 1 3.505e+00 -1.757e+00 -1.771e+00 -2.500e-03 -1.467e-04 -4.074e-03
337 1 -3.533e+00 1.760e+00 1.746e+00 3.844e-03 -3.858e-03 -4.617e-03
338 1 -3.534e+00 -1.761e+00 1.748e+00 3.281e-03 4.774e-03 -5.419e-03
339 1 -3.530e+00 1.757e+00 -1.774e+00 8.789e-05 -7.439e-04 2.956e-03
340 1 -3.529e+00 -1.760e+00 -1.771e+00 -2.202e-03 8.737e-04 2.207e-04
341 1 -1.771e+00 3.518e+00 -1.772e+00 -1.223e-03 -5.868e-04 -5.586e-04
342 1 -1.769e+00 -3.517e+00 -1.773e+00 -1.179e-03 2.389e-03 5.558e-04
343 1 1.749e+00 -3.515e+00 -1.767e+00 -6.080e-03 -2.219e-03 -3.588e-03
344 1 1.749e+00 3.514e+00 -1.768e+00 -5.975e-03 2.092e-03 -4.350e-03
345 1 -1.766e+00 3.514e+00 1.747e+00 -3.605e-03 4.883e-04 -3.264e-03
346 1 -1.768e+00 -3.513e+00 1.746e+00 -2.702e-03 -2.053e-03 -5.152e-03
347 1 1.748e+00 3.531e+00 1.746e+00 -2.875e-03 -1.197e-02 -4.672e-03
348 1 1.746e+00 -3.528e+00 1.747e+00 -4.062e-03 1.222e-02 -4.982e-03
349 1 1.746e+00 -1.389e-03 5.275e+00 -2.494e-03 4.714e-06 -8.582e-03
350 1 -1.768e+00 -7.255e-04 5.262e+00 -1.011e-02 -1.121e-03 3.157e-03
351 1 -8.896e-03 -1.756e+00 5.264e+00 -5.406e-03 -4.895e-03 1.901e-03
352 1 -1.032e-02 1.757e+00 5.262e+00 -5.844e-03 4.562e-03 1.456e-03
353 1 1.124e-03 6.167e-04 5.545e-04 1.735e+00 1.471e-04 1.734e+00
354 1 -7.316e-04 -1.376e-03 3.495e+00 -1.460e-02 2.133e-04 2.002e-02
355 1 3.495e+00 3.221e-04 -1.804e-04 2.029e-02 3.392e-04 -1.474e-02
356 1 2.818e-04 -1.749e+00 1.746e+00 -1.441e-02 2.915e-05 -1.334e-02
357 1 3.895e-04 1.745e+00 1.746e+00 -1.438e-02 -1.878e-03 -1.485e-02
358 1 1.748e+00 1.745e+00 1.705e-03 -1.473e-02 8.437e-04 -1.351e-02
359 1 1.746e+00 -1.746e+00 -2.009e-03 -1.482e-02 2.455e-03 -1.414e-02
360 1 -1.063e-02 3.514e+00 -8.645e-03 -5.341e-03 1.237e-02 -4.598e-03
361 1 -1.103e-02 -3.516e+00 -1.087e-02 -5.542e-03 -1.363e-02 -5.516e-03
362 1 -1.412e-02 -6.669e-04 -3.532e+00 -5.854e-04 -2.788e-04 -1.177e-02
363 1 -3.533e+00 7.181e-04 -1.464e-02 -8.135e-03 -5.487e-04 -8.671e-04
364 1 -1.782e+00 -1.172e-03 1.746e+00 1.872e-02 1.580e-03 -1.409e-02
365 1 1.748e+00 5.511e-04 -1.782e+00 -1.541e-02 -1.082e-03 2.080e-02
366 1 -1.768e+00 -1.105e-03 -1.768e+00 5.683e-03 -1.021e-03 7.882e-03
367 1 -9.661e-03 -1.757e+00 -1.769e+00 -4.739e-03 9.445e-03 6.806e-03
368 1 -1.042e-02 1.757e+00 -1.769e+00 -4.238e-03 -9.757e-03 8.685e-03
369 1 -1.768e+00 1.755e+00 -1.156e-02 6.044e-03 -9.144e-03 -4.246e-03
370 1 -1.771e+00 -1.758e+00 -9.683e-03 5.054e-03 9.632e-03 -4.940e-03
ITEM: TIMESTEP
0
ITEM: NUMBER OF ATOMS
74
ITEM: BOX BOUNDS xy xz yz pp pp pp
                     0.00000000000000e+00 1.06200000000000e+01 0.00000000000000e+00
0.00000000000000e+00	1.06200000000000e+01	0.00000000000000e+00
0.00000000000000e+00	1.06200000000000e+01	0.00000000000000e+00
ITEM: ATOMS id type x y z DisplacementX DisplacementY DisplacementZ
371 1 -5.277e+00 -1.072e-03 1.746e+00 9.123e-03 6.148e-04 -1.323e-03
372 1 -3.495e+00 -8.393e-05 3.496e+00 -6.229e-03 -7.865e-04 6.888e-03
373 1 1.347e-02 5.282e+00 1.747e+00 1.579e-03 2.156e-04 1.348e-03
374 1 1.345e-02 -5.281e+00 1.747e+00 2.006e-03 -2.244e-03 -6.227e-04
375 1 -1.746e+00 5.280e+00 -1.458e-02 9.727e-04 5.921e-04 6.692e-04
376 1 -1.746e+00 -5.281e+00 -1.324e-02 1.667e-03 -1.730e-03 -3.928e-03
377 1 -5.260e+00 2.265e-03 -1.767e+00 -5.039e-03 -7.291e-04 -5.813e-03
378 1 5.290e+00 -2.655e-04 1.747e+00 3.373e-03 4.989e-04 -1.307e-03
379 1 5.292e+00 4.430e-04 -1.774e+00 3.356e-03 2.546e-03 -1.690e-03
380 1 5.294e+00 1.761e+00 -1.386e-02 3.020e-03 -1.509e-06 -6.730e-04
381 1 5.292e+00 -1.761e+00 -1.291e-02 2.756e-03 -1.043e-03 -5.788e-04
382 1 1.241e-02 -5.277e+00 -1.772e+00 2.790e-03 -5.108e-03 -4.168e-03
383 1 1.024e-02 5.277e+00 -1.772e+00 2.613e-03 3.112e-03 -1.329e-03
384 1 1.771e+00 5.279e+00 -1.217e-02 2.413e-03 4.609e-03 -1.313e-03
385 1 1.772e+00 -5.280e+00 -1.222e-02 4.298e-03 -3.352e-03 -1.881e-03
386 1 -5.264e+00 1.757e+00 -9.811e-03 -2.655e-03 3.955e-03 -3.746e-03
387 1 -5.265e+00 -1.758e+00 -9.586e-03 -1.837e-03 -3.463e-03 -2.179e-03
388 1 -3.507e+00 2.246e-05 -3.534e+00 8.323e-03 2.191e-04 3.412e-03
389 1 3.534e+00 2.518e-04 3.507e+00 -7.050e-03 -1.589e-03 -8.501e-03
390 1 3.529e+00 3.768e-05 -3.533e+00 -8.565e-04 -2.131e-03 3.155e-03
391 1 3.531e+00 -3.517e+00 -1.229e-02 -1.534e-03 2.810e-03 -1.643e-03
392 1 3.530e+00 3.518e+00 -1.268e-02 -1.133e-03 -2.092e-03 -2.539e-03
393 1 1.205e-02 3.518e+00 -3.532e+00 3.665e-03 -1.294e-03 4.327e-03
394 1 1.009e-02 -3.518e+00 -3.534e+00 2.365e-03 1.421e-03 2.222e-03
395 1 -3.504e+00 -3.518e+00 -9.200e-03 6.459e-03 1.735e-03 -4.637e-03
396 1 -3.505e+00 3.517e+00 -1.208e-02 4.244e-03 -9.523e-04 -4.712e-03
397 1 8.473e-03 3.517e+00 3.505e+00 4.212e-03 -9.718e-04 -5.638e-03
398 1 9.839e-03 -3.517e+00 3.505e+00 4.543e-03 1.631e-03 -3.537e-03
399 1 -1.747e+00 -1.748e+00 3.494e+00 4.349e-03 -1.018e-02 5.943e-03
400 1 -1.747e+00 1.748e+00 3.494e+00 2.979e-03 1.087e-02 7.900e-03
401 1 -3.495e+00 1.746e+00 1.747e+00 -7.362e-03 8.138e-03 -4.392e-03
402 1 -3.495e+00 -1.748e+00 1.747e+00 -6.737e-03 -1.138e-02 -2.892e-03
403 1 -1.748e+00 -1.760e+00 -3.533e+00 4.852e-03 3.126e-03 4.265e-03
404 1 -1.748e+00 1.761e+00 -3.534e+00 4.511e-03 -3.785e-03 2.484e-03
405 1 1.769e+00 -1.758e+00 3.502e+00 3.084e-03 -7.174e-06 -2.809e-03
406 1 1.770e+00 1.757e+00 3.505e+00 3.718e-03 1.433e-03 -3.656e-03