ITEM: TIMESTEP
0
ITEM: NUMBER OF ATOMS
74
ITEM: BOX BOUNDS xy xz yz pp pp pp
                     0.00000000000000e+00 1.06200000000000e+01 0.00000000000000e+00
0.00000000000000e+00	1.06200000000000e+01	0.00000000000000e+00
0.00000000000000e+00	1.06200000000000e+01	0.00000000000000e+00
ITEM: ATOMS id type x y z DisplacementX DisplacementY DisplacementZ
1 1 -5.275e+00 -1.748e+00 -9.072e-05 1.534e-02 -4.998e-03 -5.206e-03
2 1 -1.747e+00 -5.277e+00 4.171e-04 -4.662e-03 6.912e-03 2.500e-05
3 1 -3.497e+00 -3.495e+00 5.212e-04 -3.131e-03 5.001e-03 -2.992e-03
4 1 1.772e+00 5.294e+00 7.454e-04 1.359e-03 -1.539e-03 -2.756e-03
5 1 5.292e+00 1.773e+00 -2.330e-03 3.297e-03 -9.620e-04 -5.201e-05
6 1 1.255e-02 5.292e+00 1.761e+00 -1.033e-03 -1.026e-03 -3.781e-03
7 1 1.383e-02 5.293e+00 -1.758e+00 -3.059e-03 -1.399e-03 2.063e-03
8 1 5.293e+00 1.151e-02 1.761e+00 -3.307e-03 1.371e-03 4.848e-03
9 1 5.291e+00 1.082e-02 -1.760e+00 -1.581e-03 -7.519e-04 -5.845e-04
10 1 5.293e+00 -1.749e+00 -6.105e-04 6.752e-05 5.000e-04 4.919e-03
11 1 -1.747e+00 5.293e+00 -8.848e-04 -1.377e-04 1.221e-03 3.947e-04
12 1 -5.263e+00 1.766e+00 1.546e-03 5.464e-03 7.343e-04 -2.116e-03
13 1 1.765e+00 -5.261e+00 9.655e-04 -5.662e-03 2.021e-03 1.199e-02
14 1 -5.264e+00 9.386e-03 1.755e+00 3.899e-03 3.768e-04 -1.990e-03
15 1 -5.263e+00 8.514e-03 -1.757e+00 4.145e-03 -1.809e-04 -1.785e-04
16 1 8.097e-03 -5.265e+00 -1.757e+00 -2.303e-04 -4.202e-03 -9.418e-03
17 1 1.081e-02 -5.263e+00 1.757e+00 -4.002e-03 6.597e-03 3.246e-03
18 1 3.530e+00 3.531e+00 -1.885e-03 2.728e-03 -1.185e-03 -4.654e-03
19 1 -3.507e+00 3.535e+00 -1.758e-03 4.960e-03 -5.934e-03 -4.437e-03
20 1 3.535e+00 -3.509e+00 -2.961e-04 -1.443e-03 2.066e-03 5.401e-03
21 1 1.178e-02 3.529e+00 3.521e+00 5.818e-03 9.571e-04 -3.534e-03
22 1 1.010e-02 3.530e+00 -3.518e+00 4.270e-03 1.914e-03 -1.737e-04
23 1 3.530e+00 1.219e-02 3.519e+00 -5.926e-04 -7.811e-04 1.820e-03
24 1 3.531e+00 1.075e-02 -3.519e+00 -2.239e-03 1.525e-03 3.719e-03
25 1 -3.507e+00 9.389e-03 3.516e+00 1.336e-03 -2.990e-03 -6.579e-03
26 1 -3.504e+00 7.910e-03 -3.514e+00 -3.233e-03 -1.400e-03 3.952e-03
27 1 1.093e-02 -3.503e+00 3.515e+00 -3.214e-03 6.645e-04 1.765e-03
28 1 1.147e-02 -3.504e+00 -3.517e+00 -7.889e-03 7.950e-04 3.906e-03
29 1 -3.495e+00 -1.745e+00 -1.748e+00 1.852e-03 -1.220e-03 -1.282e-02
30 1 -3.493e+00 -1.748e+00 1.748e+00 -5.455e-03 7.902e-03 1.589e-03
31 1 -1.747e+00 -3.494e+00 1.748e+00 1.077e-02 1.648e-02 -1.713e-02
32 1 -1.747e+00 -3.495e+00 -1.747e+00 -1.708e-03 3.224e-03 -5.799e-03
33 1 1.769e+00 3.530e+00 1.760e+00 7.868e-06 2.350e-03 6.968e-04
34 1 1.772e+00 3.531e+00 -1.760e+00 1.147e-03 5.114e-03 4.111e-03
35 1 3.530e+00 1.771e+00 -1.760e+00 -2.484e-03 2.340e-03 4.827e-03
36 1 3.530e+00 1.771e+00 1.757e+00 2.060e-03 5.009e-03 6.346e-03
37 1 -1.749e+00 3.535e+00 1.759e+00 -3.720e-03 -1.195e-03 4.679e-04
38 1 -1.747e+00 3.534e+00 -1.761e+00 -1.160e-03 -6.056e-03 -6.254e-03
39 1 3.535e+00 -1.746e+00 -1.760e+00 1.188e-03 -5.415e-03 -7.293e-03
40 1 3.535e+00 -1.746e+00 1.762e+00 -3.593e-03 -2.694e-04 1.316e-03
41 1 -3.505e+00 1.768e+00 -1.755e+00 -2.950e-03 3.279e-03 -1.705e-03
42 1 -3.504e+00 1.770e+00 1.759e+00 2.642e-04 -7.217e-04 4.647e-03
43 1 1.769e+00 -3.505e+00 1.756e+00 -2.845e-04 6.907e-04 4.111e-03
44 1 1.768e+00 -3.503e+00 -1.756e+00 2.972e-03 -1.181e-03 -5.768e-03
45 1 1.769e+00 1.773e+00 -3.519e+00 4.645e-03 -1.242e-03 -8.606e-03
46 1 1.769e+00 1.770e+00 3.517e+00 -2.101e-03 1.856e-03 1.796e-03
47 1 -1.747e+00 1.769e+00 -3.514e+00 -4.643e-03 9.400e-04 -4.190e-04
48 1 -1.748e+00 1.770e+00 3.516e+00 -4.587e-03 3.345e-03 1.403e-03
49 1 1.767e+00 -1.747e+00 3.515e+00 -1.533e-03 -4.268e-04 1.029e-03
50 1 1.767e+00 -1.747e+00 -3.515e+00 4.136e-03 -7.277e-04 -4.142e-03
51 1 -1.748e+00 -1.749e+00 -3.529e+00 -1.055e-03 3.028e-03 9.555e-03
52 1 -1.748e+00 -1.747e+00 3.527e+00 9.170e-04 -3.952e-03 -1.147e-02
53 1 -1.748e+00 1.237e-02 -5.280e+00 3.029e-03 -3.686e-03 -6.318e-03
54 1 1.450e-02 -1.747e+00 -5.280e+00 -6.453e-03 4.199e-03 7.351e-03
55 1 1.210e-02 1.771e+00 -5.280e+00 -1.136e-03 1.753e-04 1.502e-03
56 1 1.768e+00 1.082e-02 -5.280e+00 -5.823e-03 1.510e-03 1.447e-03
57 1 -8.182e-04 -6.510e-04 3.033e-05 -1.673e+00 -1.789e+00 -3.554e-02
58 1 -3.494e+00 9.819e-04 -2.471e-04 -8.144e-03 1.126e-02 6.890e-03
59 1 2.323e-03 -3.494e+00 5.586e-04 1.273e-02 -1.147e-02 -4.763e-04
60 1 -1.747e+00 2.469e-04 1.747e+00 2.066e-02 -8.076e-03 1.959e-02
61 1 -1.747e+00 -5.281e-04 -1.747e+00 2.788e-04 1.902e-03 -7.206e-03
62 1 4.271e-04 -1.745e+00 -1.746e+00 9.001e-03 -3.181e-03 5.990e-04
63 1 -4.119e-04 -1.747e+00 1.747e+00 -9.015e-03 1.235e-02 8.606e-03
64 1 9.649e-03 1.098e-02 3.514e+00 -3.104e-03 -1.685e-03 3.720e-03
65 1 1.278e-02 9.502e-03 -3.515e+00 3.020e-03 -3.487e-03 -5.620e-03
66 1 1.255e-02 3.532e+00 6.686e-04 9.673e-04 -1.763e-03 -1.092e-03
67 1 3.533e+00 1.209e-02 4.706e-04 -2.739e-03 3.417e-03 8.125e-03
68 1 1.766e+00 1.768e+00 -1.276e-03 1.516e-03 -5.992e-04 -1.077e-03
69 1 1.211e-02 1.769e+00 -1.757e+00 -1.339e-03 -3.854e-03 1.595e-03
70 1 1.067e-02 1.769e+00 1.756e+00 -1.502e-03 -2.907e-03 -1.826e-03
71 1 1.770e+00 8.606e-03 1.758e+00 -3.925e-03 3.398e-03 6.236e-03
72 1 1.769e+00 8.372e-03 -1.758e+00 6.477e-04 -4.383e-03 -7.786e-03
73 1 -1.746e+00 1.782e+00 2.223e-04 3.037e-03 -1.217e-02 8.498e-04
74 1 1.782e+00 -1.749e+00 -5.108e-05 -1.201e-02 -3.880e-03 5.922e-03
ITEM: TIMESTEP
0
ITEM: NUMBER OF ATOMS
74
ITEM: BOX BOUNDS xy xz yz pp pp pp
                     0.00000000000000e+00 1.06200000000000e+01 0.00000000000000e+00
0.00000000000000e+00	1.06200000000000e+01	0.00000000000000e+00
0.00000000000000e+00	1.06200000000000e+01	0.00000000000000e+00
ITEM: ATOMS id type x y z DisplacementX DisplacementY DisplacementZ
75 1 -5.276e+00 1.566e-04 -1.746e+00 1.069e-02 -3.517e-03 -6.793e-03
76 1 -3.497e+00 -1.585e-04 -3.497e+00 -4.645e-03 6.890e-03 -9.283e-06
77 1 1.357e-02 -5.282e+00 -1.746e+00 1.906e-03 -5.632e-03 -5.610e-03
78 1 1.393e-02 5.285e+00 -1.748e+00 -2.591e-03 -5.550e-03 -1.082e-03
79 1 -1.748e+00 -5.281e+00 1.409e-02 4.133e-03 -9.938e-04 -5.248e-03
80 1 -1.747e+00 5.280e+00 1.294e-02 -2.442e-03 3.017e-04 -8.209e-04
81 1 -5.262e+00 2.537e-03 1.767e+00 -1.725e-03 2.878e-03 5.303e-03
82 1 5.294e+00 1.415e-03 -1.748e+00 -7.838e-04 -1.275e-03 -4.833e-03
83 1 5.293e+00 3.514e-04 1.775e+00 -2.690e-04 2.449e-03 3.502e-03
84 1 5.294e+00 -1.761e+00 1.549e-02 2.177e-03 9.321e-06 -3.757e-03
85 1 5.292e+00 1.759e+00 1.305e-02 -3.340e-03 -6.814e-04 -3.332e-03
86 1 1.178e-02 5.277e+00 1.772e+00 -1.547e-03 3.268e-04 3.590e-03
87 1 1.050e-02 -5.278e+00 1.773e+00 -4.898e-03 4.008e-03 4.846e-03
88 1 1.770e+00 -5.278e+00 1.337e-02 6.428e-03 -3.692e-03 -5.530e-03
89 1 1.770e+00 5.278e+00 1.235e-02 1.214e-03 2.976e-03 -1.387e-03
90 1 -5.263e+00 -1.758e+00 1.015e-02 -3.344e-03 5.263e-03 9.395e-03
91 1 -5.264e+00 1.758e+00 9.523e-03 -1.854e-03 2.836e-03 1.695e-03
92 1 -3.508e+00 -6.837e-04 3.533e+00 6.569e-03 -1.744e-03 -4.908e-03
93 1 3.534e+00 1.053e-03 -3.507e+00 -4.392e-03 -2.594e-03 -1.817e-03
94 1 3.528e+00 2.858e-03 3.534e+00 3.640e-03 -1.405e-03 3.690e-04
95 1 3.530e+00 3.519e+00 1.254e-02 2.486e-03 1.057e-03 -6.702e-04
96 1 3.531e+00 -3.520e+00 1.032e-02 1.837e-03 -1.853e-03 -1.042e-03
97 1 9.053e-03 -3.516e+00 3.533e+00 -2.518e-03 1.951e-03 5.083e-03
98 1 1.118e-02 3.518e+00 3.532e+00 1.365e-03 3.685e-03 8.588e-03
99 1 -3.505e+00 3.516e+00 9.922e-03 3.270e-03 -3.372e-04 -1.684e-03
100 1 -3.503e+00 -3.515e+00 1.060e-02 6.156e-04 3.452e-04 2.603e-05
101 1 8.798e-03 -3.515e+00 -3.502e+00 3.623e-04 -3.874e-03 -3.247e-03
102 1 1.219e-02 3.517e+00 -3.503e+00 -1.994e-03 2.731e-03 2.513e-03
103 1 -1.749e+00 1.749e+00 -3.496e+00 9.793e-04 -1.305e-04 -1.110e-02
104 1 -1.748e+00 -1.746e+00 -3.494e+00 5.190e-03 -5.387e-03 -1.940e-02
105 1 -3.494e+00 -1.748e+00 -1.747e+00 6.508e-04 2.796e-04 -1.045e-02
106 1 -3.494e+00 1.747e+00 -1.748e+00 -2.109e-03 -2.467e-03 -1.354e-02
107 1 -1.747e+00 1.760e+00 3.534e+00 5.609e-04 -5.598e-03 -4.750e-03
108 1 -1.747e+00 -1.761e+00 3.532e+00 3.439e-03 -1.032e-03 -2.849e-03
109 1 1.769e+00 1.759e+00 -3.504e+00 2.627e-03 -4.351e-04 -2.278e-03
110 1 1.769e+00 -1.756e+00 -3.504e+00 2.793e-03 -3.963e-04 -4.104e-03
111 1 1.770e+00 1.757e+00 3.533e+00 4.134e-04 -1.400e-03 -2.467e-03
112 1 1.769e+00 -1.758e+00 3.533e+00 -1.716e-04 4.343e-04 -2.336e-03
113 1 -3.504e+00 -1.756e+00 1.767e+00 -2.715e-03 3.067e-03 6.722e-04
114 1 -3.504e+00 1.758e+00 1.768e+00 1.761e-03 3.001e-03 5.131e-03
115 1 3.535e+00 -1.760e+00 -1.747e+00 -2.033e-03 -3.369e-04 4.186e-03
116 1 3.534e+00 1.759e+00 -1.748e+00 -4.558e-03 1.035e-03 1.448e-03
117 1 3.529e+00 -1.759e+00 1.771e+00 -2.039e-03 -3.125e-03 -2.929e-03
118 1 3.528e+00 1.759e+00 1.772e+00 2.556e-03 9.108e-04 9.191e-04
119 1 1.770e+00 -3.516e+00 1.771e+00 2.632e-03 -3.300e-03 -5.208e-03
120 1 1.769e+00 3.518e+00 1.772e+00 -1.150e-03 -1.322e-03 5.564e-04
121 1 -1.747e+00 3.515e+00 1.770e+00 -5.918e-03 3.301e-03 8.156e-03
122 1 -1.747e+00 -3.514e+00 1.771e+00 -1.123e-03 -1.066e-03 1.578e-03
123 1 1.769e+00 -3.515e+00 -1.747e+00 1.591e-03 2.875e-04 -4.977e-03
124 1 1.768e+00 3.512e+00 -1.747e+00 -6.064e-03 3.032e-04 2.039e-03
125 1 -1.747e+00 -3.529e+00 -1.748e+00 -2.992e-03 3.945e-03 -3.378e-03
126 1 -1.747e+00 3.531e+00 -1.748e+00 4.806e-03 -1.551e-02 5.061e-03
127 1 -1.746e+00 -8.074e-04 -5.276e+00 2.589e-03 -4.460e-03 9.145e-03
128 1 1.767e+00 6.073e-04 -5.262e+00 2.075e-03 -2.266e-03 -2.631e-03
129 1 1.048e-02 1.756e+00 -5.264e+00 -2.903e-03 -5.587e-03 -6.018e-03
130 1 8.657e-03 -1.759e+00 -5.263e+00 -1.257e-04 -3.024e-03 4.999e-04
131 1 1.496e-03 6.187e-04 -8.169e-04 -1.745e+00 -4.160e-02 -1.679e+00
132 1 2.834e-04 -3.763e-04 -3.492e+00 2.152e-03 -1.595e-03 -1.341e-02
133 1 -3.494e+00 -1.676e-04 1.634e-03 -1.224e-03 2.620e-03 -6.752e-03
134 1 -1.061e-03 1.748e+00 -1.748e+00 9.367e-03 -2.049e-03 -9.098e-03
135 1 1.196e-04 -1.746e+00 -1.746e+00 1.886e-02 -2.082e-02 -1.223e-02
136 1 -1.748e+00 -1.747e+00 -7.159e-05 -4.765e-03 7.040e-03 2.282e-04
137 1 -1.746e+00 1.747e+00 9.215e-04 2.472e-02 -1.445e-02 6.146e-03
138 1 9.568e-03 -3.519e+00 1.103e-02 4.187e-04 -1.007e-03 2.668e-03
139 1 9.811e-03 3.518e+00 9.411e-03 -4.038e-04 -3.879e-03 -2.866e-03
140 1 1.402e-02 -1.275e-03 3.533e+00 -2.668e-03 -3.524e-03 -2.793e-03
141 1 3.533e+00 -1.057e-03 1.307e-02 -2.518e-03 7.499e-03 1.437e-02
142 1 1.781e+00 -1.800e-04 -1.749e+00 -2.467e-03 -7.877e-03 -5.827e-03
143 1 -1.749e+00 1.923e-03 1.783e+00 -1.158e-03 -2.793e-04 -7.359e-03
144 1 1.768e+00 9.892e-05 1.766e+00 -3.957e-03 1.844e-03 3.311e-03
145 1 9.734e-03 1.758e+00 1.768e+00 5.634e-03 2.084e-04 -4.896e-03
146 1 9.438e-03 -1.757e+00 1.768e+00 1.959e-04 1.384e-03 4.593e-03
147 1 1.769e+00 -1.757e+00 1.081e-02 -2.247e-03 6.230e-04 2.178e-03
148 1 1.769e+00 1.756e+00 1.002e-02 2.632e-03 -1.933e-03 1.726e-03
ITEM: TIMESTEP
0
ITEM: NUMBER OF ATOMS
74
ITEM: BOX BOUNDS xy xz yz pp pp pp
                     0.00000000000000e+00 1.06200000000000e+01 0.00000000000000e+00
0.00000000000000e+00	1.06200000000000e+01	0.00000000000000e+00
0.00000000000000e+00	1.06200000000000e+01	0.00000000000000e+00
ITEM: ATOMS id type x y z DisplacementX DisplacementY DisplacementZ
149 1 2.425e-04 -5.278e+00 -1.746e+00 1.706e-03 1.317e-03 -7.426e-03
150 1 -1.894e-04 -3.495e+00 -3.495e+00 2.962e-03 -2.605e-03 -1.500e-02
151 1 -5.283e+00 1.230e-02 -1.748e+00 -7.461e-04 -2.774e-03 3.231e-03
152 1 5.282e+00 1.178e-02 -1.747e+00 -3.465e-03 -4.172e-03 -5.148e-03
153 1 -5.282e+00 -1.748e+00 1.392e-02 7.691e-04 -6.952e-03 -8.717e-03
154 1 5.282e+00 -1.747e+00 1.379e-02 -1.464e-04 -1.174e-03 1.445e-03
155 1 1.445e-03 -5.263e+00 1.768e+00 7.562e-04 1.891e-03 2.295e-03
156 1 -9.242e-04 5.291e+00 -1.747e+00 -3.857e-03 1.958e-03 3.428e-03
157 1 1.133e-03 5.292e+00 1.775e+00 1.409e-03 1.613e-03 -1.154e-04
158 1 -1.760e+00 5.291e+00 1.227e-02 -1.465e-03 5.141e-03 1.074e-02
159 1 1.760e+00 5.293e+00 1.310e-02 -1.482e-03 -1.813e-03 -2.310e-03
160 1 5.278e+00 1.037e-02 1.775e+00 4.662e-03 -2.340e-03 -7.133e-03
161 1 -5.277e+00 1.256e-02 1.772e+00 2.060e-03 1.723e-03 6.528e-03
162 1 -5.277e+00 1.770e+00 1.416e-02 1.477e-04 2.347e-03 1.881e-03
163 1 5.279e+00 1.772e+00 1.167e-02 3.913e-03 -5.139e-03 -6.288e-03
164 1 -1.758e+00 -5.263e+00 9.601e-03 -4.677e-03 -8.149e-03 -7.949e-03
165 1 1.757e+00 -5.265e+00 1.022e-02 -3.732e-03 6.560e-04 1.848e-03
166 1 -7.124e-04 -3.510e+00 3.532e+00 6.507e-03 -3.635e-03 -7.305e-03
167 1 2.812e-04 3.534e+00 -3.509e+00 7.021e-04 -2.563e-03 -1.041e-03
168 1 7.473e-04 3.529e+00 3.532e+00 -5.613e-04 3.830e-03 6.630e-03
169 1 3.518e+00 3.530e+00 1.097e-02 2.866e-03 -1.314e-04 -2.928e-03
170 1 -3.516e+00 3.531e+00 1.394e-02 2.401e-03 -6.074e-04 -5.687e-03
171 1 -3.516e+00 9.286e-03 3.533e+00 9.273e-04 -1.240e-03 1.484e-03
172 1 3.517e+00 9.824e-03 3.534e+00 -2.614e-03 3.310e-03 4.166e-03
173 1 3.515e+00 -3.503e+00 1.002e-02 6.283e-04 5.041e-04 2.622e-03
174 1 -3.516e+00 -3.504e+00 1.132e-02 -1.159e-03 9.947e-05 -1.690e-03
175 1 -3.517e+00 9.258e-03 -3.503e+00 -4.016e-03 -7.055e-04 1.976e-03
176 1 3.518e+00 9.544e-03 -3.504e+00 1.980e-03 1.249e-04 1.195e-03
177 1 1.747e+00 -1.748e+00 -3.494e+00 1.314e-02 -4.260e-03 -1.112e-02
178 1 -1.746e+00 -1.747e+00 -3.493e+00 -1.913e-03 3.480e-03 -5.395e-03
179 1 -1.747e+00 -3.496e+00 -1.746e+00 1.157e-03 -3.522e-04 -1.145e-02
180 1 1.746e+00 -3.495e+00 -1.748e+00 -2.350e-02 1.639e-03 5.253e-02
181 1 1.760e+00 -1.747e+00 3.533e+00 -3.913e-03 -2.202e-03 -2.485e-03
182 1 -1.760e+00 -1.748e+00 3.533e+00 -2.641e-03 -3.604e-03 -4.969e-03
183 1 1.756e+00 1.767e+00 -3.505e+00 3.773e-04 -1.773e-03 6.790e-04
184 1 -1.755e+00 1.769e+00 -3.505e+00 2.780e-03 1.984e-04 -3.518e-03
185 1 1.758e+00 1.771e+00 3.532e+00 5.172e-04 -3.800e-07 -2.348e-03
186 1 -1.756e+00 1.770e+00 3.534e+00 7.351e-04 1.671e-03 2.361e-03
187 1 -1.759e+00 -3.507e+00 1.768e+00 -2.559e-03 -2.562e-03 -4.988e-03
188 1 1.756e+00 -3.506e+00 1.770e+00 4.761e-03 -1.053e-03 -2.864e-04
189 1 -1.760e+00 3.533e+00 -1.745e+00 -6.554e-04 -6.640e-03 -1.047e-02
190 1 1.758e+00 3.535e+00 -1.746e+00 5.020e-03 -6.697e-04 2.595e-03
191 1 -1.757e+00 3.530e+00 1.773e+00 1.020e-03 -4.129e-03 -4.783e-03
192 1 1.760e+00 3.530e+00 1.771e+00 3.033e-03 -2.946e-04 9.761e-04
193 1 -3.517e+00 1.770e+00 1.772e+00 -4.282e-03 6.257e-04 1.977e-03
194 1 3.518e+00 1.771e+00 1.772e+00 2.484e-04 -1.001e-03 -3.972e-04
195 1 3.515e+00 -1.748e+00 1.767e+00 1.902e-03 -1.621e-03 3.477e-03
196 1 -3.514e+00 -1.746e+00 1.769e+00 -2.334e-03 -6.829e-04 4.131e-03
197 1 -3.513e+00 1.767e+00 -1.748e+00 -1.446e-03 -3.327e-04 -2.279e-03
198 1 3.515e+00 1.769e+00 -1.746e+00 4.098e-05 3.183e-03 2.741e-03
199 1 -3.529e+00 -1.747e+00 -1.749e+00 1.342e-02 2.560e-03 6.146e-03
200 1 3.530e+00 -1.747e+00 -1.746e+00 -6.915e-03 -2.811e-03 2.881e-03
201 1 -9.756e-04 -1.747e+00 -5.277e+00 3.822e-03 4.498e-03 2.383e-02
202 1 7.458e-04 1.768e+00 -5.261e+00 -3.431e-03 -4.557e-04 -1.745e-03
203 1 1.757e+00 9.585e-03 -5.262e+00 2.350e-03 -4.415e-03 -6.650e-03
204 1 -1.759e+00 8.245e-03 -5.264e+00 -3.418e-04 -2.958e-04 -2.074e-03
205 1 -1.137e-03 3.336e-04 -3.302e-04 6.260e-02 -1.649e+00 -1.696e+00
206 1 -3.461e-05 1.086e-03 -3.494e+00 -9.730e-04 2.307e-03 -7.247e-03
207 1 1.702e-03 -3.495e+00 -1.456e-05 8.186e-04 7.015e-05 -1.078e-02
208 1 1.747e+00 1.053e-03 -1.746e+00 6.204e-04 3.175e-04 -1.039e-02
209 1 -1.747e+00 -6.841e-04 -1.747e+00 -2.598e-02 7.084e-04 1.902e-02
210 1 -1.746e+00 -1.745e+00 -1.919e-03 -8.988e-03 1.231e-02 8.554e-03
211 1 1.746e+00 -1.747e+00 -2.330e-03 -8.900e-03 1.220e-02 8.380e-03
212 1 -3.515e+00 1.006e-02 1.077e-02 -3.979e-04 1.843e-03 1.027e-03
213 1 3.516e+00 1.006e-02 1.074e-02 -3.282e-03 1.155e-03 1.910e-03
214 1 -7.118e-05 1.467e-02 3.533e+00 -1.634e-03 -3.352e-03 8.333e-04
215 1 1.271e-03 3.533e+00 1.452e-02 -6.365e-04 -1.377e-03 -2.014e-03
216 1 -2.598e-03 1.781e+00 -1.748e+00 3.569e-03 -9.334e-03 8.400e-03
217 1 1.357e-03 -1.747e+00 1.779e+00 1.632e-03 -4.109e-03 -1.278e-02
218 1 7.087e-04 1.768e+00 1.769e+00 -1.090e-03 -2.223e-03 -4.279e-04
219 1 1.758e+00 1.115e-02 1.768e+00 9.013e-04 -2.998e-03 -8.057e-03
220 1 -1.756e+00 9.085e-03 1.768e+00 -2.648e-03 -3.466e-03 -4.940e-03
221 1 -1.757e+00 1.768e+00 8.375e-03 -2.025e-03 6.571e-03 6.443e-03
222 1 1.756e+00 1.771e+00 9.578e-03 -5.462e-03 1.884e-03 2.319e-03
ITEM: TIMESTEP
0
ITEM: NUMBER OF ATOMS
74
ITEM: BOX BOUNDS xy xz yz pp pp pp
                     0.00000000000000e+00 1.06200000000000e+01 0.00000000000000e+00
0.00000000000000e+00	1.06200000000000e+01	0.00000000000000e+00
0.00000000000000e+00	1.06200000000000e+01	0.00000000000000e+00
ITEM: ATOMS id type x y z DisplacementX DisplacementY DisplacementZ
223 1 1.354e-03 5.276e+00 1.748e+00 2.466e-03 -9.275e-03 5.022e-03
224 1 -9.493e-04 3.494e+00 3.493e+00 6.527e-03 7.461e-04 1.058e-02
225 1 -5.281e+00 -1.371e-02 1.748e+00 2.671e-03 1.961e-04 4.401e-03
226 1 5.282e+00 -1.357e-02 1.748e+00 -5.720e-03 -1.600e-03 8.665e-04
227 1 -5.280e+00 1.747e+00 -1.350e-02 -1.165e-03 1.597e-03 5.555e-03
228 1 5.280e+00 1.747e+00 -1.380e-02 -9.296e-04 -1.397e-03 -4.220e-05
229 1 -5.574e-04 5.262e+00 -1.768e+00 6.834e-03 -1.056e-03 -8.804e-03
230 1 9.510e-04 -5.292e+00 1.746e+00 -3.464e-04 1.315e-03 1.135e-03
231 1 1.148e-03 -5.291e+00 -1.773e+00 5.529e-04 -3.093e-03 -1.043e-02
232 1 -1.761e+00 -5.292e+00 -1.500e-02 -6.366e-04 2.861e-03 2.838e-03
233 1 1.760e+00 -5.293e+00 -1.162e-02 -1.743e-03 -7.763e-04 -2.067e-03
234 1 5.276e+00 -1.065e-02 -1.772e+00 4.733e-03 5.731e-04 -3.192e-03
235 1 -5.280e+00 -1.286e-02 -1.771e+00 -1.863e-03 8.115e-03 7.549e-03
236 1 -5.278e+00 -1.773e+00 -1.198e-02 -5.074e-03 -4.672e-05 1.163e-03
237 1 5.277e+00 -1.771e+00 -1.349e-02 -2.102e-03 2.348e-03 3.460e-03
238 1 -1.758e+00 5.265e+00 -9.587e-03 -4.275e-03 -5.677e-04 -9.164e-04
239 1 1.757e+00 5.263e+00 -1.086e-02 -5.005e-03 8.483e-04 1.582e-03
240 1 -7.569e-04 3.507e+00 -3.533e+00 2.558e-03 -8.780e-03 -5.523e-03
241 1 -5.192e-04 -3.532e+00 3.508e+00 1.820e-03 3.375e-03 1.593e-03
242 1 8.300e-04 -3.529e+00 -3.532e+00 -1.491e-03 -1.093e-03 9.725e-04
243 1 3.517e+00 -3.528e+00 -1.199e-02 -5.963e-03 1.039e-03 5.143e-04
244 1 -3.518e+00 -3.531e+00 -1.170e-02 -7.499e-04 -1.312e-03 -2.340e-03
245 1 -3.516e+00 -1.044e-02 -3.532e+00 -2.993e-03 2.282e-03 4.342e-03
246 1 3.519e+00 -1.064e-02 -3.533e+00 -9.699e-04 -2.261e-03 -2.083e-03
247 1 3.515e+00 3.505e+00 -1.017e-02 2.051e-03 -1.142e-03 2.022e-04
248 1 -3.517e+00 3.504e+00 -1.022e-02 1.239e-03 -1.281e-03 3.086e-03
249 1 -3.517e+00 -9.541e-03 3.505e+00 -2.434e-03 1.426e-03 3.381e-03
250 1 3.514e+00 -9.634e-03 3.503e+00 1.032e-03 4.225e-03 2.895e-03
251 1 1.745e+00 1.748e+00 3.495e+00 -6.617e-04 1.918e-03 -7.861e-03
252 1 -1.748e+00 1.748e+00 3.491e+00 -7.325e-03 1.024e-02 5.274e-03
253 1 -1.749e+00 3.494e+00 1.749e+00 7.956e-04 9.879e-05 -1.073e-02
254 1 1.747e+00 3.494e+00 1.748e+00 -6.637e-03 9.377e-03 3.918e-03
255 1 1.760e+00 1.747e+00 -3.533e+00 -3.132e-03 -1.618e-03 1.149e-04
256 1 -1.759e+00 1.748e+00 -3.532e+00 -1.101e-03 -2.210e-03 -2.901e-03
257 1 1.756e+00 -1.770e+00 3.505e+00 -1.669e-03 5.711e-03 9.172e-03
258 1 -1.758e+00 -1.768e+00 3.503e+00 -3.766e-04 6.224e-03 5.980e-03
259 1 1.757e+00 -1.769e+00 -3.534e+00 -5.672e-03 5.375e-03 7.508e-03
260 1 -1.758e+00 -1.769e+00 -3.534e+00 -1.238e-05 -5.433e-03 -4.572e-03
261 1 -1.758e+00 3.505e+00 -1.768e+00 1.521e-03 -3.542e-03 -8.022e-03
262 1 1.758e+00 3.504e+00 -1.768e+00 -2.382e-03 3.886e-03 3.201e-03
263 1 -1.759e+00 -3.534e+00 1.747e+00 -1.047e-03 3.156e-03 -2.095e-03
264 1 1.761e+00 -3.534e+00 1.747e+00 2.238e-03 -2.749e-04 1.210e-04
265 1 -1.756e+00 -3.530e+00 -1.773e+00 2.552e-03 3.197e-03 6.534e-04
266 1 1.758e+00 -3.530e+00 -1.772e+00 -3.042e-03 2.554e-03 -3.463e-03
267 1 -3.518e+00 -1.770e+00 -1.772e+00 1.017e-04 4.664e-04 -5.059e-05
268 1 3.518e+00 -1.767e+00 -1.770e+00 -7.866e-04 5.237e-03 5.297e-03
269 1 3.516e+00 1.745e+00 -1.768e+00 1.976e-03 -2.358e-03 -2.346e-03
270 1 -3.516e+00 1.747e+00 -1.768e+00 -3.984e-03 1.565e-03 -1.881e-03
271 1 -3.513e+00 -1.768e+00 1.747e+00 -4.179e-03 4.091e-03 4.367e-03
272 1 3.514e+00 -1.769e+00 1.748e+00 -2.515e-03 3.969e-03 3.162e-03
273 1 -3.530e+00 1.746e+00 1.748e+00 1.023e-02 -1.969e-03 -1.900e-03
274 1 3.529e+00 1.746e+00 1.746e+00 -7.794e-03 7.664e-04 4.928e-03
275 1 3.495e-04 1.748e+00 5.276e+00 8.393e-03 -5.262e-03 -1.402e-02
276 1 -7.150e-04 -1.766e+00 5.261e+00 -2.808e-03 -5.540e-05 2.960e-03
277 1 1.758e+00 -1.047e-02 5.264e+00 1.294e-03 3.715e-03 1.683e-03
278 1 -1.758e+00 -1.027e-02 5.263e+00 1.840e-04 -4.131e-03 -3.938e-03
279 1 3.053e-04 -1.408e-03 2.219e-03 4.890e-02 1.760e+00 1.662e+00
280 1 -8.913e-04 -2.111e-04 3.494e+00 -5.689e-03 8.194e-03 2.049e-03
281 1 -3.329e-04 3.495e+00 1.108e-04 8.059e-03 3.563e-03 2.105e-03
282 1 1.747e+00 -7.958e-04 1.748e+00 1.768e-02 2.203e-02 3.359e-03
283 1 -1.749e+00 6.254e-04 1.747e+00 -5.046e-03 7.392e-03 7.828e-04
284 1 -1.746e+00 1.749e+00 4.151e-06 7.074e-03 -7.739e-03 -2.311e-02
285 1 1.748e+00 1.747e+00 3.508e-04 1.557e-03 -2.705e-03 3.456e-03
286 1 -3.516e+00 -1.069e-02 -9.894e-03 4.582e-04 -9.622e-04 -3.281e-03
287 1 3.518e+00 -9.000e-03 -1.111e-02 1.583e-03 -2.608e-03 -7.225e-03
288 1 -1.149e-03 -1.450e-02 -3.533e+00 7.643e-04 1.211e-03 3.234e-04
289 1 1.432e-03 -3.535e+00 -1.398e-02 2.318e-03 -4.451e-04 -1.940e-03
290 1 8.900e-05 -1.781e+00 1.746e+00 -3.415e-03 8.912e-03 5.276e-03
291 1 -6.140e-04 1.746e+00 -1.782e+00 -1.531e-03 -4.105e-03 4.091e-03
292 1 6.010e-04 -1.765e+00 -1.768e+00 3.212e-03 -1.344e-03 -1.489e-03
293 1 1.757e+00 -7.843e-03 -1.768e+00 -3.383e-03 2.502e-03 4.959e-03
294 1 -1.758e+00 -8.462e-03 -1.770e+00 -3.393e-03 3.634e-03 1.526e-03
295 1 -1.756e+00 -1.771e+00 -1.070e-02 -2.471e-03 1.171e-03 1.200e-04
296 1 1.756e+00 -1.771e+00 -9.171e-03 2.286e-03 3.996e-03 1.089e-02
ITEM: TIMESTEP
0
ITEM: NUMBER OF ATOMS
74
ITEM: BOX BOUNDS xy xz yz pp pp pp
                     0.00000000000000e+00 1.06200000000000e+01 0.00000000000000e+00
0.00000000000000e+00	1.06200000000000e+01	0.00000000000000e+00
0.00000000000000e+00	1.06200000000000e+01	0.00000000000000e+00
ITEM: ATOMS id type x y z DisplacementX DisplacementY DisplacementZ
297 1 5.276e+00 5.991e-04 1.747e+00 -1.373e-02 7.121e-03 1.649e-02
298 1 3.495e+00 -2.807e-04 3.494e+00 -4.178e-03 6.308e-03 -9.285e-04
299 1 -1.281e-02 5.282e+00 1.746e+00 3.118e-04 -1.135e-05 5.345e-04
300 1 -1.368e-02 -5.282e+00 1.748e+00 -2.308e-03 -7.042e-05 -1.578e-03
301 1 1.747e+00 5.283e+00 -1.262e-02 1.600e-03 -3.776e-03 -3.001e-05
302 1 1.748e+00 -5.283e+00 -1.406e-02 4.093e-03 3.210e-03 6.965e-03
303 1 5.263e+00 -5.525e-04 -1.768e+00 2.985e-03 1.113e-03 7.704e-04
304 1 -5.293e+00 1.803e-05 1.746e+00 -4.759e-03 3.821e-03 1.000e-02
305 1 -5.292e+00 3.447e-04 -1.775e+00 -2.350e-04 -4.019e-03 -4.028e-03
306 1 -5.291e+00 1.761e+00 -1.536e-02 -2.535e-03 -7.175e-04 7.083e-03
307 1 -5.292e+00 -1.760e+00 -1.429e-02 -6.302e-03 3.362e-03 2.550e-03
308 1 -1.168e-02 -5.280e+00 -1.772e+00 -2.513e-05 -1.232e-03 2.222e-03
309 1 -1.170e-02 5.277e+00 -1.772e+00 -2.173e-03 -4.860e-03 -5.978e-03
310 1 -1.771e+00 5.279e+00 -1.143e-02 1.961e-03 -8.717e-04 -2.607e-03
311 1 -1.770e+00 -5.276e+00 -1.336e-02 3.620e-03 -6.174e-04 -4.697e-03
312 1 5.263e+00 1.758e+00 -9.405e-03 -2.729e-03 7.367e-04 -3.404e-03
313 1 5.262e+00 -1.758e+00 -1.051e-02 1.407e-03 4.055e-04 -2.779e-03
314 1 3.508e+00 1.063e-03 -3.533e+00 -2.645e-03 1.845e-03 -4.454e-04
315 1 -3.533e+00 -1.023e-03 3.508e+00 5.417e-03 -2.455e-03 -6.743e-03
316 1 -3.529e+00 5.977e-04 -3.532e+00 -1.529e-03 2.994e-03 2.444e-03
317 1 -3.530e+00 -3.520e+00 -1.185e-02 -6.883e-03 9.653e-04 2.071e-06
318 1 -3.531e+00 3.518e+00 -1.096e-02 1.111e-03 -1.167e-03 4.562e-04
319 1 -1.212e-02 3.517e+00 -3.533e+00 1.664e-03 -2.263e-03 -4.720e-03
320 1 -1.217e-02 -3.516e+00 -3.533e+00 2.147e-03 -1.848e-04 -2.351e-03
321 1 3.505e+00 -3.516e+00 -9.181e-03 -5.711e-04 1.557e-03 2.137e-03
322 1 3.504e+00 3.515e+00 -9.264e-03 1.196e-03 -2.236e-03 -2.343e-03
323 1 -8.234e-03 3.517e+00 3.504e+00 -2.915e-04 -8.793e-04 -1.923e-03
324 1 -1.006e-02 -3.517e+00 3.504e+00 -2.704e-03 -1.253e-03 -7.391e-04
325 1 1.747e+00 -1.747e+00 3.493e+00 -5.706e-03 8.216e-03 2.084e-03
326 1 1.747e+00 1.748e+00 3.495e+00 -2.315e-03 5.021e-03 3.254e-03
327 1 3.493e+00 1.747e+00 1.747e+00 -3.185e-03 5.068e-03 -2.887e-03
328 1 3.494e+00 -1.747e+00 1.747e+00 8.106e-03 2.045e-02 1.709e-02
329 1 1.746e+00 -1.761e+00 -3.532e+00 5.792e-04 3.763e-04 -1.533e-03
330 1 1.746e+00 1.761e+00 -3.533e+00 5.513e-03 2.220e-03 1.161e-03
331 1 -1.766e+00 -1.756e+00 3.505e+00 1.544e-03 -1.518e-03 -2.852e-03
332 1 -1.768e+00 1.757e+00 3.503e+00 1.659e-03 -4.468e-03 -8.292e-03
333 1 -1.772e+00 -1.760e+00 -3.534e+00 -1.725e-03 -8.307e-04 -1.313e-03
334 1 -1.770e+00 1.758e+00 -3.535e+00 1.957e-03 -3.375e-03 -7.844e-03
335 1 3.504e+00 1.756e+00 -1.769e+00 8.875e-04 -2.009e-05 -3.259e-03
336 1 3.505e+00 -1.757e+00 -1.771e+00 -2.365e-03 -1.962e-03 -2.192e-03
337 1 -3.533e+00 1.760e+00 1.746e+00 -1.984e-03 -5.741e-04 2.492e-03
338 1 -3.534e+00 -1.761e+00 1.748e+00 -3.115e-03 4.886e-03 6.583e-03
339 1 -3.530e+00 1.757e+00 -1.774e+00 -6.347e-03 6.365e-03 8.772e-03
340 1 -3.529e+00 -1.760e+00 -1.771e+00 4.393e-03 -2.489e-03 -4.695e-03
341 1 -1.771e+00 3.518e+00 -1.772e+00 2.617e-03 -2.073e-03 -3.560e-03
342 1 -1.769e+00 -3.517e+00 -1.773e+00 7.639e-04 -4.637e-03 -7.289e-03
343 1 1.749e+00 -3.515e+00 -1.767e+00 1.428e-03 5.787e-04 1.581e-03
344 1 1.749e+00 3.514e+00 -1.768e+00 3.746e-03 -2.700e-03 -1.917e-03
345 1 -1.766e+00 3.514e+00 1.747e+00 -7.849e-04 3.759e-03 -1.837e-03
346 1 -1.768e+00 -3.513e+00 1.746e+00 -2.364e-03 -2.352e-03 1.931e-03
347 1 1.748e+00 3.531e+00 1.746e+00 1.177e-02 -1.062e-02 1.045e-03
348 1 1.746e+00 -3.528e+00 1.747e+00 -6.274e-03 8.924e-03 3.202e-03
349 1 1.746e+00 -1.389e-03 5.275e+00 5.569e-03 -8.448e-03 -1.973e-02
350 1 -1.768e+00 -7.255e-04 5.262e+00 1.418e-03 -4.855e-04 3.370e-04
351 1 -8.896e-03 -1.756e+00 5.264e+00 1.614e-03 -1.146e-03 -8.184e-04
352 1 -1.032e-02 1.757e+00 5.262e+00 -8.123e-05 -3.704e-03 -5.280e-03
353 1 1.124e-03 6.167e-04 5.545e-04 1.793e+00 2.555e-03 1.701e+00
354 1 -7.316e-04 -1.376e-03 3.495e+00 -1.055e-02 1.427e-02 1.164e-02
355 1 3.495e+00 3.221e-04 -1.804e-04 3.829e-03 -9.497e-03 -1.831e-02
356 1 2.818e-04 -1.749e+00 1.746e+00 -5.024e-03 7.363e-03 7.383e-04
357 1 3.895e-04 1.745e+00 1.746e+00 -8.866e-03 7.628e-04 -7.399e-03
358 1 1.748e+00 1.745e+00 1.705e-03 -7.945e-04 2.084e-03 -7.599e-03
359 1 1.746e+00 -1.746e+00 -2.009e-03 6.478e-03 3.786e-03 1.428e-03
360 1 -1.063e-02 3.514e+00 -8.645e-03 -1.109e-03 2.126e-03 -7.994e-05
361 1 -1.103e-02 -3.516e+00 -1.087e-02 -3.594e-03 -9.752e-04 -6.312e-05
362 1 -1.412e-02 -6.669e-04 -3.532e+00 -1.348e-03 2.570e-04 6.309e-03
363 1 -3.533e+00 7.181e-04 -1.464e-02 6.989e-03 -3.624e-03 -7.060e-03
364 1 -1.782e+00 -1.172e-03 1.746e+00 2.793e-03 5.435e-03 9.585e-03
365 1 1.748e+00 5.511e-04 -1.782e+00 -1.399e-03 3.006e-03 1.945e-02
366 1 -1.768e+00 -1.105e-03 -1.768e+00 -1.079e-03 -7.020e-04 -3.427e-04
367 1 -9.661e-03 -1.757e+00 -1.769e+00 -2.054e-03 -1.472e-03 -7.813e-03
368 1 -1.042e-02 1.757e+00 -1.769e+00 -3.466e-03 -1.955e-03 -2.221e-03
369 1 -1.768e+00 1.755e+00 -1.156e-02 1.644e-03 1.516e-03 -2.005e-03
370 1 -1.771e+00 -1.758e+00 -9.683e-03 -8.342e-04 -4.488e-04 -5.146e-03
ITEM: TIMESTEP
0
ITEM: NUMBER OF ATOMS
74
ITEM: BOX BOUNDS xy xz yz pp pp pp
                     0.00000000000000e+00 1.06200000000000e+01 0.00000000000000e+00
0.00000000000000e+00	1.06200000000000e+01	0.00000000000000e+00
0.00000000000000e+00	1.06200000000000e+01	0.00000000000000e+00
ITEM: ATOMS id type x y z DisplacementX DisplacementY DisplacementZ
371 1 -5.277e+00 -1.072e-03 1.746e+00 2.040e-02 -7.126e-03 -9.544e-03
372 1 -3.495e+00 -8.393e-05 3.496e+00 -5.501e-03 7.959e-03 1.679e-03
373 1 1.347e-02 5.282e+00 1.747e+00 -3.421e-03 -2.658e-04 -9.777e-04
374 1 1.345e-02 -5.281e+00 1.747e+00 -3.937e-03 4.380e-04 -2.108e-03
375 1 -1.746e+00 5.280e+00 -1.458e-02 -9.630e-04 2.226e-03 6.374e-03
376 1 -1.746e+00 -5.281e+00 -1.324e-02 4.235e-03 1.116e-03 1.851e-03
377 1 -5.260e+00 2.265e-03 -1.767e+00 -2.704e-03 -2.465e-04 1.711e-03
378 1 5.290e+00 -2.655e-04 1.747e+00 -3.592e-03 7.057e-04 4.529e-03
379 1 5.292e+00 4.430e-04 -1.774e+00 -7.940e-03 -7.756e-03 -1.310e-02
380 1 5.294e+00 1.761e+00 -1.386e-02 1.032e-04 3.498e-03 1.305e-02
381 1 5.292e+00 -1.761e+00 -1.291e-02 2.791e-03 -2.311e-05 -1.162e-03
382 1 1.241e-02 -5.277e+00 -1.772e+00 3.089e-04 -4.489e-04 1.704e-04
383 1 1.024e-02 5.277e+00 -1.772e+00 2.928e-04 9.598e-04 -3.007e-04
384 1 1.771e+00 5.279e+00 -1.217e-02 -3.948e-03 2.125e-04 3.225e-03
385 1 1.772e+00 -5.280e+00 -1.222e-02 6.106e-04 -5.924e-04 -5.967e-04
386 1 -5.264e+00 1.757e+00 -9.811e-03 -1.569e-03 1.180e-03 2.690e-03
387 1 -5.265e+00 -1.758e+00 -9.586e-03 1.412e-03 3.424e-03 2.802e-03
388 1 -3.507e+00 2.246e-05 -3.534e+00 -1.234e-03 -2.540e-04 -2.114e-04
389 1 3.534e+00 2.518e-04 3.507e+00 -5.748e-03 3.469e-03 5.704e-04
390 1 3.529e+00 3.768e-05 -3.533e+00 -3.510e-03 2.270e-03 5.470e-03
391 1 3.531e+00 -3.517e+00 -1.229e-02 3.417e-03 -2.696e-03 -3.455e-03
392 1 3.530e+00 3.518e+00 -1.268e-02 3.506e-03 1.062e-03 2.035e-03
393 1 1.205e-02 3.518e+00 -3.532e+00 2.931e-03 4.658e-03 6.912e-03
394 1 1.009e-02 -3.518e+00 -3.534e+00 4.102e-03 -3.411e-03 -8.860e-03
395 1 -3.504e+00 -3.518e+00 -9.200e-03 -3.424e-03 7.977e-05 2.312e-03
396 1 -3.505e+00 3.517e+00 -1.208e-02 3.725e-03 1.276e-03 -3.330e-03
397 1 8.473e-03 3.517e+00 3.505e+00 4.185e-04 1.207e-03 3.722e-03
398 1 9.839e-03 -3.517e+00 3.505e+00 6.035e-03 9.725e-04 1.151e-03
399 1 -1.747e+00 -1.748e+00 3.494e+00 -1.592e-04 1.291e-03 -8.852e-03
400 1 -1.747e+00 1.748e+00 3.494e+00 -2.288e-03 2.506e-04 9.709e-03
401 1 -3.495e+00 1.746e+00 1.747e+00 1.187e-03 -3.778e-03 -7.449e-03
402 1 -3.495e+00 -1.748e+00 1.747e+00 3.368e-03 -3.112e-03 -1.580e-02
403 1 -1.748e+00 -1.760e+00 -3.533e+00 4.813e-05 -3.076e-03 -1.847e-03
404 1 -1.748e+00 1.761e+00 -3.534e+00 1.298e-03 -3.522e-03 1.191e-04
405 1 1.769e+00 -1.758e+00 3.502e+00 1.457e-05 1.511e-03 2.337e-03