        3999
Lattice="  35.4000   0.0000   0.0000   0.0000  35.4000   0.0000   0.0000   0.0000  35.4000 " Time=0.000E+00  Step=0  Energy=-17786.883  Barrier=0.000
Ni     0.35399853    0.35399853    0.35404673       1
Ni     2.12400000    2.12400000    0.35405506       2
Ni     2.12400000    0.35399573    2.12402478       3
Ni     0.35399573    2.12400000    2.12402478       4
Ni     3.89400147    0.35399853    0.35404673       5
Ni     5.66400200    2.12400000    0.35403786       6
Ni     5.66400509    0.35399836    2.12401727       7
Ni     3.89400427    2.12400000    2.12402478       8
Ni     7.43399092    0.35400517    0.35400993       9
Ni     9.20397319    2.12400000    0.35397811      10
Ni     9.20399168    0.35400409    2.12399220      11
Ni     7.43400409    2.12400000    2.12400905      12
Ni    10.97393512    0.35401359    0.35392970      13
Ni    12.74390260    2.12400000    0.35389541      14
Ni    12.74394860    0.35401037    2.12395444      15
Ni    10.97397516    2.12400000    2.12397467      16
Ni    14.51388590    0.35401813    0.35388418      17
Ni    16.28390354    2.12400000    0.35390354      18
Ni    16.28393246    0.35401411    2.12394764      19
Ni    14.51393214    2.12400000    2.12394490      20
Ni    18.05394764    0.35401411    0.35393246      21
Ni    19.82400000    2.12400000    0.35394506      22
Ni    19.82400000    0.35401427    2.12396386      23
Ni    18.05395778    2.12400000    2.12395778      24
Ni    21.59405236    0.35401411    0.35393246      25
Ni    23.36409646    2.12400000    0.35390354      26
Ni    23.36406754    0.35401411    2.12394764      27
Ni    21.59404222    2.12400000    2.12395778      28
Ni    25.13411410    0.35401813    0.35388418      29
Ni    26.90409740    2.12400000    0.35389541      30
Ni    26.90405140    0.35401037    2.12395444      31
Ni    25.13406786    2.12400000    2.12394490      32
Ni    28.67406488    0.35401359    0.35392970      33
Ni    30.44402681    2.12400000    0.35397811      34
Ni    30.44400832    0.35400409    2.12399220      35
Ni    28.67402484    2.12400000    2.12397467      36
Ni    32.21400908    0.35400517    0.35400993      37
Ni    33.98399800    2.12400000    0.35403786      38
Ni    33.98399491    0.35399836    2.12401727      39
Ni    32.21399591    2.12400000    2.12400905      40
Ni     0.35399853    3.89400147    0.35404673      41
Ni     2.12400000    5.66400200    0.35403786      42
Ni     2.12400000    3.89400427    2.12402478      43
Ni     0.35399836    5.66400509    2.12401727      44
Ni     3.89400147    3.89400147    0.35404673      45
Ni     5.66399421    5.66399421    0.35402039      46
Ni     5.66400509    3.89400164    2.12401727      47
Ni     3.89400164    5.66400509    2.12401727      48
Ni     7.43399092    3.89399483    0.35400993      49
Ni     9.20395963    5.66397810    0.35396161      50
Ni     9.20399168    3.89399591    2.12399220      51
Ni     7.43399650    5.66399588    2.12400152      52
Ni    10.97393512    3.89398641    0.35392970      53
Ni    12.74389257    5.66396229    0.35388542      54
Ni    12.74394860    3.89398963    2.12395444      55
Ni    10.97396544    5.66398341    2.12396829      56
Ni    14.51388590    3.89398187    0.35388418      57
Ni    16.28390848    5.66396757    0.35390848      58
Ni    16.28393246    3.89398589    2.12394764      59
Ni    14.51392736    5.66397296    2.12394304      60
Ni    18.05394764    3.89398589    0.35393246      61
Ni    19.82400000    5.66397312    0.35394306      62
Ni    19.82400000    3.89398573    2.12396386      63
Ni    18.05395962    5.66397155    2.12395962      64
Ni    21.59405236    3.89398589    0.35393246      65
Ni    23.36409152    5.66396757    0.35390848      66
Ni    23.36406754    3.89398589    2.12394764      67
Ni    21.59404038    5.66397155    2.12395962      68
Ni    25.13411410    3.89398187    0.35388418      69
Ni    26.90410743    5.66396229    0.35388542      70
Ni    26.90405140    3.89398963    2.12395444      71
Ni    25.13407264    5.66397296    2.12394304      72
Ni    28.67406488    3.89398641    0.35392970      73
Ni    30.44404037    5.66397810    0.35396161      74
Ni    30.44400832    3.89399591    2.12399220      75
Ni    28.67403456    5.66398341    2.12396829      76
Ni    32.21400908    3.89399483    0.35400993      77
Ni    33.98400579    5.66399421    0.35402039      78
Ni    33.98399491    3.89400164    2.12401727      79
Ni    32.21400350    5.66399588    2.12400152      80
Ni     0.35400517    7.43399092    0.35400993      81
Ni     2.12400000    9.20397319    0.35397811      82
Ni     2.12400000    7.43400409    2.12400905      83
Ni     0.35400409    9.20399168    2.12399220      84
Ni     3.89399483    7.43399092    0.35400993      85
Ni     5.66397810    9.20395963    0.35396161      86
Ni     5.66399588    7.43399650    2.12400152      87
Ni     3.89399591    9.20399168    2.12399220      88
Ni     7.43397151    7.43397151    0.35397398      89
Ni     9.20392600    9.20392600    0.35390257      90
Ni     9.20397511    7.43397960    2.12397754      91
Ni     7.43397960    9.20397511    2.12397754      92
Ni    10.97390888    7.43394347    0.35389666      93
Ni    12.74388855    9.20392075    0.35388246      94
Ni    12.74393353    7.43396163    2.12394481      95
Ni    10.97394249    9.20395167    2.12394788      96
Ni    14.51388961    7.43394483    0.35389027      97
Ni    16.28391667    9.20393703    0.35391667      98
Ni    16.28393357    7.43395727    2.12395161      99
Ni    14.51392286    9.20394327    2.12394586     100
Ni    18.05395161    7.43395727    0.35393357     101
Ni    19.82400000    9.20394716    0.35394239     102
Ni    19.82400000    7.43395852    2.12396519     103
Ni    18.05396287    9.20394632    2.12396287     104
Ni    21.59404839    7.43395727    0.35393357     105
Ni    23.36408333    9.20393703    0.35391667     106
Ni    23.36406643    7.43395727    2.12395161     107
Ni    21.59403713    9.20394632    2.12396287     108
Ni    25.13411039    7.43394483    0.35389027     109
Ni    26.90411145    9.20392075    0.35388246     110
Ni    26.90406647    7.43396163    2.12394481     111
Ni    25.13407714    9.20394327    2.12394586     112
Ni    28.67409112    7.43394347    0.35389666     113
Ni    30.44407400    9.20392600    0.35390257     114
Ni    30.44402489    7.43397960    2.12397754     115
Ni    28.67405751    9.20395167    2.12394788     116
Ni    32.21402849    7.43397151    0.35397398     117
Ni    33.98402190    9.20395963    0.35396161     118
Ni    33.98400412    7.43399650    2.12400152     119
Ni    32.21402040    9.20397511    2.12397754     120
Ni     0.35401359   10.97393512    0.35392970     121
Ni     2.12400000   12.74390260    0.35389541     122
Ni     2.12400000   10.97397516    2.12397467     123
Ni     0.35401037   12.74394860    2.12395444     124
Ni     3.89398641   10.97393512    0.35392970     125
Ni     5.66396229   12.74389257    0.35388542     126
Ni     5.66398341   10.97396544    2.12396829     127
Ni     3.89398963   12.74394860    2.12395444     128
Ni     7.43394347   10.97390888    0.35389666     129
Ni     9.20392075   12.74388855    0.35388246     130
Ni     9.20395167   10.97394249    2.12394788     131
Ni     7.43396163   12.74393353    2.12394481     132
Ni    10.97390034   10.97390034    0.35388084     133
Ni    12.74390086   12.74390086    0.35389890     134
Ni    12.74392332   10.97393111    2.12394348     135
Ni    10.97393111   12.74392332    2.12394348     136
Ni    14.51389976   10.97391579    0.35390356     137
Ni    16.28392988   12.74392347    0.35392988     138
Ni    16.28393786   10.97393506    2.12395783     139
Ni    14.51392667   12.74392710    2.12395440     140
Ni    18.05395783   10.97393506    0.35393786     141
Ni    19.82400000   12.74393508    0.35394632     142
Ni    19.82400000   10.97393957    2.12396794     143
Ni    18.05396778   12.74393603    2.12396778     144
Ni    21.59404217   10.97393506    0.35393786     145
Ni    23.36407012   12.74392347    0.35392988     146
Ni    23.36406214   10.97393506    2.12395783     147
Ni    21.59403222   12.74393603    2.12396778     148
Ni    25.13410024   10.97391579    0.35390356     149
Ni    26.90409914   12.74390086    0.35389890     150
Ni    26.90407668   10.97393111    2.12394348     151
Ni    25.13407333   12.74392710    2.12395440     152
Ni    28.67409966   10.97390034    0.35388084     153
Ni    30.44407925   12.74388855    0.35388246     154
Ni    30.44404833   10.97394249    2.12394788     155
Ni    28.67406889   12.74392332    2.12394348     156
Ni    32.21405653   10.97390888    0.35389666     157
Ni    33.98403771   12.74389257    0.35388542     158
Ni    33.98401659   10.97396544    2.12396829     159
Ni    32.21403837   12.74393353    2.12394481     160
Ni     0.35401813   14.51388590    0.35388418     161
Ni     2.12400000   16.28390354    0.35390354     162
Ni     2.12400000   14.51393214    2.12394490     163
Ni     0.35401411   16.28393246    2.12394764     164
Ni     3.89398187   14.51388590    0.35388418     165
Ni     5.66396757   16.28390848    0.35390848     166
Ni     5.66397296   14.51392736    2.12394304     167
Ni     3.89398589   16.28393246    2.12394764     168
Ni     7.43394483   14.51388961    0.35389027     169
Ni     9.20393703   16.28391667    0.35391667     170
Ni     9.20394327   14.51392286    2.12394586     171
Ni     7.43395727   16.28393357    2.12395161     172
Ni    10.97391579   14.51389976    0.35390356     173
Ni    12.74392347   16.28392988    0.35392988     174
Ni    12.74392710   14.51392667    2.12395440     175
Ni    10.97393506   16.28393786    2.12395783     176
Ni    14.51391934   14.51391934    0.35392630     177
Ni    16.28394584   16.28394584    0.35394584     178
Ni    16.28394670   14.51393717    2.12396635     179
Ni    14.51393717   16.28394670    2.12396635     180
Ni    18.05396635   14.51393717    0.35394670     181
Ni    19.82400000   16.28395351    0.35395351     182
Ni    19.82400000   14.51394301    2.12397235     183
Ni    18.05397349   16.28395497    2.12397349     184
Ni    21.59403365   14.51393717    0.35394670     185
Ni    23.36405416   16.28394584    0.35394584     186
Ni    23.36405330   14.51393717    2.12396635     187
Ni    21.59402651   16.28395497    2.12397349     188
Ni    25.13408066   14.51391934    0.35392630     189
Ni    26.90407653   16.28392988    0.35392988     190
Ni    26.90407290   14.51392667    2.12395440     191
Ni    25.13406283   16.28394670    2.12396635     192
Ni    28.67408421   14.51389976    0.35390356     193
Ni    30.44406297   16.28391667    0.35391667     194
Ni    30.44405673   14.51392286    2.12394586     195
Ni    28.67406494   16.28393786    2.12395783     196
Ni    32.21405517   14.51388961    0.35389027     197
Ni    33.98403243   16.28390848    0.35390848     198
Ni    33.98402704   14.51392736    2.12394304     199
Ni    32.21404273   16.28393357    2.12395161     200
Ni     0.35399577    0.35399577    3.89400000     201
Ni     2.12400000    2.12400000    3.89400000     202
Ni     2.12400000    0.35399573    5.66397522     203
Ni     0.35399573    2.12400000    5.66397522     204
Ni     3.89400423    0.35399577    3.89400000     205
Ni     5.66400792    2.12400000    3.89400000     206
Ni     5.66400509    0.35399836    5.66398273     207
Ni     3.89400427    2.12400000    5.66397522     208
Ni     7.43400544    0.35399978    3.89400000     209
Ni     9.20400029    2.12400000    3.89400000     210
Ni     9.20399168    0.35400409    5.66400780     211
Ni     7.43400409    2.12400000    5.66399095     212
Ni    10.97398366    0.35400540    3.89400000     213
Ni    12.74396603    2.12400000    3.89400000     214
Ni    12.74394860    0.35401037    5.66404556     215
Ni    10.97397516    2.12400000    5.66402533     216
Ni    14.51394702    0.35401109    3.89400000     217
Ni    16.28394506    2.12400000    3.89400000     218
Ni    16.28393246    0.35401411    5.66405236     219
Ni    14.51393214    2.12400000    5.66405510     220
Ni    18.05396386    0.35401427    3.89400000     221
Ni    19.82400000    2.12400000    3.89400000     222
Ni    19.82400000    0.35401427    5.66403614     223
Ni    18.05395778    2.12400000    5.66404222     224
Ni    21.59403614    0.35401427    3.89400000     225
Ni    23.36405494    2.12400000    3.89400000     226
Ni    23.36406754    0.35401411    5.66405236     227
Ni    21.59404222    2.12400000    5.66404222     228
Ni    25.13405298    0.35401109    3.89400000     229
Ni    26.90403397    2.12400000    3.89400000     230
Ni    26.90405140    0.35401037    5.66404556     231
Ni    25.13406786    2.12400000    5.66405510     232
Ni    28.67401634    0.35400540    3.89400000     233
Ni    30.44399971    2.12400000    3.89400000     234
Ni    30.44400832    0.35400409    5.66400780     235
Ni    28.67402484    2.12400000    5.66402533     236
Ni    32.21399456    0.35399978    3.89400000     237
Ni    33.98399208    2.12400000    3.89400000     238
Ni    33.98399491    0.35399836    5.66398273     239
Ni    32.21399591    2.12400000    5.66399095     240
Ni     0.35399577    3.89400423    3.89400000     241
Ni     2.12400000    5.66400792    3.89400000     242
Ni     2.12400000    3.89400427    5.66397522     243
Ni     0.35399836    5.66400509    5.66398273     244
Ni     3.89400423    3.89400423    3.89400000     245
Ni     5.66400343    5.66400343    3.89400000     246
Ni     5.66400509    3.89400164    5.66398273     247
Ni     3.89400164    5.66400509    5.66398273     248
Ni     7.43400544    3.89400022    3.89400000     249
Ni     9.20399227    5.66399327    3.89400000     250
Ni     9.20399168    3.89399591    5.66400780     251
Ni     7.43399650    5.66399588    5.66399848     252
Ni    10.97398366    3.89399460    3.89400000     253
Ni    12.74395829    5.66398177    3.89400000     254
Ni    12.74394860    3.89398963    5.66404556     255
Ni    10.97396544    5.66398341    5.66403171     256
Ni    14.51394702    3.89398891    3.89400000     257
Ni    16.28394306    5.66397312    3.89400000     258
Ni    16.28393246    3.89398589    5.66405236     259
Ni    14.51392736    5.66397296    5.66405696     260
Ni    18.05396386    3.89398573    3.89400000     261
Ni    19.82400000    5.66397140    3.89400000     262
Ni    19.82400000    3.89398573    5.66403614     263
Ni    18.05395962    5.66397155    5.66404038     264
Ni    21.59403614    3.89398573    3.89400000     265
Ni    23.36405694    5.66397312    3.89400000     266
Ni    23.36406754    3.89398589    5.66405236     267
Ni    21.59404038    5.66397155    5.66404038     268
Ni    25.13405298    3.89398891    3.89400000     269
Ni    26.90404171    5.66398177    3.89400000     270
Ni    26.90405140    3.89398963    5.66404556     271
Ni    25.13407264    5.66397296    5.66405696     272
Ni    28.67401634    3.89399460    3.89400000     273
Ni    30.44400773    5.66399327    3.89400000     274
Ni    30.44400832    3.89399591    5.66400780     275
Ni    28.67403456    5.66398341    5.66403171     276
Ni    32.21399456    3.89400022    3.89400000     277
Ni    33.98399657    5.66400343    3.89400000     278
Ni    33.98399491    3.89400164    5.66398273     279
Ni    32.21400350    5.66399588    5.66399848     280
Ni     0.35399978    7.43400544    3.89400000     281
Ni     2.12400000    9.20400029    3.89400000     282
Ni     2.12400000    7.43400409    5.66399095     283
Ni     0.35400409    9.20399168    5.66400780     284
Ni     3.89400022    7.43400544    3.89400000     285
Ni     5.66399327    9.20399227    3.89400000     286
Ni     5.66399588    7.43399650    5.66399848     287
Ni     3.89399591    9.20399168    5.66400780     288
Ni     7.43399374    7.43399374    3.89400000     289
Ni     9.20397371    9.20397371    3.89400000     290
Ni     9.20397511    7.43397960    5.66402246     291
Ni     7.43397960    9.20397511    5.66402246     292
Ni    10.97396812    7.43397736    3.89400000     293
Ni    12.74394041    9.20395368    3.89400000     294
Ni    12.74393353    7.43396163    5.66405519     295
Ni    10.97394249    9.20395167    5.66405212     296
Ni    14.51393763    7.43396256    3.89400000     297
Ni    16.28394239    9.20394716    3.89400000     298
Ni    16.28393357    7.43395727    5.66404839     299
Ni    14.51392286    9.20394327    5.66405414     300
Ni    18.05396519    7.43395852    3.89400000     301
Ni    19.82400000    9.20394744    3.89400000     302
Ni    19.82400000    7.43395852    5.66403481     303
Ni    18.05396287    9.20394632    5.66403713     304
Ni    21.59403481    7.43395852    3.89400000     305
Ni    23.36405761    9.20394716    3.89400000     306
Ni    23.36406643    7.43395727    5.66404839     307
Ni    21.59403713    9.20394632    5.66403713     308
Ni    25.13406237    7.43396256    3.89400000     309
Ni    26.90405959    9.20395368    3.89400000     310
Ni    26.90406647    7.43396163    5.66405519     311
Ni    25.13407714    9.20394327    5.66405414     312
Ni    28.67403188    7.43397736    3.89400000     313
Ni    30.44402629    9.20397371    3.89400000     314
Ni    30.44402489    7.43397960    5.66402246     315
Ni    28.67405751    9.20395167    5.66405212     316
Ni    32.21400626    7.43399374    3.89400000     317
Ni    33.98400673    9.20399227    3.89400000     318
Ni    33.98400412    7.43399650    5.66399848     319
Ni    32.21402040    9.20397511    5.66402246     320
Ni     0.35400540   10.97398366    3.89400000     321
Ni     2.12400000   12.74396603    3.89400000     322
Ni     2.12400000   10.97397516    5.66402533     323
Ni     0.35401037   12.74394860    5.66404556     324
Ni     3.89399460   10.97398366    3.89400000     325
Ni     5.66398177   12.74395829    3.89400000     326
Ni     5.66398341   10.97396544    5.66403171     327
Ni     3.89398963   12.74394860    5.66404556     328
Ni     7.43397736   10.97396812    3.89400000     329
Ni     9.20395368   12.74394041    3.89400000     330
Ni     9.20395167   10.97394249    5.66405212     331
Ni     7.43396163   12.74393353    5.66405519     332
Ni    10.97394626   10.97394626    3.89400000     333
Ni    12.74393183   12.74393183    3.89400000     334
Ni    12.74392332   10.97393111    5.66405652     335
Ni    10.97393111   12.74392332    5.66405652     336
Ni    14.51393230   10.97393770    3.89400000     337
Ni    16.28394632   12.74393508    3.89400000     338
Ni    16.28393786   10.97393506    5.66404217     339
Ni    14.51392667   12.74392710    5.66404560     340
Ni    18.05396794   10.97393957    3.89400000     341
Ni    19.82400000   12.74393865    3.89400000     342
Ni    19.82400000   10.97393957    5.66403206     343
Ni    18.05396778   12.74393603    5.66403222     344
Ni    21.59403206   10.97393957    3.89400000     345
Ni    23.36405368   12.74393508    3.89400000     346
Ni    23.36406214   10.97393506    5.66404217     347
Ni    21.59403222   12.74393603    5.66403222     348
Ni    25.13406770   10.97393770    3.89400000     349
Ni    26.90406817   12.74393183    3.89400000     350
Ni    26.90407668   10.97393111    5.66405652     351
Ni    25.13407333   12.74392710    5.66404560     352
Ni    28.67405374   10.97394626    3.89400000     353
Ni    30.44404632   12.74394041    3.89400000     354
Ni    30.44404833   10.97394249    5.66405212     355
Ni    28.67406889   12.74392332    5.66405652     356
Ni    32.21402264   10.97396812    3.89400000     357
Ni    33.98401823   12.74395829    3.89400000     358
Ni    33.98401659   10.97396544    5.66403171     359
Ni    32.21403837   12.74393353    5.66405519     360
Ni     0.35401109   14.51394702    3.89400000     361
Ni     2.12400000   16.28394506    3.89400000     362
Ni     2.12400000   14.51393214    5.66405510     363
Ni     0.35401411   16.28393246    5.66405236     364
Ni     3.89398891   14.51394702    3.89400000     365
Ni     5.66397312   16.28394306    3.89400000     366
Ni     5.66397296   14.51392736    5.66405696     367
Ni     3.89398589   16.28393246    5.66405236     368
Ni     7.43396256   14.51393763    3.89400000     369
Ni     9.20394716   16.28394239    3.89400000     370
Ni     9.20394327   14.51392286    5.66405414     371
Ni     7.43395727   16.28393357    5.66404839     372
Ni    10.97393770   14.51393230    3.89400000     373
Ni    12.74393508   16.28394632    3.89400000     374
Ni    12.74392710   14.51392667    5.66404560     375
Ni    10.97393506   16.28393786    5.66404217     376
Ni    14.51393619   14.51393619    3.89400000     377
Ni    16.28395351   16.28395351    3.89400000     378
Ni    16.28394670   14.51393717    5.66403365     379
Ni    14.51393717   16.28394670    5.66403365     380
Ni    18.05397235   14.51394301    3.89400000     381
Ni    19.82400000   16.28395728    3.89400000     382
Ni    19.82400000   14.51394301    5.66402765     383
Ni    18.05397349   16.28395497    5.66402651     384
Ni    21.59402765   14.51394301    3.89400000     385
Ni    23.36404649   16.28395351    3.89400000     386
Ni    23.36405330   14.51393717    5.66403365     387
Ni    21.59402651   16.28395497    5.66402651     388
Ni    25.13406381   14.51393619    3.89400000     389
Ni    26.90406492   16.28394632    3.89400000     390
Ni    26.90407290   14.51392667    5.66404560     391
Ni    25.13406283   16.28394670    5.66403365     392
Ni    28.67406230   14.51393230    3.89400000     393
Ni    30.44405284   16.28394239    3.89400000     394
Ni    30.44405673   14.51392286    5.66405414     395
Ni    28.67406494   16.28393786    5.66404217     396
Ni    32.21403744   14.51393763    3.89400000     397
Ni    33.98402688   16.28394306    3.89400000     398
Ni    33.98402704   14.51392736    5.66405696     399
Ni    32.21404273   16.28393357    5.66404839     400
Ni     0.35399853    0.35399853    7.43395327     401
Ni     2.12400000    2.12400000    7.43394494     402
Ni     2.12400000    0.35400034    9.20391912     403
Ni     0.35400034    2.12400000    9.20391912     404
Ni     3.89400147    0.35399853    7.43395327     405
Ni     5.66400200    2.12400000    7.43396214     406
Ni     5.66399023    0.35400707    9.20395160     407
Ni     3.89399966    2.12400000    9.20391912     408
Ni     7.43399092    0.35400517    7.43399007     409
Ni     9.20397319    2.12400000    7.43402189     410
Ni     9.20392073    0.35401994    9.20407160     411
Ni     7.43397350    2.12400000    9.20399054     412
Ni    10.97393512    0.35401359    7.43407030     413
Ni    12.74390260    2.12400000    7.43410459     414
Ni    12.74381467    0.35403074    9.20419474     415
Ni    10.97386214    2.12400000    9.20414629     416
Ni    14.51388590    0.35401813    7.43411582     417
Ni    16.28390354    2.12400000    7.43409646     418
Ni    16.28388418    0.35401813    9.20411410     419
Ni    14.51382758    2.12400000    9.20417242     420
Ni    18.05394764    0.35401411    7.43406754     421
Ni    19.82400000    2.12400000    7.43405494     422
Ni    19.82400000    0.35401109    9.20405298     423
Ni    18.05394490    2.12400000    9.20406786     424
Ni    21.59405236    0.35401411    7.43406754     425
Ni    23.36409646    2.12400000    7.43409646     426
Ni    23.36411582    0.35401813    9.20411410     427
Ni    21.59405510    2.12400000    9.20406786     428
Ni    25.13411410    0.35401813    7.43411582     429
Ni    26.90409740    2.12400000    7.43410459     430
Ni    26.90418533    0.35403074    9.20419474     431
Ni    25.13417242    2.12400000    9.20417242     432
Ni    28.67406488    0.35401359    7.43407030     433
Ni    30.44402681    2.12400000    7.43402189     434
Ni    30.44407927    0.35401994    9.20407160     435
Ni    28.67413786    2.12400000    9.20414629     436
Ni    32.21400908    0.35400517    7.43399007     437
Ni    33.98399800    2.12400000    7.43396214     438
Ni    33.98400977    0.35400707    9.20395160     439
Ni    32.21402650    2.12400000    9.20399054     440
Ni     0.35399853    3.89400147    7.43395327     441
Ni     2.12400000    5.66400200    7.43396214     442
Ni     2.12400000    3.89399966    9.20391912     443
Ni     0.35400707    5.66399023    9.20395160     444
Ni     3.89400147    3.89400147    7.43395327     445
Ni     5.66399421    5.66399421    7.43397961     446
Ni     5.66399023    3.89399293    9.20395160     447
Ni     3.89399293    5.66399023    9.20395160     448
Ni     7.43399092    3.89399483    7.43399007     449
Ni     9.20395963    5.66397810    7.43403839     450
Ni     9.20392073    3.89398006    9.20407160     451
Ni     7.43395458    5.66396861    9.20402224     452
Ni    10.97393512    3.89398641    7.43407030     453
Ni    12.74389257    5.66396229    7.43411458     454
Ni    12.74381467    3.89396926    9.20419474     455
Ni    10.97383697    5.66393435    9.20417894     456
Ni    14.51388590    3.89398187    7.43411582     457
Ni    16.28390848    5.66396757    7.43409152     458
Ni    16.28388418    3.89398187    9.20411410     459
Ni    14.51383929    5.66395035    9.20416071     460
Ni    18.05394764    3.89398589    7.43406754     461
Ni    19.82400000    5.66397312    7.43405694     462
Ni    19.82400000    3.89398891    9.20405298     463
Ni    18.05394304    5.66397296    9.20407264     464
Ni    21.59405236    3.89398589    7.43406754     465
Ni    23.36409152    5.66396757    7.43409152     466
Ni    23.36411582    3.89398187    9.20411410     467
Ni    21.59405696    5.66397296    9.20407264     468
Ni    25.13411410    3.89398187    7.43411582     469
Ni    26.90410743    5.66396229    7.43411458     470
Ni    26.90418533    3.89396926    9.20419474     471
Ni    25.13416071    5.66395035    9.20416071     472
Ni    28.67406488    3.89398641    7.43407030     473
Ni    30.44404037    5.66397810    7.43403839     474
Ni    30.44407927    3.89398006    9.20407160     475
Ni    28.67416303    5.66393435    9.20417894     476
Ni    32.21400908    3.89399483    7.43399007     477
Ni    33.98400579    5.66399421    7.43397961     478
Ni    33.98400977    3.89399293    9.20395160     479
Ni    32.21404542    5.66396861    9.20402224     480
Ni     0.35400517    7.43399092    7.43399007     481
Ni     2.12400000    9.20397319    7.43402189     482
Ni     2.12400000    7.43397350    9.20399054     483
Ni     0.35401994    9.20392073    9.20407160     484
Ni     3.89399483    7.43399092    7.43399007     485
Ni     5.66397810    9.20395963    7.43403839     486
Ni     5.66396861    7.43395458    9.20402224     487
Ni     3.89398006    9.20392073    9.20407160     488
Ni     7.43397151    7.43397151    7.43402602     489
Ni     9.20392600    9.20392600    7.43409743     490
Ni     9.20386872    7.43390066    9.20415759     491
Ni     7.43390066    9.20386872    9.20415759     492
Ni    10.97390888    7.43394347    7.43410334     493
Ni    12.74388855    9.20392075    7.43411754     494
Ni    12.74382375    7.43390843    9.20418605     495
Ni    10.97383483    9.20386598    9.20419332     496
Ni    14.51388961    7.43394483    7.43410973     497
Ni    16.28391667    9.20393703    7.43408333     498
Ni    16.28389027    7.43394483    9.20411039     499
Ni    14.51385559    9.20390612    9.20414441     500
Ni    18.05395161    7.43395727    7.43406643     501
Ni    19.82400000    9.20394716    7.43405761     502
Ni    19.82400000    7.43396256    9.20406237     503
Ni    18.05394586    9.20394327    9.20407714     504
Ni    21.59404839    7.43395727    7.43406643     505
Ni    23.36408333    9.20393703    7.43408333     506
Ni    23.36410973    7.43394483    9.20411039     507
Ni    21.59405414    9.20394327    9.20407714     508
Ni    25.13411039    7.43394483    7.43410973     509
Ni    26.90411145    9.20392075    7.43411754     510
Ni    26.90417625    7.43390843    9.20418605     511
Ni    25.13414441    9.20390612    9.20414441     512
Ni    28.67409112    7.43394347    7.43410334     513
Ni    30.44407400    9.20392600    7.43409743     514
Ni    30.44413128    7.43390066    9.20415759     515
Ni    28.67416517    9.20386598    9.20419332     516
Ni    32.21402849    7.43397151    7.43402602     517
Ni    33.98402190    9.20395963    7.43403839     518
Ni    33.98403139    7.43395458    9.20402224     519
Ni    32.21409934    9.20386872    9.20415759     520
Ni     0.35401359   10.97393512    7.43407030     521
Ni     2.12400000   12.74390260    7.43410459     522
Ni     2.12400000   10.97386214    9.20414629     523
Ni     0.35403074   12.74381467    9.20419474     524
Ni     3.89398641   10.97393512    7.43407030     525
Ni     5.66396229   12.74389257    7.43411458     526
Ni     5.66393435   10.97383697    9.20417894     527
Ni     3.89396926   12.74381467    9.20419474     528
Ni     7.43394347   10.97390888    7.43410334     529
Ni     9.20392075   12.74388855    7.43411754     530
Ni     9.20386598   10.97383483    9.20419332     531
Ni     7.43390843   12.74382375    9.20418605     532
Ni    10.97390034   10.97390034    7.43411916     533
Ni    12.74390086   12.74390086    7.43410110     534
Ni    12.74384825   10.97386854    9.20416270     535
Ni    10.97386854   12.74384825    9.20416270     536
Ni    14.51389976   10.97391579    7.43409644     537
Ni    16.28392988   12.74392347    7.43407012     538
Ni    16.28390356   10.97391579    9.20410024     539
Ni    14.51388405   12.74389096    9.20411595     540
Ni    18.05395783   10.97393506    7.43406214     541
Ni    19.82400000   12.74393508    7.43405368     542
Ni    19.82400000   10.97393770    9.20406770     543
Ni    18.05395440   12.74392710    9.20407333     544
Ni    21.59404217   10.97393506    7.43406214     545
Ni    23.36407012   12.74392347    7.43407012     546
Ni    23.36409644   10.97391579    9.20410024     547
Ni    21.59404560   12.74392710    9.20407333     548
Ni    25.13410024   10.97391579    7.43409644     549
Ni    26.90409914   12.74390086    7.43410110     550
Ni    26.90415175   10.97386854    9.20416270     551
Ni    25.13411595   12.74389096    9.20411595     552