          12
Lattice="  35.4000   0.0000   0.0000   0.0000  35.4000   0.0000   0.0000   0.0000  35.4000 " Time=0.000E+00  Step=0
Ni     2.12400000    0.36380997   19.83380997    1003
Ni     0.36380997    2.12400000   19.83380997    1004
Ni     3.88419003    2.12400000   19.83380997    1008
Ni     2.12400000    3.88419003   19.83380997    1043
Ni     0.36380997    0.36380997   21.59400000    1201
Ni     2.12400000    0.36380997   23.35419003    1202
Ni     0.36380997    2.12400000   23.35419003    1203
Ni     3.88419003    0.36380997   21.59400000    1204
Ni     3.88419003    2.12400000   23.35419003    1207
Ni     0.36380997    3.88419003   21.59400000    1240
Ni     2.12400000    3.88419003   23.35419003    1242
Ni     3.88419003    3.88419003   21.59400000    1244
          12
Lattice="  35.4000   0.0000   0.0000   0.0000  35.4000   0.0000   0.0000   0.0000  35.4000 " Time=4.167E+02  Step=0.5
Ni     2.12403422    2.16203054   18.12971628    1002
Ni     0.19191218    2.09119829   19.79028471    1004
Ni     4.05627376    2.09171075   19.78964086    1008
Ni     0.35010657    3.88158383   18.08953827    1041
Ni     2.12383980    5.62877062   18.08964759    1042
Ni     2.12413592    3.00976676   20.70831818    1043
Ni     0.35003327    5.62889071   19.83667004    1044
Ni     3.89784360    3.88205104   18.08894864    1045
Ni     3.89805341    5.62947879   19.83611026    1048
Ni     0.19194333    3.92792427   21.62682405    1240
Ni     2.12413774    5.58853199   21.55597993    1241
Ni     4.05637114    3.92847058   21.62612757    1244
          12
Lattice="  35.4000   0.0000   0.0000   0.0000  35.4000   0.0000   0.0000   0.0000  35.4000 " Time=4.167E+02  Step=1
Ni     2.12399960    2.13609370   18.06375360    1002
Ni     0.36208159    2.13541092   19.82258479    1004
Ni     3.88592952    2.13543432   19.82255576    1008
Ni     0.36220638    3.89519388   18.06288896    1041
Ni     2.12399076    5.65426940   18.06376375    1042
Ni     2.12401484    2.13665012   21.58135365    1043
Ni     0.36220457    5.65514732   19.82283183    1044
Ni     3.88578783    3.89521618   18.06285881    1045
Ni     3.88579585    5.65517256   19.82280292    1048
Ni     0.36208814    3.89543383   21.58259604    1240
Ni     2.12400620    5.65427340   21.58191771    1241
Ni     3.88592940    3.89545609   21.58256472    1244
