ITEM: TIMESTEP
0
ITEM: NUMBER OF ATOMS
1451
ITEM: BOX BOUNDS pp pp pp
0.0 38.7200012
0.0 38.7200012
0.0 10.5600004
ITEM: ATOMS id type x y z
1 1 2.6409872 0.8787088 0.8833672
2 1 6.1612043 0.8793822 0.8827472
3 1 9.6811037 0.8800512 0.8819574
4 1 13.2004929 0.8802176 0.881382
5 1 16.7201348 0.8802184 0.8811634
6 1 0.8811868 2.638309 0.8831936
7 1 4.4016757 2.6390987 0.882732
8 1 2.6417508 4.3985477 0.8826088
9 1 7.9218936 2.6400025 0.8819456
10 1 6.1621876 4.3994951 0.8819672
11 1 11.4417143 2.6407507 0.8812022
12 1 9.6825609 4.4006801 0.881202
13 1 14.9608164 2.6402941 0.8810238
14 1 13.2024641 4.4014139 0.880455
15 1 18.4802246 2.6402278 0.880987
16 1 16.7207546 4.3999953 0.880667
17 1 0.8815468 6.1578722 0.8824214
18 1 4.4021468 6.1588321 0.8818666
19 1 2.6418526 7.918108 0.881704
20 1 7.9225532 6.1599083 0.8811948
21 1 6.1624303 7.919219 0.8810484
22 1 11.4434166 6.1613479 0.8803512
23 1 9.6827946 7.9202248 0.8804598
24 1 14.9631158 6.1623149 0.8793092
25 1 13.2041893 7.9221684 0.879121
26 1 18.4807568 6.1586528 0.8804162
27 1 16.7241364 7.9237766 0.876324
28 1 0.881605 9.6775646 0.8813992
29 1 4.4020658 9.6784239 0.8809134
30 1 2.6417234 11.4378062 0.8807994
31 1 7.92266 9.6795645 0.8802474
32 1 6.1622744 11.4387875 0.8801534
33 1 11.4423657 9.6803131 0.8799986
34 1 9.6826191 11.4398527 0.8798748
35 1 14.9653464 9.6835785 0.8760154
36 1 13.2006493 11.4406538 0.8795838
37 1 18.4811745 9.692852 0.8662208
38 1 16.7343827 11.4406672 0.8657274
39 1 0.8814914 13.1973286 0.8807956
40 1 4.4018397 13.1980982 0.8802918
41 1 2.6414664 14.9575768 0.8804042
42 1 7.9222322 13.1991835 0.8796486
43 1 6.1617403 14.9585638 0.8798302
44 1 11.4419098 13.2002115 0.8794692
45 1 9.6819134 14.9595356 0.8793064
46 1 14.9651632 13.1978855 0.875646
47 1 13.2036066 14.9587918 0.8782274
48 1 18.4812756 13.1879387 0.8657006
49 1 16.724165 14.957284 0.8755686
50 1 0.8809094 16.7169972 0.8806276
51 1 4.4011808 16.7179775 0.8800794
52 1 2.6404603 18.4774037 0.880467
53 1 7.9215056 16.7189179 0.8794824
54 1 6.160811 18.478386 0.879943
55 1 11.442523 16.7190094 0.8788742
56 1 9.6815672 18.478859 0.879212
57 1 14.96278 16.7185612 0.8781372
58 1 13.2019224 18.4790421 0.8788902
59 1 18.480835 16.7218876 0.879342
60 1 16.7205715 18.4805832 0.8792424
61 1 0.8807744 0.8785586 2.6435602
62 1 4.4011302 0.8790364 2.6430326
63 1 2.6410096 0.8787792 4.4033561
64 1 7.9211688 0.879733 2.6423393
65 1 6.1612058 0.8794378 4.4027209
66 1 11.4408226 0.880246 2.6416106
67 1 9.681036 0.8800434 4.4020162
68 1 14.9603292 0.8801704 2.641248
69 1 13.2006311 0.8803096 4.4012632
70 1 18.4799328 0.8799348 2.6411662
71 1 16.7200833 0.8799558 4.4010706
72 1 0.8814678 4.3980322 2.6428452
73 1 0.8811838 2.6382969 4.4032331
74 1 2.6414955 2.638664 2.642972
75 1 4.401958 4.3990264 2.6423733
76 1 4.4016585 2.6390872 4.4027195
77 1 2.6417089 4.3984933 4.4026456
78 1 6.1618066 2.6395531 2.6423712
79 1 7.9223986 4.4001012 2.6416171
80 1 7.9219008 2.6399818 4.4019771
81 1 6.1622033 4.3995299 4.4020023
82 1 9.6818486 2.6404014 2.6415854
83 1 11.4426546 4.401166 2.6407581
84 1 11.4417477 2.6406966 4.4011397
85 1 9.6826191 4.4006744 4.4011307
86 1 13.2014208 2.6408289 2.6409302
87 1 14.9620048 4.4015899 2.640348
88 1 14.9610482 2.6408389 4.40065
89 1 13.2024794 4.4015641 4.4003611
90 1 16.720583 2.6403263 2.6410918
91 1 18.4804859 4.400702 2.6410864
92 1 18.4802952 2.6400922 4.40065
93 1 16.7213726 4.4018541 4.4001436
94 1 0.8815718 7.9177504 2.641892
95 1 0.881555 6.1578822 4.4023886
96 1 2.6418081 6.1583242 2.642195
97 1 4.4020805 7.9186388 2.6413551
98 1 4.4020472 6.1588702 4.4018984
99 1 2.6417833 7.9181362 4.4016805
100 1 6.1623206 6.1593843 2.6415403
101 1 7.922678 7.9197436 2.6406794
102 1 7.922668 6.1600437 4.401084
103 1 6.1623282 7.9191686 4.4009581
104 1 9.6831017 6.1606751 2.64078
105 1 11.4438315 7.9212222 2.6399417
106 1 11.4435034 6.1614103 4.4003048
107 1 9.6832676 7.9204794 4.4002056
108 1 13.2036133 6.162075 2.6398819
109 1 14.9644136 7.9232044 2.6380434
110 1 14.9631672 6.1627474 4.3997884
111 1 13.2044811 7.9221684 4.3995752
112 1 16.7222328 6.1627626 2.6390906
113 1 18.4809799 7.9252564 2.6340382
114 1 18.4807225 6.1642194 4.3996635
115 1 16.7230606 7.9234592 4.3992796
116 1 0.8815674 11.4374161 2.6410876
117 1 0.881587 9.6775913 4.4014917
118 1 2.6417752 9.6779595 2.6412254
119 1 4.4019704 11.4381695 2.6404863
120 1 4.4020553 9.6783161 4.4008894
121 1 2.64182 11.4377365 4.4008479
122 1 6.162343 9.6789732 2.6405442
123 1 7.9223022 11.4393988 2.6399038
124 1 7.9224434 9.6795159 4.4001627
125 1 6.1620627 11.4387331 4.4001961
126 1 9.6827889 9.6800728 2.6402002
127 1 11.4430027 11.4402857 2.6401177
128 1 11.4441405 9.6809206 4.3994351
129 1 9.6824312 11.43991 4.3994112
130 1 13.2047567 9.6817322 2.6386035
131 1 14.9670154 11.4407435 2.6334095
132 1 14.9648848 9.6823826 4.3990107
133 1 13.2063274 11.4406204 4.3988853
134 1 16.7243462 9.6833372 2.6349418
135 1 18.481329 11.4405108 2.647619
136 1 18.4811478 9.6792956 4.3989821
137 1 16.7204685 11.440691 4.3986774
138 1 0.8813664 14.9571658 2.6406431
139 1 0.8815424 13.1972971 4.4007759
140 1 2.6416765 13.1976099 2.6405454
141 1 4.4015198 14.9580556 2.6401267
142 1 4.4017897 13.1980648 4.4002862
143 1 2.6414938 14.9575358 4.400424
144 1 6.1618972 13.1986475 2.6399217
145 1 7.9217916 14.9590302 2.6395905
146 1 7.9218994 13.199235 4.3995714
147 1 6.1614847 14.9586164 4.3997965
148 1 9.6823607 13.1996889 2.639622
149 1 11.4430294 14.9592858 2.6388757
150 1 11.4437533 13.1997013 4.3988629
151 1 9.682456 14.9592382 4.399096
152 1 13.2043991 13.1994352 2.6381097
153 1 14.9641906 14.9579802 2.6371801
154 1 14.9646902 13.1990299 4.3985229
155 1 13.2039337 14.958789 4.398612
156 1 16.7243634 13.1978941 2.6345508
157 1 18.481123 14.9553852 2.6333199
158 1 18.4813671 13.2016192 4.3986411
159 1 16.7230015 14.9576016 4.3984695
160 1 0.8803274 18.4768849 2.6408186
161 1 0.8808936 16.7170029 4.4006586
162 1 2.6410311 16.717537 2.6403959
163 1 4.4005404 18.4779244 2.6401975
164 1 4.4010687 16.7180462 4.4001322
165 1 2.6404205 18.4774361 4.4006081
166 1 6.1612654 16.718525 2.6397879
167 1 7.9212008 18.4786949 2.6395211
168 1 7.9216046 16.7188359 4.3993626
169 1 6.1607623 18.4783535 4.3998146
170 1 9.6820374 16.7189999 2.6391673
171 1 11.4419279 18.4788609 2.6390183
172 1 11.4426384 16.7188874 4.3988538
173 1 9.6816178 18.478817 4.3991661
174 1 13.2029924 16.7185517 2.6385806
175 1 14.961546 18.4790726 2.6388536
176 1 14.9628516 16.718132 4.3985791
177 1 13.2019587 18.4788666 4.3988357
178 1 16.7221127 16.718113 2.63794
179 1 18.480484 18.4796734 2.6397417
180 1 18.4807186 16.7162476 4.3986158
181 1 16.7211247 18.478796 4.3986783
182 1 0.8808478 0.8784572 6.1636062
183 1 4.4011064 0.8791066 6.1630778
184 1 2.6410764 0.8787114 7.9234248
185 1 7.9211918 0.879797 6.1624403
186 1 6.1611629 0.8793852 7.9227744
187 1 11.4408846 0.8802454 6.1615739
188 1 9.6810866 0.8800784 7.921959
189 1 14.9603338 0.880147 6.1609287
190 1 13.2005863 0.880205 7.9211788
191 1 18.4799328 0.8799278 6.1609197
192 1 16.7201348 0.8802036 7.9208302
193 1 0.8813922 4.3980904 6.1627989
194 1 0.8812024 2.6383033 7.9232422
195 1 2.641414 2.6386743 6.1630712
196 1 4.401937 4.3990183 6.1623392
197 1 4.40165 2.639108 7.9227382
198 1 2.6417015 4.3985124 7.9226708
199 1 6.1618095 2.6395104 6.1624155
200 1 7.922413 4.4000764 6.1615386
201 1 7.921906 2.6399801 7.9220506
202 1 6.1621828 4.3995557 7.9219046
203 1 9.6819096 2.6404553 6.1615505
204 1 11.4426699 4.4011445 6.1606751
205 1 11.4417677 2.6406884 7.921164
206 1 9.6826191 4.4006367 7.921124
207 1 13.2014389 2.6408339 6.1607151
208 1 14.9618998 4.4016237 6.160037
209 1 14.9607944 2.6403294 7.920332
210 1 13.2023974 4.4014001 7.9203898
211 1 16.7205162 2.640409 6.1601329
212 1 18.4805012 4.4007397 6.1592703
213 1 18.4801483 2.6402309 7.9202542
214 1 16.7206879 4.4001026 7.9195472
215 1 0.881578 7.9177246 6.1619215
216 1 0.8815618 6.1578898 7.9223304
217 1 2.6417945 6.1583066 6.1621804
218 1 4.4020977 7.9186254 6.1613908
219 1 4.4020667 6.1588736 7.921886
220 1 2.641841 7.918179 7.9216534
221 1 6.1623268 6.1594267 6.1614604
222 1 7.922609 7.9197874 6.1604614
223 1 7.9226056 6.1599436 7.9210044
224 1 6.1624427 7.9191886 7.9210014
225 1 9.6830035 6.160645 6.1605535
226 1 11.4437752 7.921165 6.1597529
227 1 11.4432879 6.1612969 7.9202624
228 1 9.6827479 7.920198 7.9199238
229 1 13.2035151 6.1620488 6.1601338
230 1 14.9643688 7.923171 6.1606798
231 1 14.9630566 6.1623397 7.9202066
232 1 13.204093 7.9221908 7.9199778
233 1 16.72221 6.162745 6.1602387
234 1 18.4809056 7.9253254 6.1645598
235 1 18.4807663 6.1587167 7.9190292
236 1 16.7241287 7.9237934 7.9222088
237 1 0.8816376 11.4374428 6.1611271
238 1 0.8815654 9.6775704 7.9215122
239 1 2.6418 9.6779261 6.1612401
240 1 4.4019494 11.4381829 6.1605506
241 1 4.4021125 9.6784277 7.9209442
242 1 2.6417687 11.4377499 7.9209014
243 1 6.1622906 9.6789532 6.1605754
244 1 7.9223156 11.4393025 6.1597524
245 1 7.9226576 9.6795025 7.920087
246 1 6.1622686 11.4387226 7.9202386
247 1 9.6828194 9.6800585 6.1593537
248 1 11.4429436 11.4403696 6.1580935
249 1 11.4423218 9.6803875 7.9188166
250 1 9.6826 11.4398871 7.9190222
251 1 13.2046862 9.681736 6.1597352
252 1 14.9669848 11.4407234 6.164073
253 1 14.9652796 9.6835203 7.922009
254 1 13.2006311 11.4406338 7.9181768
255 1 16.7242928 9.6834097 6.1629486
256 1 18.4812966 11.4405222 6.14995
257 1 18.4811344 9.6929055 7.9318024
258 1 16.7342778 11.4406595 7.9317346
259 1 0.8812444 14.957162 6.1605935
260 1 0.8814844 13.1973724 7.9208308
261 1 2.641629 13.1976099 6.1605992
262 1 4.4015141 14.9579926 6.1601658
263 1 4.4018574 13.1980143 7.9202676
264 1 2.6414719 14.9575378 7.9203926
265 1 6.1619425 13.198597 6.1599374
266 1 7.9217944 14.9591036 6.1592588
267 1 7.9221722 13.1992207 7.9194542
268 1 6.1616821 14.9585638 7.9197308
269 1 9.6822825 13.1996727 6.1587524
270 1 11.4430542 14.9592028 6.1587362
271 1 11.4418917 13.2002535 7.9183584
272 1 9.6819153 14.959529 7.9188232
273 1 13.2044048 13.1994085 6.1592679
274 1 14.9641 14.9579754 6.1597915
275 1 14.9651366 13.197896 7.9215302
276 1 13.2036228 14.9588138 7.9190564
277 1 16.7242508 13.1978779 6.1624818
278 1 18.481102 14.955409 6.1638484
279 1 18.4804745 18.480587 9.678771
280 1 16.7240963 14.9571944 7.9214392
281 1 0.8803356 18.4769421 6.160789
282 1 0.8808746 16.7170105 7.9205786
283 1 2.6410055 16.7174568 6.1604033
284 1 4.4005618 18.4779358 6.1602831
285 1 4.4011746 16.7179909 7.9200926
286 1 2.6404546 18.4773941 7.9205366
287 1 6.1612492 16.7185211 6.1596847
288 1 7.921206 18.4786453 6.1593971
289 1 7.921487 16.7189598 7.9192696
290 1 6.1608429 18.4783917 7.9198414
291 1 9.6821003 16.7190113 6.1590009
292 1 11.4418717 18.4789181 6.1589518
293 1 11.4425135 16.718977 7.9188318
294 1 9.6815424 18.4788666 7.9192086
295 1 13.2029314 16.7185765 6.1587749
296 1 14.9616356 18.479023 6.1586151
297 1 14.9627934 16.7184849 7.9190188
298 1 13.2019005 18.4789658 7.918788
299 1 16.7221165 16.7180214 6.1591921
300 1 18.4804173 18.4796982 6.1577544
301 1 18.4807816 16.7219067 7.917932
302 1 16.7205811 18.4806443 7.918119
303 1 0.8807688 0.878481 9.6835346
304 1 4.4011502 0.878993 9.6831236
305 1 7.9212142 0.879768 9.6823712
306 1 11.4407959 0.8801634 9.6815853
307 1 14.9603396 0.8802662 9.681098
308 1 18.479887 0.880201 9.6810608
309 1 0.8814846 4.3980875 9.6828327
310 1 2.641496 2.6386121 9.6830588
311 1 4.401959 4.3990507 9.6823139
312 1 6.1617422 2.6395152 9.6823511
313 1 7.9223162 4.4000473 9.6815291
314 1 9.6819792 2.6405039 9.6815768
315 1 11.4428721 4.4013586 9.6807843
316 1 13.2012177 2.640436 9.6808901
317 1 14.961135 4.4002395 9.680213
318 1 16.7204037 2.6402765 9.6805687
319 1 18.4805069 4.3997941 9.6801291
320 1 0.881569 7.9177004 9.6819096
321 1 2.6418038 6.1584187 9.6821776
322 1 4.4021497 7.9186936 9.6813898
323 1 6.162365 6.1594062 9.6814928
324 1 7.9227028 7.9197068 9.6806536
325 1 9.6827164 6.1603861 9.6807375
326 1 11.4424858 7.920478 9.6798029
327 1 13.2040663 6.1626444 9.6799355
328 1 14.966774 7.9255448 9.6793375
329 1 16.7204819 6.1587033 9.6796656
330 1 18.4809475 7.9108368 9.679327
331 1 0.8815644 11.4375 9.6810589
332 1 2.6417976 9.6779166 9.6812382
333 1 4.4019871 11.4381829 9.6805763
334 1 6.162446 9.6789627 9.6805859
335 1 7.9226074 11.4393587 9.6797924
336 1 9.6827479 9.6800184 9.6797524
337 1 11.4420481 11.4402828 9.6791191
338 1 13.2006435 9.6799793 9.6791868
339 1 14.9524442 11.440773 9.678773
340 1 16.734169 9.6931429 9.6789513
341 1 18.4812088 13.1879873 7.9314672
342 1 0.8812654 14.957181 9.6806307
343 1 2.6417201 13.1977053 9.6805554
344 1 4.4016323 14.9580298 9.6801205
345 1 6.162014 13.1986256 9.6799364
346 1 7.9218364 14.9590646 9.6793661
347 1 9.6822567 13.1997309 9.6792059
348 1 11.4417429 14.9600306 9.6788388
349 1 13.2003298 13.2012444 9.6786909
350 1 14.9665042 14.955615 9.6785736
351 1 16.7340374 13.1881828 9.6786089
352 1 18.4810334 14.9699384 9.6785527
353 1 0.880374 18.4768849 9.6807451
354 1 2.6410494 16.7174282 9.6803322
355 1 4.4006405 18.4778939 9.6802187
356 1 6.1613402 16.718504 9.6797724
357 1 7.9210568 18.4787731 9.679555
358 1 9.6816817 16.7192936 9.6790467
359 1 11.4421091 18.4787178 9.6789809
360 1 13.203516 16.71805 9.67871
361 1 14.960826 18.4804058 9.6786747
362 1 16.7203484 16.7221337 9.678545
363 1 0.8797302 20.2368488 0.8810556
364 1 4.3999753 20.2378235 0.8805092
365 1 2.6392143 21.9972782 0.8812898
366 1 7.9206142 20.2385578 0.8798318
367 1 6.1597018 21.9981232 0.8805478
368 1 11.4409704 20.2390881 0.8792408
369 1 9.6800661 21.9988462 0.8798572
370 1 14.960454 20.2401581 0.879244
371 1 13.1999512 21.9999276 0.8795018
372 1 18.4800987 20.2400379 0.8793376
373 1 16.7198277 22.0002975 0.8793154
374 1 0.8788314 23.7570324 0.881927
375 1 4.3989077 23.7576752 0.8814766
376 1 2.6385482 25.517479 0.8822
377 1 7.9191776 23.7584496 0.8806194
378 1 6.1585913 25.5180855 0.8816024
379 1 11.4393063 23.7595425 0.8800902
380 1 9.6785517 25.5190792 0.8808002
381 1 14.959365 23.7602864 0.8796272
382 1 13.19874 25.5199433 0.8802286
383 1 18.4794522 23.7602177 0.8795988
384 1 16.7190819 25.5202961 0.8799708
385 1 0.8784222 27.277483 0.8829582
386 1 4.3983746 27.2779446 0.882406
387 1 2.6383376 29.0378952 0.8831684
388 1 7.9181886 27.2786961 0.8817002
389 1 6.1582055 29.0385361 0.8824816
390 1 11.4381724 27.2794876 0.8810166
391 1 9.6780424 29.0391579 0.8818144
392 1 14.95858 27.2800484 0.8804978
393 1 13.1981888 29.0397053 0.8812306
394 1 18.4789963 27.2800598 0.8804964
395 1 16.7185478 29.0399284 0.8808916
396 1 0.878425 30.7979641 0.8836616
397 1 4.3983483 30.7983685 0.883159
398 1 2.6386249 32.558342 0.883682
399 1 7.9182644 30.7990341 0.8824836
400 1 6.1586232 32.558815 0.8831078
401 1 11.4382334 30.7994347 0.8818754
402 1 9.678607 32.5593453 0.8824438
403 1 14.958377 30.7997189 0.881387
404 1 13.198575 32.5596161 0.8816904
405 1 18.4787274 30.7996693 0.8812632
406 1 16.7187119 32.5596276 0.8815154
407 1 0.879002 34.3184548 0.8839214
408 1 4.3991337 34.3187065 0.8835604
409 1 2.6397221 36.0786057 0.8837958
410 1 7.919095 34.3191872 0.8829112
411 1 6.1597257 36.0790672 0.8832584
412 1 11.4390955 34.3196182 0.882107
413 1 9.679658 36.0795212 0.8824384
414 1 14.958995 34.3197136 0.8816776
415 1 13.1995201 36.0798378 0.8818186
416 1 18.4788742 34.3196144 0.8816362
417 1 16.7192536 36.079834 0.8815488
418 1 0.8802264 37.8385887 0.88386
419 1 4.4004455 37.8389206 0.8833702
420 1 7.9204722 37.8394814 0.8826696
421 1 11.4401188 37.8398706 0.8819454
422 1 14.9598332 37.8400956 0.8814176
423 1 18.4795017 37.8399162 0.8814084
424 1 0.8791692 21.9969254 2.6415069
425 1 0.8797076 20.2369366 4.4011173
426 1 2.639767 20.2372856 2.6408649
427 1 4.3994012 21.997673 2.6409152
428 1 4.3999782 20.2377834 4.4005189
429 1 2.6392756 21.9972992 4.4011912
430 1 6.1602411 20.2382317 2.6401222
431 1 7.91995 21.9984512 2.640213
432 1 7.9205748 20.2384968 4.3997407
433 1 6.1596537 21.9980564 4.4005203
434 1 9.6809407 20.2387943 2.6395097
435 1 11.4400587 21.9993954 2.639647
436 1 11.4410353 20.2390843 4.399261
437 1 9.680068 21.9988804 4.3998776
438 1 13.2008343 20.2394848 2.6391158
439 1 14.9598924 22.0002613 2.6393709
440 1 14.9606476 20.2396813 4.3988671
441 1 13.2000246 21.9997808 4.3993845
442 1 16.7203007 20.2401753 2.6393025
443 1 18.4797268 22.0002995 2.6393111
444 1 18.4800835 20.2402039 4.398953
445 1 16.7197819 22.0005093 4.3991671
446 1 0.8786424 25.5172386 2.642402
447 1 0.8787862 23.7570515 4.4019275
448 1 2.6388181 23.7573204 2.641727
449 1 4.3985634 25.5177517 2.6419158
450 1 4.3989592 23.757679 4.4013476
451 1 2.6385272 25.517498 4.4021635
452 1 6.159122 23.7579823 2.6410532
453 1 7.9185786 25.5185528 2.6411784
454 1 7.9191738 23.7584439 4.4007106
455 1 6.1586118 25.518055 4.4015422
456 1 9.6792031 23.7589855 2.6402855
457 1 11.4386072 25.519516 2.6405366
458 1 11.4392615 23.7595196 4.3999958
459 1 9.6785183 25.5190392 4.4008227
460 1 13.1993475 23.7600212 2.6398258
461 1 14.9588966 25.5202465 2.6400421
462 1 14.9593078 23.7603607 4.3996434
463 1 13.19874 25.5200081 4.4002504
464 1 16.7193814 23.7604218 2.6395707
465 1 18.4792309 25.520176 2.6400421
466 1 18.4794655 23.7603474 4.3996472
467 1 16.7190342 25.5202885 4.4000158
468 1 0.8783322 29.0377293 2.6433459
469 1 0.8784392 27.2775269 4.4028845
470 1 2.6384039 27.2776985 2.6426611
471 1 4.3982697 29.0381432 2.6428883
472 1 4.3983097 27.2779598 4.4024153
473 1 2.6382954 29.0379257 4.4031668
474 1 6.1582341 27.2782841 2.642083
475 1 7.9180756 29.0388279 2.6421407
476 1 7.9181914 27.2786884 4.4016748
477 1 6.1582027 29.0385208 4.4025378
478 1 9.6781826 27.2791443 2.6413265
479 1 11.4381342 29.0394802 2.6414938
480 1 11.4381552 27.2794743 4.4009962
481 1 9.6780653 29.0391979 4.4017611
482 1 13.1983061 27.279768 2.6406849
483 1 14.9582788 29.0398064 2.6410158
484 1 14.958541 27.2800255 4.4005461
485 1 13.1981773 29.0396538 4.4011731
486 1 16.7187596 27.280138 2.6404443
487 1 18.4788533 29.0398788 2.6408801
488 1 18.4789658 27.2800465 4.4004312
489 1 16.7185993 29.0398941 4.4008856
490 1 0.8786678 32.5582199 2.643843
491 1 0.8784202 30.7979775 4.4036565
492 1 2.6384065 30.7980957 2.6435128
493 1 4.3985944 32.5584831 2.6433869
494 1 4.3983426 30.7983666 4.4032583
495 1 2.6386366 32.5583496 4.4036975
496 1 6.1582708 30.7986374 2.6428244
497 1 7.918592 32.5590973 2.6427651
498 1 7.9182292 30.7990017 4.4024558
499 1 6.158555 32.5587693 4.4030676
500 1 9.6782112 30.7992211 2.6421697
501 1 11.4385987 32.5595284 2.6420052
502 1 11.4383011 30.7994862 4.4018302
503 1 9.6786366 32.5593262 4.4023342
504 1 13.1983051 30.7997113 2.6415651
505 1 14.9586248 32.5596848 2.6415956
506 1 14.958377 30.7997227 4.4013486
507 1 13.1986065 32.5596733 4.401824
508 1 16.7185097 30.799675 2.6412895
509 1 18.4787808 32.5595284 2.6415074
510 1 18.4787846 30.799654 4.4012909
511 1 16.7187271 32.5596009 4.4015088
512 1 0.8796256 36.0785446 2.6439181
513 1 0.8790726 34.3183708 4.4039536
514 1 2.6390922 34.3185082 2.6437624
515 1 4.3997173 36.0788651 2.64359
516 1 4.3990631 34.3186569 4.4034968
517 1 2.6396849 36.0786858 4.4037819
518 1 6.1590648 34.3189354 2.6432441
519 1 7.9197126 36.0793381 2.6428986
520 1 7.9190966 34.319149 4.4028616
521 1 6.1597581 36.0790901 4.4032111
522 1 9.6791191 34.3194733 2.642488
523 1 11.4396019 36.0797195 2.6421275
524 1 11.4390383 34.3195686 4.4021931
525 1 9.6796685 36.0795174 4.4025307
526 1 13.1989956 34.3196411 2.6418224
527 1 14.9593668 36.0798225 2.6416097
528 1 14.9589826 34.3197174 4.4016819
529 1 13.1994648 36.0797424 4.4017868
530 1 16.7189446 34.3196449 2.6416476
531 1 18.479168 36.0796509 2.6415553
532 1 18.4789486 34.3195915 4.4016476
533 1 16.7192955 36.0797462 4.4015641
534 1 0.880248 37.8386116 4.4037948
535 1 2.6403837 37.838749 2.6436417
536 1 4.4004488 37.8390274 4.4033733
537 1 6.1604533 37.8392258 2.6430543
538 1 7.920436 37.8395386 4.4027343
539 1 9.680316 37.8397142 2.6423357
540 1 11.4401779 37.8399162 4.4019256
541 1 13.1999846 37.8399964 2.6416428
542 1 14.9598046 37.8398896 4.4014373
543 1 16.7196408 37.839901 2.6413589
544 1 18.4795456 37.8397294 4.4013224
545 1 0.879238 21.9969482 6.1614833
546 1 0.879761 20.2368794 7.921064
547 1 2.6398282 20.2373905 6.1608472
548 1 4.3994012 21.997757 6.1608462
549 1 4.4000273 20.2378235 7.9204908
550 1 2.6393161 21.9973488 7.9212204
551 1 6.1602688 20.2381897 6.1600962
552 1 7.9198728 21.998438 6.1601753
553 1 7.92056 20.2385216 7.9197174
554 1 6.159565 21.9980718 7.9205766
555 1 9.6808529 20.2387715 6.1594424
556 1 11.4400835 21.9993324 6.1595483
557 1 11.4410076 20.2390919 7.9192162
558 1 9.6801014 21.9988728 7.9198246
559 1 13.2009277 20.2393761 6.1589966
560 1 14.9598504 22.0002079 6.1590695
561 1 14.9604092 20.2401791 7.9186664
562 1 13.1999207 21.999918 7.9192692
563 1 16.7202416 20.2402172 6.158421
564 1 18.4796906 22.0002918 6.159184
565 1 18.4800301 20.2400494 7.9186016
566 1 16.7197285 22.0002384 7.9190932
567 1 0.8785426 25.5173149 6.1623898
568 1 0.878848 23.757061 7.9219098
569 1 2.6387792 23.7573967 6.1616025
570 1 4.3985543 25.5177059 6.1618152
571 1 4.3988443 23.7577267 7.9213506
572 1 2.638526 25.5175019 7.9221702
573 1 6.1590805 23.7579937 6.1610785
574 1 7.9185352 25.5185566 6.1612306
575 1 7.9191538 23.7584362 7.9207088
576 1 6.158484 25.5181484 7.9215202
577 1 9.6792126 23.7589894 6.160315
578 1 11.4386225 25.519516 6.1604543
579 1 11.4392309 23.7595577 7.9199968
580 1 9.6785507 25.5190163 7.9208646
581 1 13.1992722 23.7599621 6.159719
582 1 14.9588662 25.5202275 6.1601214
583 1 14.9593106 23.7602196 7.9196044
584 1 13.1987057 25.5199204 7.9202242
585 1 16.7193318 23.7604122 6.1596031
586 1 18.4791889 25.5202313 6.1600804
587 1 18.4793663 23.7601872 7.9196434
588 1 16.7190571 25.5202866 7.9200716
589 1 0.8783386 29.0377007 6.1633105
590 1 0.8784456 27.2775269 7.9228884
591 1 2.638408 27.2776928 6.1626997
592 1 4.398284 29.0382328 6.162859
593 1 4.3983059 27.2779675 7.9223924
594 1 2.6383152 29.0379162 7.9231644
595 1 6.1582041 27.2782841 6.1620178
596 1 7.918171 29.0388126 6.1621141
597 1 7.9181744 27.2787285 7.9216442
598 1 6.1581912 29.0384903 7.9225198
599 1 9.6781645 27.2790737 6.161365
600 1 11.4380379 29.0394726 6.1614227
601 1 11.4382429 27.279459 7.9209958
602 1 9.678133 29.039196 7.9217926
603 1 13.1983242 27.2798653 6.160727
604 1 14.9583702 29.0398483 6.1609683
605 1 14.9585028 27.280077 7.9205346
606 1 13.1981182 29.0397244 7.9211774
607 1 16.7187805 27.280098 6.1604581
608 1 18.4787941 29.0398083 6.1609364
609 1 18.4790249 27.2800541 7.9205366
610 1 16.7185536 29.0399075 7.9208798
611 1 0.8786862 32.5582428 6.1638923
612 1 0.8784566 30.7979393 7.9236856
613 1 2.6383479 30.7981339 6.1635022
614 1 4.3986268 32.5585137 6.1634598
615 1 4.3983302 30.7983876 7.9232188
616 1 2.638634 32.5583496 7.923696
617 1 6.1584039 30.7986679 6.1629362
618 1 7.9185758 32.5591088 6.1626968
619 1 7.9183578 30.7989483 7.9225198
620 1 6.1586504 32.5588379 7.9231038
621 1 9.6782017 30.7992935 6.1620741
622 1 11.4386225 32.5594788 6.1620698
623 1 11.4381953 30.7994652 7.9217896
624 1 9.6785841 32.5592919 7.9223514
625 1 13.1983261 30.7995625 6.1615272
626 1 14.958662 32.5596581 6.1615963
627 1 14.9584074 30.7997284 7.9213548
628 1 13.1985998 32.5595818 7.9217392
629 1 16.7185612 30.7997265 6.1612544
630 1 18.4787731 32.5595856 6.1615634
631 1 18.4787674 30.7996502 7.9212814
632 1 16.7187138 32.5596504 7.9215584
633 1 0.8795668 36.0785828 6.1639233
634 1 0.8790454 34.3184471 7.9239842
635 1 2.6391073 34.3185768 6.1638136
636 1 4.3997741 36.0788231 6.163446
637 1 4.3990908 34.3187294 7.9235258
638 1 2.6396661 36.0786285 7.9237896
639 1 6.1590438 34.3189087 6.1631656
640 1 7.9196844 36.079258 6.1628542
641 1 7.9190536 34.3191757 7.922855
642 1 6.1597242 36.0791092 7.9231726
643 1 9.6790753 34.3193665 6.1625276
644 1 11.4395724 36.0796928 6.1621342
645 1 11.4390593 34.3195458 7.9221808
646 1 9.6796503 36.079464 7.9225144
647 1 13.1990128 34.3197365 6.1619091
648 1 14.9593898 36.0798073 6.161653
649 1 14.9589748 34.3197098 7.9216972
650 1 13.1994877 36.0798531 7.9218374
651 1 16.7189293 34.3196297 6.1616273
652 1 18.4791985 36.0796318 6.1616345
653 1 18.4789219 34.3196182 7.9216486
654 1 16.7192841 36.0797882 7.9216018
655 1 0.8802292 37.8385697 7.923801
656 1 2.6404214 37.8386994 6.1636386
657 1 4.4004479 37.8389092 7.9233484
658 1 6.1604495 37.8392982 6.1630225
659 1 7.9204264 37.8394814 7.922669
660 1 9.6803179 37.8396988 6.1623392
661 1 11.4401741 37.8398934 7.9218946
662 1 13.2000141 37.839943 6.1615839
663 1 14.9599038 37.840046 7.9214234
664 1 16.7197228 37.8398552 6.1613607
665 1 18.4795437 37.839901 7.9213924
666 1 0.879218 21.9969196 9.6814385
667 1 2.63988 20.2373715 9.6807909
668 1 4.399436 21.9977684 9.6809721
669 1 6.1602526 20.2382202 9.6802063
670 1 7.9199028 21.998415 9.6801167
671 1 9.6809225 20.2387505 9.6794548
672 1 11.4400349 21.9994698 9.6796112
673 1 13.200655 20.2398281 9.6790781
674 1 14.9598284 22.0001621 9.679286
675 1 16.7202034 20.2402859 9.6789589
676 1 18.4796829 22.0000401 9.6792307
677 1 0.8785834 25.5172539 9.6824208
678 1 2.6388302 23.7573471 9.6817122
679 1 4.3985138 25.5177899 9.6819477
680 1 6.1589861 23.7581139 9.6810074
681 1 7.9184928 25.5185814 9.6811486
682 1 9.6792288 23.7589989 9.6803808
683 1 11.4386635 25.5195065 9.6805344
684 1 13.1993179 23.7599507 9.6797657
685 1 14.9588748 25.5202179 9.6800194
686 1 16.7193623 23.7602692 9.6795807
687 1 18.4792137 25.5201683 9.6800766
688 1 0.8783976 29.037714 9.6834021
689 1 2.6383567 27.2776737 9.6827164
690 1 4.3982587 29.0381641 9.6828795
691 1 6.1582637 27.2782879 9.6820631
692 1 7.9181428 29.0388355 9.6821499
693 1 9.6781616 27.2790623 9.6812859
694 1 11.438076 29.0394211 9.6815062
695 1 13.1983452 27.2798538 9.6807566
696 1 14.9583206 29.0399132 9.6809712
697 1 16.7187767 27.2801685 9.6804343
698 1 18.4788037 29.0398979 9.6809016
699 1 0.8786254 32.5582047 9.6838494
700 1 2.6384127 30.7981472 9.6834984
701 1 4.3986879 32.5585709 9.6834078
702 1 6.1583595 30.7987042 9.6828041
703 1 7.9186292 32.5591698 9.6827421
704 1 9.6782627 30.799263 9.6822148
705 1 11.4385538 32.5594864 9.6820393
706 1 13.1982412 30.7996254 9.6815415
707 1 14.958624 32.5596733 9.6815977
708 1 16.7185288 30.7997475 9.6812639
709 1 18.478796 32.5595665 9.6815396
710 1 0.8796052 36.0785599 9.6839972
711 1 2.6390949 34.3184548 9.683816
712 1 4.3996964 36.0788269 9.6835432
713 1 6.1591015 34.3190041 9.683219
714 1 7.919705 36.0792732 9.6828585
715 1 9.6791067 34.3193855 9.6825028
716 1 11.4396343 36.0797348 9.6821156
717 1 13.1990185 34.3196869 9.6818209
718 1 14.959406 36.0798645 9.6816378
719 1 16.7189713 34.3196907 9.6816254
720 1 18.479187 36.0798073 9.6815748
721 1 2.6403473 37.8387032 9.6836586
722 1 6.1604986 37.8391914 9.6830654
723 1 9.6803103 37.8397026 9.6822462
724 1 13.2000303 37.840065 9.6816254
725 1 16.7197094 37.8400804 9.6813517
726 1 20.2396927 0.8799638 0.881314
727 1 23.7592469 0.8796334 0.8818472
728 1 27.2787304 0.879474 0.882531
729 1 30.7989884 0.8789136 0.8831316
730 1 34.3197174 0.8784188 0.8835552
731 1 37.8404504 0.8783978 0.883678
732 1 21.9996548 2.6399706 0.881335
733 1 20.2402516 4.3998466 0.880893
734 1 25.5188046 2.6400881 0.88183
735 1 23.7587147 4.4008346 0.881016
736 1 29.0389061 2.6391809 0.8824732
737 1 27.2788944 4.3997378 0.881723
738 1 32.5596199 2.6383796 0.8830876
739 1 30.7996311 4.3984532 0.882385
740 1 36.08041 2.6380563 0.8833234
741 1 34.3203354 4.3978601 0.8828418
742 1 37.841095 4.3978052 0.8829206
743 1 21.99852 6.1618218 0.8797588
744 1 20.2378349 7.9233894 0.8765114
745 1 25.5185967 6.1603327 0.8808644
746 1 23.7581215 7.9211416 0.8796028
747 1 29.0397625 6.1586824 0.8816478
748 1 27.2798844 7.9188214 0.8810184
749 1 32.5603333 6.1577778 0.882245
750 1 30.8004112 7.9179254 0.881488
751 1 36.0810509 6.1575174 0.882498
752 1 34.3209458 7.9173652 0.8819554
753 1 37.8413658 7.9174304 0.8820396
754 1 21.997097 9.6826058 0.8763976
755 1 20.2282353 11.440177 0.8659116
756 1 25.5203152 9.6788273 0.8805952
757 1 23.7619534 11.4392529 0.8800982
758 1 29.0402946 9.6779881 0.8808848
759 1 27.2800388 11.4380827 0.8805708
760 1 32.5609055 9.6774044 0.8812796
761 1 30.8005963 11.437356 0.8807562
762 1 36.0812607 9.6771593 0.8816116
763 1 34.3211022 11.4370947 0.881103
764 1 37.8414192 11.4371634 0.8811938
765 1 21.997324 13.1968584 0.8759174
766 1 20.2380219 14.9567386 0.8756718
767 1 25.5205536 13.1985664 0.8801012
768 1 23.7585335 14.9573736 0.87872
769 1 29.040123 13.1973772 0.8803726
770 1 27.2800636 14.9577456 0.8800526
771 1 32.560669 13.1969204 0.8806472
772 1 30.8001042 14.9569026 0.880318
773 1 36.0811501 13.1968803 0.881001
774 1 34.3206139 14.9565878 0.8807934
775 1 37.841076 14.9569064 0.8808004
776 1 21.9988422 16.7176228 0.878563
777 1 20.2403641 18.480156 0.8794808
778 1 25.5189991 16.71735 0.8794994
779 1 23.7590523 18.4777813 0.879292
780 1 29.0398788 16.7171479 0.8801376
781 1 27.2792091 18.477089 0.8799486
782 1 32.5600662 16.716568 0.8805888
783 1 30.7997551 18.4767304 0.8804882
784 1 36.0804825 16.7164555 0.8808596
785 1 34.3200226 18.4762821 0.8809118
786 1 37.8402368 18.4765263 0.8809322
787 1 21.999527 0.8796922 2.6415143
788 1 20.2397843 0.8797014 4.4011607
789 1 25.5188351 0.879646 2.6421788
790 1 23.7590904 0.879785 4.4017878
791 1 29.0388451 0.879195 2.6428523
792 1 27.2787609 0.8794946 4.4024806
793 1 32.5593071 0.878567 2.6433554
794 1 30.799057 0.8788688 4.403152
795 1 36.0800972 0.8783562 2.6437102
796 1 34.3196449 0.8784004 4.4035578
797 1 37.8405038 0.8783794 4.4036756
798 1 20.239933 2.6401451 2.6411639
799 1 21.9991074 4.4011884 2.6407497
800 1 21.9993496 2.6404093 4.4010415
801 1 20.2396526 4.4015899 4.4003315
802 1 23.7589932 2.6402998 2.6414712
803 1 25.5186043 4.4004097 2.6413179
804 1 25.5187321 2.6401046 4.4016972
805 1 23.7586079 4.4009357 4.4009075
806 1 27.2787628 2.6396847 2.6421252
807 1 29.0392456 4.399044 2.6420837
808 1 29.0389614 2.63918 4.4024549
809 1 27.2788353 4.399704 4.4016543
810 1 30.7992649 2.6387568 2.6427973
811 1 32.560051 4.3980627 2.6427052
812 1 32.5595894 2.6383305 4.4030523
813 1 30.7996617 4.3985195 4.4023819
814 1 34.3200035 2.6380954 2.6432443
815 1 36.0806923 4.3977618 2.642911