ITEM: TIMESTEP
0
ITEM: NUMBER OF ATOMS
1412
ITEM: BOX BOUNDS pp pp pp
0.0 38.7200012
0.0 38.7200012
0.0 10.5600004
ITEM: ATOMS id type x y z
1 1 2.6429956 0.8840114 0.8799892
2 1 6.1648679 0.88415 0.8799968
3 1 9.6836081 0.8835108 0.880002
4 1 13.2017088 0.882516 0.8800024
5 1 16.7206211 0.8821576 0.8799962
6 1 0.881123 2.6458881 0.8799614
7 1 4.4057622 2.6469 0.8799818
8 1 2.6450291 4.4076262 0.879921
9 1 6.1690402 4.4104304 0.8800076
10 1 7.9263816 2.647445 0.8800046
11 1 11.4439287 2.6458097 0.8800026
12 1 9.6883574 4.4107518 0.8800048
13 1 13.2042608 4.4076347 0.8800052
14 1 14.9615288 2.6440056 0.8800052
15 1 16.721138 4.4053483 0.8800088
16 1 18.4802246 2.6436444 0.8799802
17 1 0.8824388 6.1665816 0.8797424
18 1 4.4090853 6.1703544 0.8799918
19 1 7.9329314 6.1746106 0.8800166
20 1 11.4504996 6.1741543 0.8799992
21 1 14.964079 6.1690764 0.880017
22 1 18.4800339 6.1670594 0.8799928
23 1 2.6460719 7.927621 0.8798922
24 1 6.1736002 7.9339194 0.8800344
25 1 9.6975451 7.9396168 0.8800038
26 1 13.2124643 7.9377786 0.8800018
27 1 16.7227898 7.9302364 0.880035
28 1 0.8821214 9.6846581 0.8796114
29 1 4.4096809 9.689292 0.880026
30 1 2.6445744 11.4446821 0.8798916
31 1 6.1732903 11.4512539 0.8800344
32 1 7.938809 9.6983414 0.880019
33 1 11.4631548 9.7058058 0.8799978
34 1 9.705164 11.4637966 0.8800042
35 1 13.2302323 11.4737664 0.88
36 1 14.9736586 9.7017794 0.880012
37 1 16.7332878 11.4654494 0.8800054
38 1 18.479969 9.691207 0.8800314
39 1 0.8810542 13.2020721 0.8797478
40 1 4.4065747 13.2048321 0.8799914
41 1 7.93709 13.2130766 0.8800166
42 1 11.4733458 13.2306624 0.8799996
43 2 14.9995204 13.2439518 0.88
44 2 18.4799996 13.2330923 0.88
45 1 0.8797888 16.7197552 0.879968
46 1 2.6425438 14.961649 0.8799204
47 1 4.404037 16.7211285 0.8799808
48 1 6.1681986 14.9645176 0.8800076
49 1 7.9295836 16.7230854 0.8800048
50 1 9.7013111 14.9740888 0.8800052
51 1 11.4652977 16.7334042 0.880001
52 2 13.2439518 14.9995204 0.88
53 2 16.7585736 14.998373 0.88
54 2 14.998373 16.7585736 0.88
55 1 2.6416054 18.4794426 0.879989
56 1 6.1659699 18.4799252 0.8799966
57 1 9.690856 18.4800549 0.8800016
58 2 13.2330923 18.4799996 0.88
59 1 0.8807978 0.884008 2.6400001
60 1 4.4044175 0.884111 2.6400001
61 1 2.6429956 0.8840114 4.4000111
62 1 6.1648679 0.88415 4.4000034
63 1 7.9244876 0.8839498 2.6400001
64 1 11.4425917 0.8829768 2.6400001
65 1 9.6836081 0.8835108 4.3999982
66 1 13.2017088 0.882516 4.3999977
67 1 14.9610616 0.8822324 2.6400001
68 1 16.7206211 0.8821576 4.4000039
69 1 18.4803238 0.8823004 2.6400001
70 1 0.8819342 4.4066105 2.6400001
71 1 0.881123 2.6458881 4.4000387
72 1 2.6439076 2.6462 2.6400001
73 1 4.4074946 4.4090829 2.6400001
74 1 4.4057622 2.6469 4.4000182
75 1 2.6450291 4.4076262 4.4000793
76 1 6.1665864 2.6474319 2.6400001
77 1 6.1690402 4.4104304 4.3999925
78 1 7.9293338 4.4111114 2.6400001
79 1 7.9263816 2.647445 4.3999953
80 1 9.6853457 2.6468337 2.6400001
81 1 11.4464321 4.4094029 2.6400001
82 1 11.4439287 2.6458097 4.3999972
83 1 9.6883574 4.4107518 4.3999953
84 1 13.2025795 2.6447673 2.6400001
85 1 13.2042608 4.4076347 4.3999949
86 1 14.9624578 4.4061675 2.6400001
87 1 14.9615288 2.6440056 4.3999949
88 1 16.7207909 2.6436298 2.6400001
89 1 16.721138 4.4053483 4.399991
90 1 18.4801331 4.4051881 2.6400001
91 1 18.4802246 2.6436444 4.4000197
92 1 0.8824388 6.1665816 4.4002576
93 1 2.6458419 6.1681023 2.6400001
94 1 4.4090853 6.1703544 4.4000082
95 1 6.171597 6.1727643 2.6400001
96 1 7.9329314 6.1746106 4.3999834
97 1 9.6925984 6.1752172 2.6400001
98 1 11.4504996 6.1741543 4.4000006
99 1 13.2072439 6.1716952 2.6400001
100 1 14.964079 6.1690764 4.3999829
101 1 16.7217789 6.1674786 2.6400001
102 1 18.4800339 6.1670594 4.4000073
103 1 0.8824994 7.9258308 2.6400001
104 1 4.4098783 7.9304496 2.6400001
105 1 2.6460719 7.927621 4.4001079
106 1 6.1736002 7.9339194 4.3999658
107 1 7.9364 7.9372908 2.6400001
108 1 11.4563389 7.9400006 2.6400001
109 1 9.6975451 7.9396168 4.3999963
110 1 13.2124643 7.9377786 4.3999982
111 1 14.9671298 7.9336134 2.6400001
112 1 16.7227898 7.9302364 4.3999653
113 1 18.4800396 7.9292828 2.6400001
114 1 0.8816574 11.4433327 2.6400001
115 1 0.8821214 9.6846581 4.4003887
116 1 2.6454926 9.6863404 2.6400001
117 1 4.4083147 11.4471951 2.6400001
118 1 4.4096809 9.689292 4.3999739
119 1 2.6445744 11.4446821 4.4001083
120 1 6.1742811 9.6934634 2.6400001
121 1 6.1732903 11.4512539 4.3999658
122 1 7.9392596 11.4570494 2.6400001
123 1 7.938809 9.6983414 4.399981
124 1 9.7021637 9.7028828 2.6400001
125 1 11.4693938 11.4699393 2.6400001
126 1 11.4631548 9.7058058 4.400002
127 1 9.705164 11.4637966 4.3999958
128 1 13.2206888 9.7059469 2.6400001
129 1 13.2302323 11.4737664 4.4000001
130 1 14.9861994 11.4742298 2.6400001
131 1 14.9736586 9.7017794 4.3999882
132 1 16.7249813 9.6946917 2.6400001
133 1 16.7332878 11.4654494 4.3999944
134 2 18.4799996 11.4514008 2.6400001
135 1 18.479969 9.691207 4.3999686
136 1 0.8810542 13.2020721 4.4002524
137 1 2.6434529 13.2030563 2.6400001
138 1 4.4065747 13.2048321 4.4000087
139 1 6.1708255 13.2078619 2.6400001
140 1 7.93709 13.2130766 4.3999834
141 1 9.7053929 13.221242 2.6400001
142 1 11.4733458 13.2306624 4.4000001
143 1 13.2388687 13.2391081 2.6400001
144 2 14.9995204 13.2439518 4.4000001
145 2 16.7545414 13.2425404 2.6400001
146 2 18.4799996 13.2330923 4.4000001
147 1 0.8804288 14.9609118 2.6400001
148 1 0.8797888 16.7197552 4.4000325
149 1 4.4049993 14.9627676 2.6400001
150 1 2.6425438 14.961649 4.4000797
151 1 2.6418925 16.7204705 2.6400001
152 1 4.404037 16.7211285 4.4000192
153 1 6.1681986 14.9645176 4.3999925
154 1 6.1665087 16.7219467 2.6400001
155 1 7.9329544 14.9676124 2.6400001
156 1 7.9295836 16.7230854 4.3999953
157 1 11.4739723 14.9864808 2.6400001
158 1 9.7013111 14.9740888 4.3999949
159 1 9.6943112 16.7252579 2.6400001
160 1 11.4652977 16.7334042 4.3999992
161 2 13.2439518 14.9995204 4.4000001
162 2 13.2425404 16.7545414 2.6400001
163 2 15.0076752 15.0076752 2.6400001
164 2 16.7585736 14.998373 4.4000001
165 2 14.998373 16.7585736 4.4000001
166 1 0.8797684 18.4790859 2.6400001
167 1 4.4036651 18.479744 2.6400001
168 1 2.6416054 18.4794426 4.4000111
169 1 6.1659699 18.4799252 4.4000034
170 1 7.928565 18.4800263 2.6400001
171 2 11.4514008 18.4799996 2.6400001
172 1 9.690856 18.4800549 4.3999982
173 2 13.2330923 18.4799996 4.4000001
174 1 0.880865 0.8839438 6.1600213
175 1 4.4044008 0.8841328 6.1600065
176 1 7.9244952 0.8839482 6.1599999
177 1 11.4425917 0.8829754 6.1599975
178 1 14.9610538 0.8822306 6.1599999
179 1 18.4803467 0.882327 6.160007
180 1 0.8816106 4.4068613 6.1600971
181 1 2.6438327 2.6462765 6.1600308
182 1 4.4075527 4.40908 6.1600251
183 1 6.1666093 2.6474283 6.1600027
184 1 7.9293518 4.4111061 6.1599884
185 1 9.6853514 2.6468327 6.159996
186 1 11.4464331 4.4094057 6.1599989
187 1 13.2025728 2.6447659 6.1599956
188 1 14.9624386 4.4061608 6.159987
189 1 16.7207661 2.643625 6.1600032
190 1 18.480072 4.40518 6.160027
191 1 2.6459322 6.1681137 6.1601224
192 1 6.171659 6.1727533 6.1599755
193 1 9.6925926 6.1752186 6.1599956
194 1 13.2072516 6.1716986 6.159996
195 1 16.7217121 6.1674619 6.1599732
196 1 0.8824434 7.9258862 6.1604114
197 1 4.4100428 7.9304372 6.1599813
198 1 7.9364018 7.9372908 6.1599813
199 1 11.456338 7.9400006 6.1600018
200 1 14.9671374 7.9336172 6.1599832
201 1 18.4798661 7.9292584 6.1599751
202 1 0.8815874 11.4433155 6.1604109
203 1 2.6457606 9.6863518 6.1600819
204 1 4.4084811 11.4472142 6.1599813
205 1 6.1743341 9.6934653 6.1599636
206 1 7.939262 11.4570484 6.1599813
207 1 9.7021532 9.7028809 6.159996
208 1 11.4693899 11.4699364 6.1600013
209 1 13.2206965 9.705946 6.1599999
210 1 14.9861956 11.4742308 6.1599956
211 1 16.7249584 9.6947031 6.1599679
212 2 18.4799996 11.4514008 6.1599999
213 1 2.6435375 13.2030525 6.1601243
214 1 6.1708889 13.2078734 6.1599755
215 1 9.7053871 13.2212391 6.1599951
216 1 13.2388659 13.2391081 6.1600013
217 2 16.7545414 13.2425404 6.1599999
218 1 0.880076 14.9606524 6.1600876
219 1 4.4050565 14.9627714 6.1600261
220 1 2.6418073 16.7203865 6.1600308
221 1 6.166532 16.7219506 6.1600032
222 1 7.932972 14.967617 6.1599884
223 1 11.4739685 14.9864798 6.1599994
224 1 9.694315 16.7252598 6.159996
225 2 13.2425404 16.7545414 6.1599999
226 2 15.0076752 15.0076752 6.1599999
227 1 0.879841 18.4791546 6.1600199
228 1 4.4036455 18.4797192 6.160007
229 1 7.9285718 18.4800282 6.1599994
230 2 11.4514008 18.4799996 6.1599999
231 1 0.880865 0.8839438 9.6799793
232 1 2.6430078 0.884008 7.9200002
233 1 4.4044008 0.8841328 9.6799937
234 1 6.1648641 0.8841586 7.9200002
235 1 7.9244952 0.8839482 9.6800003
236 1 9.6836138 0.8835086 7.9200002
237 1 11.4425917 0.8829754 9.6800022
238 1 13.2017021 0.8825134 7.9200002
239 1 16.7206269 0.882168 7.9200002
240 1 14.9610538 0.8822306 9.6800003
241 1 18.4803467 0.882327 9.6799927
242 1 0.8811142 2.6459048 7.9200002
243 1 0.8816106 4.4068613 9.6799031
244 1 4.4057465 2.6469286 7.9200002
245 1 2.6449397 4.4077191 7.9200002
246 1 2.6438327 2.6462765 9.6799689
247 1 4.4075527 4.40908 9.6799755
248 1 6.169095 4.4104157 7.9200002
249 1 6.1666093 2.6474283 9.6799975
250 1 7.9264002 2.6474386 7.9200002
251 1 7.9293518 4.4111061 9.6800118
252 1 11.4439297 2.6458111 7.9200002
253 1 9.6883574 4.4107528 7.9200002
254 1 9.6853514 2.6468327 9.6800041
255 1 11.4464331 4.4094057 9.6800013
256 1 13.2042608 4.4076357 7.9200002
257 1 13.2025728 2.6447659 9.6800041
258 1 14.9615088 2.6439977 7.9200002
259 1 16.721077 4.4053292 7.9200002
260 1 14.9624386 4.4061608 9.6800127
261 1 16.7207661 2.643625 9.6799965
262 1 18.4802456 2.6436768 7.9200002
263 1 18.480072 4.40518 9.6799727
264 1 0.8820032 6.1668468 7.9200002
265 1 4.4092288 6.1703291 7.9200002
266 1 2.6459322 6.1681137 9.6798783
267 1 6.171659 6.1727533 9.6800242
268 1 7.9329392 6.1746092 7.9200002
269 1 11.4505015 6.1741567 7.9200002
270 1 9.6925926 6.1752186 9.6800041
271 1 13.2072516 6.1716986 9.6800041
272 1 14.9640714 6.1690745 7.9200002
273 1 16.7217121 6.1674619 9.680027
274 1 18.4798775 6.1670208 7.9200002
275 1 0.8824434 7.9258862 9.6795883
276 1 2.6463337 7.9275966 7.9200002
277 1 4.4100428 7.9304372 9.6800184
278 1 6.1736546 7.9339162 7.9200002
279 1 7.9364018 7.9372908 9.6800184
280 1 9.6975355 7.9396172 7.9200002
281 1 11.456338 7.9400006 9.6799984
282 1 13.2124758 7.9377804 7.9200002
283 1 16.7227402 7.9302292 7.9200002
284 1 14.9671374 7.9336172 9.6800165
285 1 18.4798661 7.9292584 9.6800251
286 1 0.882283 9.6846819 7.9200002
287 1 0.8815874 11.4433155 9.6795893
288 1 4.409842 9.6892958 7.9200002
289 1 2.644836 11.4447241 7.9200002
290 1 2.6457606 9.6863518 9.6799183
291 1 4.4084811 11.4472142 9.6800184
292 1 6.1733451 11.4512587 7.9200002
293 1 6.1743341 9.6934653 9.6800366
294 1 7.938809 9.6983414 7.9200002
295 1 7.939262 11.4570484 9.6800184
296 1 11.463151 9.7058048 7.9200002
297 1 9.7051544 11.4637938 7.9200002
298 1 9.7021532 9.7028809 9.6800041
299 1 11.4693899 11.4699364 9.6799984
300 1 13.2302332 11.4737654 7.9200002
301 1 13.2206965 9.705946 9.6800003
302 1 14.9736692 9.7017823 7.9200002
303 1 16.7332745 11.4654579 7.9200002
304 1 14.9861956 11.4742308 9.6800041
305 1 16.7249584 9.6947031 9.6800318
306 1 18.4798222 9.6911907 7.9200002
307 2 18.4799996 11.4514008 9.6800003
308 1 0.880584 13.2018137 7.9200002
309 1 4.4067202 13.2048626 7.9200002
310 1 2.6435375 13.2030525 9.6798754
311 1 6.1708889 13.2078734 9.6800242
312 1 7.937099 13.2130776 7.9200002
313 1 11.4733401 13.2306595 7.9200002
314 1 9.7053871 13.2212391 9.6800051
315 1 13.2388659 13.2391081 9.6799984
316 2 14.9995204 13.2439518 7.9200002
317 2 16.7545414 13.2425404 9.6800003
318 2 18.4799996 13.2330923 7.9200002
319 1 0.879777 16.7197361 7.9200002
320 1 0.880076 14.9606524 9.6799126
321 1 2.6418073 16.7203865 9.6799689
322 1 2.6424411 14.9615518 7.9200002
323 1 4.404017 16.7210961 7.9200002
324 1 4.4050565 14.9627714 9.6799736
325 1 6.166532 16.7219506 9.6799965
326 1 6.1682549 14.9645338 7.9200002
327 1 7.9296012 16.7230931 7.9200002
328 1 7.932972 14.967617 9.6800118
329 1 9.694315 16.7252598 9.6800041
330 1 9.7013092 14.9740878 7.9200002
331 1 11.4652968 16.7334023 7.9200002
332 1 11.4739685 14.9864798 9.6800003
333 2 13.2425404 16.7545414 9.6800003
334 2 13.2439518 14.9995204 7.9200002
335 2 16.7585736 14.998373 7.9200002
336 2 15.0076752 15.0076752 9.6800003
337 2 14.998373 16.7585736 7.9200002
338 1 0.879841 18.4791546 9.6799803
339 1 4.4036455 18.4797192 9.6799927
340 1 2.6416164 18.4794445 7.9200002
341 1 6.1659646 18.4799156 7.9200002
342 1 7.9285718 18.4800282 9.6800003
343 2 11.4514008 18.4799996 9.6800003
344 1 9.6908598 18.4800568 7.9200002
345 2 13.2330923 18.4799996 7.9200002
346 1 0.8801658 20.2387409 0.879987
347 1 4.4039188 20.2384148 0.8799982
348 1 7.929522 20.2369805 0.8799996
349 1 11.4652758 20.226677 0.8800002
350 2 14.998373 20.2014256 0.88
351 1 0.8812616 23.7577515 0.8799956
352 1 2.6425295 21.9978294 0.8799976
353 1 4.4064903 23.7551384 0.8800002
354 1 6.1680441 21.9954338 0.8800002
355 1 7.9369594 23.747118 0.8800004
356 1 9.7012539 21.9860898 0.88
357 1 11.4733362 23.7295819 0.88
358 2 13.2439518 21.9604778 0.88
359 2 16.7585736 21.961628 0.88
360 2 14.9995204 23.7160492 0.88
361 2 18.4799996 23.7269097 0.88
362 1 2.6447273 25.5155411 0.8799996
363 1 6.1731806 25.5090199 0.8800004
364 1 9.7050915 25.4965611 0.8800002
365 1 13.2302723 25.4865513 0.88
366 1 16.7332859 25.4947205 0.88
367 1 0.882469 27.27594 0.8800024
368 1 4.4097276 27.2712059 0.8800002
369 1 7.938715 27.2621422 0.8800002
370 1 11.46315 27.2546826 0.8800002
371 1 14.9737302 27.2586517 0.88
372 1 18.4798947 27.269146 0.8800004
373 1 0.882857 30.7947083 0.8800022
374 1 2.6463425 29.0332241 0.8800012
375 1 4.4092012 30.79068 0.8800002
376 1 6.1735702 29.0267811 0.88
377 1 7.9328604 30.7862263 0.8800002
378 1 9.6974898 29.0210209 0.8800002
379 1 11.4505129 30.7865982 0.8800002
380 1 13.2125273 29.0228405 0.8800002
381 1 16.7228279 29.0303822 0.88
382 1 14.9641744 30.7917233 0.8800002
383 1 18.4799099 30.7939205 0.8800002
384 1 2.6453467 32.5538979 0.8799998
385 1 6.169014 32.5507164 0.8800004
386 1 9.6883106 32.550148 0.8800002
387 1 13.2043409 32.5532532 0.8800002
388 1 16.7211781 32.5557747 0.8800004
389 1 0.88195 34.3165093 0.8799964
390 1 4.4058466 34.3147202 0.8800004
391 1 2.6432598 36.0782967 0.8799984
392 1 6.1648364 36.0773468 0.8800006
393 1 7.9263144 34.3136826 0.8800004
394 1 11.443944 34.3151207 0.88
395 1 9.6835842 36.0775223 0.8800002
396 1 13.2017489 36.0785141 0.88
397 1 14.9616194 34.3171158 0.8800004
398 1 16.7206612 36.0793457 0.8800002
399 1 18.4801407 34.3179703 0.88
400 1 0.880949 37.8413734 0.8799882
401 1 4.4039259 37.840992 0.8799988
402 1 7.923831 37.8406182 0.8799998
403 1 11.4421749 37.8404922 0.8800012
404 1 14.9609346 37.8406182 0.8799996
405 1 18.4803581 37.8410034 0.8799982
406 1 0.8801658 20.2387409 4.400013
407 1 2.6418407 20.2386208 2.6400001
408 1 4.4039188 20.2384148 4.400002
409 1 6.1664152 20.2379265 2.6400001
410 1 7.929522 20.2369805 4.4000001
411 1 9.6942902 20.2348652 2.6400001
412 1 11.4652758 20.226677 4.4000001
413 2 13.2425404 20.2054596 2.6400001
414 2 14.998373 20.2014256 4.4000001
415 1 0.880689 21.998356 2.6400001
416 1 0.8812616 23.7577515 4.4000044
417 1 4.4048729 21.9969502 2.6400001
418 1 2.6425295 21.9978294 4.4000025
419 1 2.6435395 23.7568226 2.6400001
420 1 4.4064903 23.7551384 4.4000001
421 1 6.1680441 21.9954338 4.3999996
422 1 6.1706963 23.7522221 2.6400001
423 1 7.93285 21.9924946 2.6400001
424 1 7.9369594 23.747118 4.3999996
425 1 11.4739523 21.9736786 2.6400001
426 1 9.7012539 21.9860898 4.4000001
427 1 9.7053204 23.7390137 2.6400001
428 1 11.4733362 23.7295819 4.4000001
429 2 13.2439518 21.9604778 4.4000001
430 1 13.2388706 23.7210675 2.6400001
431 2 15.0076752 21.9523258 2.6400001
432 2 16.7585736 21.961628 4.4000001
433 2 14.9995204 23.7160492 4.4000001
434 2 16.7545414 23.7174607 2.6400001
435 2 18.4799996 23.7269097 4.4000001
436 1 0.8818868 25.5169144 2.6400001
437 1 4.4083567 25.5130368 2.6400001
438 1 2.6447273 25.5155411 4.4000006
439 1 6.1731806 25.5090199 4.3999996
440 1 7.9391418 25.503273 2.6400001
441 1 11.4693814 25.4904251 2.6400001
442 1 9.7050915 25.4965611 4.4000001
443 1 13.2302723 25.4865513 4.4000001
444 1 14.9862328 25.4860039 2.6400001
445 1 16.7332859 25.4947205 4.4000001
446 2 18.4799996 25.5085984 2.6400001
447 1 0.882469 27.27594 4.3999977
448 1 2.6457927 27.2741947 2.6400001
449 1 4.4097276 27.2712059 4.4000001
450 1 6.1742368 27.2670174 2.6400001
451 1 7.938715 27.2621422 4.4000001
452 1 9.7020951 27.2576084 2.6400001
453 1 11.46315 27.2546826 4.4000001
454 1 13.2207384 27.2545223 2.6400001
455 1 14.9737302 27.2586517 4.4000001
456 1 16.725029 27.2656689 2.6400001
457 1 18.4798947 27.269146 4.3999996
458 1 0.8828396 29.03508 2.6400001
459 1 0.882857 30.7947083 4.3999977
460 1 4.410027 29.0303154 2.6400001
461 1 2.6463425 29.0332241 4.3999992
462 1 2.6461599 30.7930546 2.6400001
463 1 4.4092012 30.79068 4.4000001
464 1 6.1735702 29.0267811 4.4000001
465 1 6.1715989 30.7881623 2.6400001
466 1 7.9363252 29.0233707 2.6400001
467 1 7.9328604 30.7862263 4.4000001
468 1 11.4563408 29.0206261 2.6400001
469 1 9.6974898 29.0210209 4.4000001
470 1 9.6925469 30.7855625 2.6400001
471 1 11.4505129 30.7865982 4.4000001
472 1 13.2125273 29.0228405 4.4000001
473 1 13.2073231 30.7890644 2.6400001
474 1 14.9672242 29.0269947 2.6400001
475 1 16.7228279 29.0303822 4.4000001
476 1 14.9641744 30.7917233 4.4000001
477 1 16.7217865 30.7933998 2.6400001
478 1 18.4798699 29.031395 2.6400001
479 1 18.4799099 30.7939205 4.4000001
480 1 0.8825128 32.5551453 2.6400001
481 1 4.4076195 32.5522423 2.6400001
482 1 2.6453467 32.5538979 4.4000001
483 1 6.169014 32.5507164 4.3999996
484 1 7.9292674 32.5498925 2.6400001
485 1 11.4464503 32.5514565 2.6400001
486 1 9.6883106 32.550148 4.4000001
487 1 13.2043409 32.5532532 4.4000001
488 1 14.9625502 32.5548134 2.6400001
489 1 16.7211781 32.5557747 4.3999996
490 1 18.4800053 32.5561066 2.6400001
491 1 0.881378 36.0786934 2.6400001
492 1 0.88195 34.3165093 4.4000034
493 1 2.6442421 34.3157234 2.6400001
494 1 4.4044623 36.0777588 2.6400001
495 1 4.4058466 34.3147202 4.3999996
496 1 2.6432598 36.0782967 4.4000015
497 1 6.1665545 34.3139191 2.6400001
498 1 6.1648364 36.0773468 4.3999996
499 1 7.9244476 36.0772591 2.6400001
500 1 7.9263144 34.3136826 4.3999996
501 1 9.6853085 34.3141518 2.6400001
502 1 11.4426012 36.0779953 2.6400001
503 1 11.443944 34.3151207 4.4000001
504 1 9.6835842 36.0775223 4.4000001
505 1 13.2026444 34.3162117 2.6400001
506 1 13.2017489 36.0785141 4.4000001
507 1 14.961115 36.0789795 2.6400001
508 1 14.9616194 34.3171158 4.3999996
509 1 16.7208367 34.3177147 2.6400001
510 1 16.7206612 36.0793457 4.4000001
511 1 18.4802819 36.079586 2.6400001
512 1 18.4801407 34.3179703 4.4000001
513 1 0.880949 37.8413734 4.400012
514 1 2.6427627 37.8412324 2.6400001
515 1 4.4039259 37.840992 4.4000011
516 1 6.1642375 37.8407746 2.6400001
517 1 7.923831 37.8406182 4.4000001
518 1 9.6830349 37.8405266 2.6400001
519 1 11.4421749 37.8404922 4.3999992
520 1 13.2014542 37.8405266 2.6400001
521 1 14.9609346 37.8406182 4.4000006
522 1 16.7205925 37.8407784 2.6400001
523 1 18.4803581 37.8410034 4.400002
524 1 2.6418715 20.2386494 6.1600051
525 1 6.1664105 20.2379208 6.1600013
526 1 9.6942911 20.2348652 6.1599999
527 2 13.2425404 20.2054596 6.1599999
528 1 0.8806632 21.9983368 6.1600089
529 1 4.4048848 21.9969636 6.1599999
530 1 2.6435318 23.7568188 6.1600013
531 1 6.170701 23.7522259 6.1599994
532 1 7.932848 21.9924908 6.1599999
533 1 11.4739523 21.9736786 6.1599999
534 1 9.7053194 23.7390137 6.1599999
535 1 13.2388706 23.7210675 6.1599999
536 2 15.0076752 21.9523258 6.1599999
537 2 16.7545414 23.7174607 6.1599999
538 1 0.8818884 25.516922 6.1599999
539 1 4.4083548 25.5130348 6.1599999
540 1 7.9391432 25.503273 6.1599999
541 1 11.4693814 25.4904251 6.1599999
542 1 14.9862328 25.4860039 6.1599999
543 2 18.4799996 25.5085984 6.1599999
544 1 2.6457937 27.2741966 6.1599994
545 1 6.1742363 27.2670155 6.1599999
546 1 9.7020951 27.2576084 6.1599999
547 1 13.2207384 27.2545223 6.1599999
548 1 16.725029 27.2656689 6.1599999
549 1 0.882841 29.0350819 6.1599975
550 1 4.410027 29.0303154 6.1599999
551 1 2.6461609 30.7930527 6.1599994
552 1 6.171598 30.7881623 6.1599999
553 1 7.9363246 29.0233707 6.1599999
554 1 11.4563408 29.0206242 6.1599999
555 1 9.6925469 30.7855625 6.1599999
556 1 13.2073231 30.7890644 6.1599999
557 1 14.9672242 29.0269947 6.1599999
558 1 16.7217865 30.7934037 6.1599999
559 1 18.4798699 29.031395 6.1599999
560 1 0.8825142 32.5551377 6.1599999
561 1 4.4076181 32.5522423 6.1599999
562 1 7.9292684 32.5498886 6.1599999
563 1 11.4464503 32.5514565 6.1599999
564 1 14.9625484 32.5548096 6.1599999
565 1 18.4800072 32.5561104 6.1599999
566 1 0.8813568 36.0787125 6.160007
567 1 2.6442361 34.3157234 6.1600008
568 1 4.4044738 36.0777512 6.1599999
569 1 6.1665583 34.3139153 6.1599994
570 1 7.9244462 36.0772591 6.1599999
571 1 9.6853085 34.3141518 6.1599999
572 1 11.4426012 36.0779953 6.1599999
573 1 13.2026444 34.3162117 6.1599999
574 1 14.9611178 36.0789795 6.1599999
575 1 16.7208328 34.3177109 6.1599994
576 1 18.4802704 36.0795746 6.1600008
577 1 2.6427918 37.8412018 6.1600046
578 1 6.1642327 37.8407784 6.1600008
579 1 9.6830359 37.8405228 6.1599994
580 1 13.2014513 37.8405266 6.1599994
581 1 16.7205982 37.8407898 6.1600013
582 1 0.88017 20.2387524 7.9200002
583 1 4.4039264 20.2384186 7.9200002
584 1 2.6418715 20.2386494 9.6799946
585 1 6.1664105 20.2379208 9.6799984
586 1 7.9295192 20.2369785 7.9200002
587 1 11.4652777 20.226677 7.9200002
588 1 9.6942911 20.2348652 9.6800003
589 2 13.2425404 20.2054596 9.6800003
590 2 14.998373 20.2014256 7.9200002
591 1 0.8812506 23.7577477 7.9200002
592 1 0.8806632 21.9983368 9.6799908
593 1 2.642534 21.9978372 7.9200002
594 1 4.4064927 23.7551403 7.9200002
595 1 4.4048848 21.9969636 9.6800003
596 1 2.6435318 23.7568188 9.6799984
597 1 6.1680474 21.9954338 7.9200002
598 1 6.170701 23.7522259 9.6800003
599 1 7.9369608 23.747118 7.9200002
600 1 7.932848 21.9924908 9.6800003
601 1 9.701253 21.9860898 7.9200002
602 1 11.4733353 23.7295819 7.9200002
603 1 11.4739523 21.9736786 9.6800003
604 1 9.7053194 23.7390137 9.6800003
605 2 13.2439518 21.9604778 7.9200002
606 1 13.2388706 23.7210675 9.6800003
607 2 16.7585736 21.961628 7.9200002
608 2 14.9995204 23.7160492 7.9200002
609 2 15.0076752 21.9523258 9.6800003
610 2 16.7545414 23.7174607 9.6800003
611 2 18.4799996 23.7269097 7.9200002
612 1 0.8818884 25.516922 9.6800003
613 1 2.6447237 25.5155373 7.9200002
614 1 4.4083548 25.5130348 9.6800003
615 1 6.173182 25.5090199 7.9200002
616 1 7.9391432 25.503273 9.6800003
617 1 9.7050915 25.4965611 7.9200002
618 1 11.4693814 25.4904251 9.6800003
619 1 13.2302723 25.4865513 7.9200002
620 1 16.7332859 25.4947205 7.9200002
621 1 14.9862328 25.4860039 9.6800003
622 2 18.4799996 25.5085984 9.6800003
623 1 0.8824716 27.2759476 7.9200002
624 1 4.4097271 27.2712059 7.9200002
625 1 2.6457937 27.2741966 9.6800003
626 1 6.1742363 27.2670155 9.6800003
627 1 7.9387156 27.2621422 7.9200002
628 1 11.46315 27.2546826 7.9200002
629 1 9.7020951 27.2576084 9.6800003
630 1 13.2207384 27.2545223 9.6800003
631 1 14.9737302 27.2586517 7.9200002
632 1 16.725029 27.2656689 9.6800003
633 1 18.4798947 27.269146 7.9200002
634 1 0.8828594 30.7947006 7.9200002
635 1 0.882841 29.0350819 9.6800022
636 1 2.6463447 29.0332241 7.9200002
637 1 4.4092007 30.7906819 7.9200002
638 1 4.410027 29.0303154 9.6800003
639 1 2.6461609 30.7930527 9.6800003
640 1 6.1735692 29.0267811 7.9200002
641 1 6.171598 30.7881623 9.6800003
642 1 7.9328604 30.7862263 7.9200002
643 1 7.9363246 29.0233707 9.6800003
644 1 9.6974898 29.0210209 7.9200002
645 1 11.4505129 30.7865982 7.9200002
646 1 11.4563408 29.0206242 9.6800003
647 1 9.6925469 30.7855625 9.6800003
648 1 13.2125273 29.0228405 7.9200002
649 1 13.2073231 30.7890644 9.6800003
650 1 16.7228279 29.0303822 7.9200002
651 1 14.9641744 30.7917233 7.9200002
652 1 14.9672242 29.0269947 9.6800003
653 1 16.7217865 30.7934037 9.6800003
654 1 18.4799099 30.7939205 7.9200002
655 1 18.4798699 29.031395 9.6800003
656 1 0.8825142 32.5551377 9.6800003
657 1 2.6453438 32.5538979 7.9200002
658 1 4.4076181 32.5522423 9.6800003
659 1 6.1690149 32.5507164 7.9200002
660 1 7.9292684 32.5498886 9.6800003
661 1 9.6883106 32.550148 7.9200002
662 1 11.4464503 32.5514565 9.6800003
663 1 13.2043409 32.5532532 7.9200002
664 1 16.7211762 32.5557709 7.9200002
665 1 14.9625484 32.5548096 9.6800003
666 1 18.4800072 32.5561104 9.6800003
667 1 0.881941 34.3165131 7.9200002
668 1 0.8813568 36.0787125 9.6799927
669 1 4.405849 34.3147164 7.9200002
670 1 2.643265 36.078289 7.9200002
671 1 2.6442361 34.3157234 9.6799994
672 1 4.4044738 36.0777512 9.6800003
673 1 6.1648398 36.077343 7.9200002
674 1 6.1665583 34.3139153 9.6800003
675 1 7.9263148 34.3136826 7.9200002
676 1 7.9244462 36.0772591 9.6800003
677 1 11.443944 34.3151207 7.9200002
678 1 9.6835823 36.0775223 7.9200002
679 1 9.6853085 34.3141518 9.6800003
680 1 11.4426012 36.0779953 9.6800003
681 1 13.2017498 36.0785179 7.9200002
682 1 13.2026444 34.3162117 9.6800003
683 1 16.7208328 34.3177109 9.6800003
684 1 14.9616176 34.3171158 7.9200002
685 1 16.7206593 36.0793457 7.9200002
686 1 14.9611178 36.0789795 9.6800003
687 1 18.4802704 36.0795746 9.6799994
688 1 18.4801388 34.3179665 7.9200002
689 1 0.8809552 37.841362 7.9200002
690 1 2.6427918 37.8412018 9.6799956
691 1 4.4039335 37.8409844 7.9200002
692 1 6.1642327 37.8407784 9.6799994
693 1 7.9238296 37.8406182 7.9200002
694 1 9.6830359 37.8405228 9.6800003
695 1 11.4421749 37.8404922 7.9200002
696 1 13.2014513 37.8405266 9.6800003
697 1 16.7205982 37.8407898 9.6799984
698 1 14.9609356 37.8406258 7.9200002
699 1 18.4803505 37.8409996 7.9200002
700 1 20.240099 0.882703 0.8799898
701 1 23.7589321 0.8838226 0.8799686
702 1 27.2759857 0.8842806 0.8797428
703 1 30.7938919 0.884664 0.8795862
704 1 34.3147888 0.8840564 0.8797328
705 1 37.8384209 0.8840154 0.8799592
706 1 20.2391148 4.405653 0.8799178
707 1 21.9992828 2.645062 0.8799726
708 1 23.756794 4.4091807 0.8800052
709 1 25.5169335 2.6477196 0.8799976
710 1 27.2728787 4.4135351 0.8804962
711 1 29.032793 2.6478923 0.879471
712 1 30.7898197 4.409574 0.8793802
713 1 32.5526543 2.6470707 0.8794312
714 1 36.0753136 2.6466022 0.8799456
715 1 34.3115349 4.4097333 0.8803288
716 1 37.8379822 4.4069333 0.8799454
717 1 21.9959222 6.1694565 0.8797354
718 1 25.5109768 6.1763105 0.880497
719 1 29.0291863 6.1790972 0.8832044
720 1 32.5467568 6.1742158 0.8828478
721 1 36.0740395 6.1680884 0.880293
722 1 20.2371845 7.9303542 0.8798868
723 1 23.7468987 7.9380518 0.8794018
724 1 27.2647381 7.9429436 0.883013
725 1 30.7853585 7.9482132 0.893671
726 1 34.3096352 7.9303142 0.882587
727 1 37.8394356 7.9251924 0.8794174
728 1 20.2266979 11.4654732 0.8799378
729 1 21.9862176 9.7019263 0.8795714
730 1 23.7290211 11.4740982 0.8793564
731 1 25.494421 9.7062512 0.8791454
732 1 27.2563019 11.4618063 0.8825144
733 1 29.0309563 9.6989107 0.8919932
734 1 30.7850724 11.4372854 0.8944926
735 1 32.5379868 9.6892815 0.8918856
736 1 36.0778389 9.6846972 0.8792184
737 1 34.3107414 11.4419766 0.8828876
738 1 37.8394128 11.4429808 0.8794398
739 2 21.9604778 13.2439518 0.88
740 1 25.4872608 13.2298164 0.8802086
741 1 29.0243168 13.209919 0.8829592
742 1 32.5488053 13.2010059 0.883273
743 1 36.075161 13.2005224 0.8804302
744 2 20.2014256 14.998373 0.88
745 2 23.7160492 14.9995204 0.88
746 2 21.961628 16.7585736 0.88
747 1 25.4948063 16.7327595 0.8799356
748 1 27.2591267 14.9725104 0.8803128
749 1 30.7903919 14.9659882 0.879346
750 1 29.0293064 16.7232209 0.8793704
751 1 32.5542641 16.7212563 0.8794222
752 1 34.3137398 14.9595518 0.880469
753 1 36.0764236 16.7190686 0.8799784
754 1 37.8378449 14.959939 0.8799846
755 2 23.7269097 18.4799996 0.88
756 1 27.2686138 18.4799595 0.8797004
757 1 30.7927113 18.4797344 0.8795476
758 1 34.3160935 18.4795742 0.8797236
759 1 37.838337 18.478962 0.8799624
760 1 20.240099 0.882703 4.4000101
761 1 21.9997616 0.8833066 2.6400001
762 1 23.7589321 0.8838226 4.4000316
763 1 25.5174656 0.8839706 2.6400001
764 1 27.2759857 0.8842806 4.4002571
765 1 29.0346794 0.8845246 2.6400001
766 1 30.7938919 0.884664 4.400414
767 1 32.5539131 0.8843654 2.6400001
768 1 36.0764351 0.8838714 2.6400001
769 1 34.3147888 0.8840564 4.4002671
770 1 37.8384209 0.8840154 4.4000411
771 1 20.2397213 2.6440621 2.6400001
772 1 20.2391148 4.405653 4.4000821
773 1 21.997862 4.4068008 2.6400001
774 1 21.9992828 2.645062 4.4000278
775 1 23.7585945 2.6465502 2.6400001
776 1 23.756794 4.4091807 4.3999949
777 1 25.5155926 4.4123469 2.6400001
778 1 25.5169335 2.6477196 4.4000025
779 1 27.2743187 2.6475542 2.6400001
780 1 27.2728787 4.4135351 4.3995042
781 1 29.0293331 4.4103036 2.6400001
782 1 29.032793 2.6478923 4.4005294
783 1 30.7922364 2.6475919 2.6400001
784 1 30.7898197 4.409574 4.40062
785 1 32.5516205 4.4080305 2.6400001
786 1 32.5526543 2.6470707 4.4005685
787 1 34.3139649 2.6463185 2.6400001
788 1 36.0738869 4.4085722 2.6400001
789 1 36.0753136 2.6466022 4.4000545
790 1 34.3115349 4.4097333 4.3996716
791 1 37.8379212 2.6461864 2.6400001
792 1 37.8379822 4.4069333 4.4000549
793 1 20.2383366 6.1676683 2.6400001
794 1 21.9959222 6.1694565 4.4002648
795 1 23.7524395 6.1722012 2.6400001
796 1 25.5109768 6.1763105 4.3995032
797 1 27.2718926 6.1810989 2.6400001
798 1 29.0291863 6.1790972 4.3967958
799 1 30.7874642 6.1642542 2.6400001
800 1 32.5467568 6.1742158 4.3971524
801 1 34.3080864 6.1728172 2.6400001
802 1 36.0740395 6.1680884 4.3997073
803 1 37.8391876 6.1660237 2.6400001
804 1 20.2371845 7.9303542 4.4001131
805 1 21.9927254 7.9338546 2.6400001
806 1 23.7468987 7.9380518 4.4005985
807 1 25.5013008 7.9398638 2.6400001
808 1 27.2647381 7.9429436 4.3969875
809 1 29.0352688 7.9513836 2.6400001
810 1 30.7853585 7.9482132 4.3863292
811 1 32.5382157 7.9420538 2.6400001
812 1 36.0775909 7.9251962 2.6400001
813 1 34.3096352 7.9303142 4.3974133
814 1 37.8394356 7.9251924 4.4005828
815 1 20.2350559 9.6947527 2.6400001
816 1 20.2266979 11.4654732 4.4000621
817 1 21.9736576 11.4742813 2.6400001