        9360
Lattice="  42.3235   0.0000   0.0000   0.0000  45.8549   0.0000   0.0000   0.0000  52.9081 " Time=0.000E+00  Step=0  Energy=-41503.049  Barrier=0.000
Ni     5.33093331   37.08112670   47.36883615       1
Ni     7.08423786   37.07799647   45.60364438       2
Ni     5.33277029   38.84753656   49.12842925       3
Ni     7.09241844   37.08541988   49.12983438       4
Ni     8.84773774   37.08583342   47.36257979       5
Ni    10.60369015   38.85662704   47.34985033       6
Ni     8.85059844   38.85451112   49.12066647       7
Ni    10.60948100   37.09443727   49.11928888       8
Ni    14.11714055   38.87363024   47.32871723       9
Ni    15.87931688   40.64918500   47.31623129      10
Ni    12.36281283   38.86965378   49.10403021      11
Ni    14.11480711   37.11247126   49.09772500      12
Ni    15.86992499   37.11616550   47.32109676      13
Ni    17.63227896   38.89276777   47.30993691      14
Ni    15.86915811   38.89076686   49.08281289      15
Ni    17.61752746   37.13672366   49.07199792      16
Ni    19.38773899   37.13426959   47.30568846      17
Ni    21.15501029   38.90838300   47.29988209      18
Ni    19.38173130   38.91171229   49.06611017      19
Ni    21.13372624   37.16109165   49.05428642      20
Ni    22.91680459   37.14694535   47.30195736      21
Ni    24.69865345   38.93074300   47.28418825      22
Ni    22.91086315   38.93133807   49.05128985      23
Ni    24.68686181   37.21704228   49.00349525      24
Ni    26.49055866   37.16054503   47.30600435      25
Ni    28.27324759   38.92499779   47.29587012      26
Ni    26.48456116   38.95923804   49.02435692      27
Ni    28.29312139   37.20660953   49.01964892      28
Ni    30.04371388   38.88993998   45.56412328      29
Ni    31.83486324   38.90395980   47.30967835      30
Ni    30.06798736   38.93599364   49.05082254      31
Ni    31.85821126   37.16796728   49.04606706      32
Ni    33.61233396   37.13985977   47.30393578      33
Ni    35.39104785   37.14174672   49.06703475      34
Ni    33.61762017   38.90915362   49.07091361      35
Ni    35.40843603   35.39580667   50.81799231      36
Ni    37.14155181   37.11779802   47.32129559      37
Ni    38.89183604   40.63369438   49.11101736      38
Ni    38.89314298   38.86781930   47.34094620      39
Ni    40.64135079   37.09639185   47.34166164      40
Ni     0.06459976   37.09160012   49.12182878      41
Ni     0.06858487   38.85201044   47.35490861      42
Ni    40.63340998   37.10247698   50.88097632      43
Ni    40.63632905   35.33880266   49.11477135      44
Ni    40.61526055   35.33175216   52.64791832      45
Ni     3.57432761   38.84453083   47.36551157      46
Ni     1.82056538   38.84955427   49.12605179      47
Ni     3.57324455   37.08313942   49.13073533      48
Ni     7.08812506   38.84657195   47.36365067      49
Ni     7.08874396   42.37786531   47.35519677      50
Ni     5.33577444   42.37913506   49.12246732      51
Ni     7.09191189   40.61564430   49.12150786      52
Ni     8.84583127   40.61647517   47.35311373      53
Ni    10.60694414   42.38957671   47.33975847      54
Ni     8.85140327   42.38639338   49.11099078      55
Ni    10.60791263   40.62787215   49.10785865      56
Ni    12.36281073   40.63127858   47.33499114      57
Ni    14.12644876   42.40580000   47.32213514      58
Ni    12.36773491   42.40228252   49.09568965      59
Ni    14.11938811   40.64581195   49.09042399      60
Ni    17.64670395   42.41823036   47.31171162      61
Ni    19.40429221   42.42335355   49.07889534      62
Ni    15.88291910   42.41632607   49.08348203      63
Ni    17.63223251   40.66275928   49.07647138      64
Ni    19.39938948   40.66331326   47.30589453      65
Ni    21.17204272   42.42391391   47.31110401      66
Ni    21.18080423   44.17446006   49.08785978      67
Ni    21.15555980   40.67287723   49.07003406      68
Ni    22.92903234   40.67211933   47.30276015      69
Ni    24.71043117   42.41683810   47.32154144      70
Ni    22.93669686   42.41655503   49.08442542      71
Ni    24.69761795   40.66737522   49.07108969      72
Ni    26.48463145   40.67808406   47.30122940      73
Ni    28.27034095   42.40919901   47.33246000      74
Ni    26.48310037   42.40428750   49.09275342      75
Ni    28.27065863   40.67260645   49.07094885      76
Ni    30.05280226   40.66323109   47.31741671      77
Ni    31.84060008   44.13909356   45.60384608      78
Ni    30.04816846   42.40656949   49.09743010      79
Ni    31.83689635   40.66554079   49.08112394      80
Ni    31.83133096   42.39982090   47.34132186      81
Ni    35.37260204   42.39252572   47.34838207      82
Ni    33.60341352   42.40510762   49.10462745      83
Ni    35.37605902   40.65086112   49.09571019      84
Ni    37.13489327   40.63503215   47.34290790      85
Ni    38.89148966   42.38680967   47.35548209      86
Ni    37.13413484   42.39904959   49.11468952      87
Ni    35.37462040   38.88621528   47.32390480      88
Ni    40.64301915   38.86357849   49.11425497      89
Ni     0.07306136   42.38047333   47.36156427      90
Ni    40.64506696   42.38623748   49.12108508      91
Ni     0.07222377   40.61910295   49.12215835      92
Ni     1.82281393   40.61210356   47.36202632      93
Ni     3.57754363   42.37594514   47.36271734      94
Ni     1.82597763   42.38127158   49.12619645      95
Ni     3.57763675   40.61308631   49.12666159      96
Ni     5.33439627   44.14153915   47.35732157      97
Ni     7.09496921   45.90827591   47.34830673      98
Ni     5.34218302   45.90802004   49.11871082      99
Ni     7.09577966   44.14640469   49.11437772     100
Ni     8.85000382   44.14795637   47.34386098     101
Ni    10.61452611   45.91705859   47.33273866     102
Ni     8.85668812   45.91407595   49.10613087     103
Ni    10.61261124   44.15763410   49.10058433     104
Ni    12.37239696   44.16265232   47.32729905     105
Ni    12.37731350    1.82021991   43.79040534     106
Ni    14.13892301    0.07679392   50.85672602     107
Ni    14.13334475   44.17306728   49.08814440     108
Ni    15.89482504   44.17471747   47.31703740     109
Ni    17.66888715    0.08550375   47.31576058     110
Ni    14.14231154    0.07771235   47.32138699     111
Ni    17.65400859   44.17872110   49.08252424     112
Ni    19.41943115   44.18043849   47.31376938     113
Ni    21.19448613    0.08308262   47.32258698     114
Ni    19.42673882    0.08143562   49.08553340     115
Ni    22.95891267    1.82938341   50.86378782     116
Ni    22.95690300    0.07135045   49.09845755     117
Ni    26.47849920   42.38332022   52.63120128     118
Ni    26.49917628    1.81210242   50.88262856     119
Ni    24.71687721   44.16052115   49.10095856     120
Ni    26.49690023   44.15818125   47.34572626     121
Ni    26.53177354    1.81513784   47.37275219     122
Ni    28.26337346   45.90012654   50.88462075     123
Ni    28.26659903   44.15005328   49.11181014     124
Ni    28.29004379   45.90267787   47.36933170     125
Ni    31.83959023   45.89803863   47.37843282     126
Ni    31.81123190   45.90218077   50.89131038     127
Ni    33.58930130   44.15672379   50.88011862     128
Ni    31.82405690   44.15042781   49.11815326     129
Ni    35.37586563   44.13734561   45.60422473     130
Ni    31.83164775    1.80442090   49.14810379     131
Ni    35.36871860   44.15415164   49.12307453     132
Ni    37.13578455   44.14613014   47.36436165     133
Ni    38.89588528   45.90658306   47.37624780     134
Ni    37.13320757   45.91133469   49.13824486     135
Ni    38.89205035   44.15336871   49.12827051     136
Ni    40.64637162   44.14655430   47.36707885     137
Ni     0.07549540   45.90658516   47.36988982     138
Ni     0.06106125    0.06906373   50.89223940     139
Ni     0.07368277   44.14869856   49.12950994     140
Ni     1.82624476   44.14262294   47.36453637     141
Ni     3.58185344   45.90581578   47.36147377     142
Ni     1.82831513   45.91009365   49.13062415     143
Ni     8.84674807   44.15023972    1.49498047     144
Ni     5.34182809    1.81481590   47.35412663     145
Ni     7.10289088    3.57757517   47.34722587     146
Ni     5.34750699    3.57748498   49.12067216     147
Ni     7.10175103    1.81767736   49.11268417     148
Ni     8.85805950    1.81899118   47.33932793     149
Ni    10.62197060    3.58200349   47.33476555     150
Ni     8.86315771    3.57986409   49.10839103     151
Ni    10.62000028    1.82403392   49.10055379     152
Ni    12.38060201    1.82780294   47.32697820     153
Ni    14.14887810    3.59324671   47.32109133     154
Ni    12.38649584    3.58648860   49.09683780     155
Ni    14.14742114    1.83557634   49.08793673     156
Ni    15.92043246    1.85099820   47.31499617     157
Ni    17.69645876    3.64110498   47.30603026     158
Ni    15.91640894    3.59779588   49.08582985     159
Ni    17.68302615    1.85804663   49.07748755     160
Ni    19.44213994    1.85211601   47.31907770     161
Ni    21.26130787    5.37781293   45.57017297     162
Ni    22.96892654    3.60694601   49.10408143     163
Ni    21.20729919    3.64610104   47.34442950     164
Ni    22.97014324    1.84675584   47.34300859     165
Ni    24.77454109    3.59001216   47.36842555     166
Ni    26.47910297    3.56809845    3.26314440     167
Ni    24.77342351    1.82769997   45.60637768     168
Ni    24.73534128    1.82707118   49.11321593     169
Ni    28.32907998    3.57674193   47.40220984     170
Ni    26.52964489    3.57790825   49.13377270     171
Ni    28.28821895    1.80693250   49.13619413     172
Ni    30.08139147    1.80388313   47.39313612     173
Ni    30.07265888    3.57100361   49.15629595     174
Ni    31.80756644    5.33625959   52.66947551     175
Ni    33.57175843   45.90808253   52.65216960     176
Ni    33.61645778    1.80508366   47.39659723     177
Ni    35.38823204    3.57316154   47.41044685     178
Ni    33.58428963    1.80792870   50.90424388     179
Ni    35.36523903    1.80958349   49.14828309     180
Ni    37.14481986    1.80986453   47.39502826     181
Ni    38.90267120    3.57265611   47.39822526     182
Ni    37.10872088    3.57419443   52.66615160     183
Ni    38.90514701    1.81400744   49.15847079     184
Ni    40.65072218    1.81174058   47.36860260     185
Ni     0.07969049    3.57386827   47.38156821     186
Ni    40.64796428    3.56385240   49.16068486     187
Ni     0.06679892    1.81484938   49.14658180     188
Ni     1.82808622    1.81325237   47.37138246     189
Ni     3.58784179    3.57573259   47.36406234     190
Ni     1.83183971    3.57463014   49.13696690     191
Ni     3.59001707    1.81534934   49.12450253     192
Ni     5.34749589    5.33703615   47.35772279     193
Ni     7.10645434    7.09668136   47.35408352     194
Ni     5.34972545    7.09676030   49.12778715     195
Ni     7.10659106    5.33751979   49.11722904     196
Ni     8.86434240    5.33836541   47.34348599     197
Ni    10.62507360    7.09995274   47.34354453     198
Ni     8.86597290    7.09673370   49.11575911     199
Ni    10.62615537    5.34051851   49.10619095     200
Ni    12.38671834    5.34551196   47.33290975     201
Ni    14.15165798    7.11014405   47.33370133     202
Ni    12.38921925    7.10160208   49.10605311     203
Ni    14.15334301    5.34789856   49.09590415     204
Ni    15.92602724    3.61293728   45.55268916     205
Ni    17.70462426    7.08642243   47.32072677     206
Ni    15.92054763    7.10814769   49.09537486     207
Ni    17.67330639    5.35596173   49.10326356     208
Ni    19.46851653    7.11963161   45.59805399     209
Ni    21.22954867    7.10339903   47.36247521     210
Ni    19.44471858    7.10688316   52.63651930     211
Ni    19.46572159    7.08032679   49.08444059     212
Ni    23.01782930    5.36553960   47.36356579     213
Ni    24.80716088    7.14269707   47.40682287     214
Ni    22.98817000    7.11527213   49.11793454     215
Ni    24.77642778    5.35351372   49.12797413     216
Ni    26.57465822    5.35865072   47.40478658     217
Ni    28.36094907    7.14081012   47.44199661     218
Ni    26.55237766    7.12680288   49.15771067     219
Ni    28.31436342    5.34670888   49.15877548     220
Ni    33.63839828    5.34726869   47.42995990     221
Ni    31.88905619    7.13123228   47.44764167     222
Ni    28.29701291    7.11468253   50.91294582     223
Ni    33.60706226    3.57154397   49.16297040     224
Ni    35.37884871    5.34051016   49.17335157     225
Ni    33.67005697    7.13694386   45.69972149     226
Ni    33.62435867    7.11647941   49.18632281     227
Ni    37.13609357    3.57201211   49.16055582     228
Ni    37.15223075    5.34223922   47.41596507     229
Ni    38.91064279    7.11110659   47.41348638     230
Ni    35.40365923    7.12015870   47.43459140     231
Ni    38.89700699    5.33832765   49.16384717     232
Ni    40.65699786    5.33685033   47.39915466     233
Ni     0.08961637    7.10419582   47.39072553     234
Ni    40.65417518    7.10842749   49.15925412     235
Ni     0.07922565    5.33697985   49.14909001     236
Ni     1.83675780    5.33762585   47.37659719     237
Ni     3.59470800    7.09909907   47.37006335     238
Ni     1.83859096    7.09999007   49.14361510     239
Ni     3.59118431    5.33688965   49.13169970     240
Ni     5.35144246    8.85885221   47.36571984     241
Ni     7.10453735   10.62006011   47.36638353     242
Ni     5.35105894   10.62008750   49.13679178     243
Ni     7.10651973    8.85597106   49.12620684     244
Ni     8.86293002    8.85748340   47.35529081     245
Ni    14.12006082   12.43073260   45.63101226     246
Ni    10.61615202   10.62353106   47.36220833     247
Ni    10.62422449    8.85768213   49.11685869     248
Ni    12.38416670    8.86514342   47.34885793     249
Ni    15.91257114   10.63339662   49.11802960     250
Ni    14.14244382   10.63719469   47.36286804     251
Ni    14.15198192    8.86461387   49.10830306     252
Ni    15.92448651    8.87203811   47.34588019     253
Ni    17.67629191   10.66913451   47.37401152     254
Ni    17.67745031   10.63042901   50.87486986     255
Ni    17.69211731    8.86159779   49.09872931     256
Ni    19.45823959    8.90001960   47.35896015     257
Ni    21.26618501    8.94550948   45.67645927     258
Ni    21.23745791   10.70237614   47.40878881     259
Ni    22.97834868    8.88040492   50.88063629     260
Ni    23.02084915    8.91733877   47.40715695     261
Ni    24.81008903   10.71363173   47.45254245     262
Ni    22.99830836   10.67702257   49.15471595     263
Ni    24.77458524    8.90017501   49.15468001     264
Ni    26.59288170    8.92978173   47.44896086     265
Ni    30.13328878    8.92076076   47.46087394     266
Ni    26.55724690   10.68546673   49.18832286     267
Ni    30.05939701    5.33960709   50.91363846     268
Ni    30.09508986    7.12273274   49.18249254     269
Ni    31.89755468   10.69291173   47.46442262     270
Ni    30.10421274   10.68187947   49.20316605     271
Ni    31.86763340    8.89832140   49.19648381     272
Ni    33.65381983    8.90505888   47.45159474     273
Ni    35.41436486   10.67222892   47.44592138     274
Ni    33.63418383   10.66887869   49.20022051     275
Ni    35.39013617    8.88756339   49.18965159     276
Ni    35.42794172    8.90769803   45.69398602     277
Ni    38.92205865   10.65357605   47.42118625     278
Ni    37.15270232   10.65405906   49.18615896     279
Ni    37.16367003    8.88944311   47.43070466     280
Ni    40.66790501    8.87739889   47.40547552     281
Ni     0.10101017   10.63823538   47.39679176     282
Ni    40.66413650   10.64026114   49.16793093     283
Ni     0.08971705    8.86941302   49.15541419     284
Ni     1.84636031    8.86610401   47.38329873     285
Ni     3.60136150   10.62616855   47.37759776     286
Ni     1.84685368   10.62897757   49.15044001     287
Ni     3.59628856    8.86024994   49.13913411     288
Ni     5.35229749   12.38796826   47.37628045     289
Ni     7.09858751   14.15473036   47.38006024     290
Ni     5.34971116   14.15255563   49.14627639     291
Ni     7.10207501   12.38268070   49.13764444     292
Ni     8.85340357   12.38669770   47.37258139     293
Ni    10.59919966   14.16098432   47.38326098     294
Ni     8.84987019   14.15018609   49.14191927     295
Ni    10.61211854   12.38440879   49.13286983     296
Ni    12.36652338   12.39837210   47.37555783     297
Ni    14.11493453   14.18520827   47.39381846     298
Ni    12.36138062   14.15825436   49.14178643     299
Ni    14.13470727   12.39655674   49.13179523     300
Ni    17.66582710   12.42246072   49.13861236     301
Ni    17.65603027   14.22618228   47.41816908     302
Ni    15.88698014   14.18154130   49.14814892     303
Ni    19.44632075   12.47022281   47.41586490     304
Ni    19.47024449   10.73278904   45.67441906     305
Ni    21.22486368   14.26094313   47.45385298     306
Ni    19.43086688   14.21053928   49.16622430     307
Ni    21.21637918   12.44775045   49.16031554     308
Ni    23.02110869   12.49458014   47.45418142     309
Ni    24.79666394   14.27007604   47.47277653     310
Ni    22.99176544   14.23481571   49.19189718     311
Ni    24.77766924   12.46363124   49.18975313     312
Ni    26.58545637   12.49363239   47.47352910     313
Ni    28.33161807   12.46292096   49.20657817     314
Ni    26.55213760   14.24044282   49.20738442     315
Ni    28.33175008    8.90559721   49.18664037     316
Ni    30.13105979   12.47863374   47.47215930     317
Ni    31.89503855   14.23568731   47.46155235     318
Ni    30.10156077   14.22922215   49.20968689     319
Ni    31.87188096   12.45058259   49.20711239     320
Ni    33.65903329   12.45581660   47.45671432     321
Ni    35.42045988   14.21084970   47.44175834     322
Ni    33.63877122   14.20954258   49.20065629     323
Ni    35.39854822   12.43229026   49.19561241     324
Ni    37.17386484   12.43266775   47.43399030     325
Ni    38.93192391   14.18938428   47.41987793     326
Ni    37.16258241   14.18912869   49.18550173     327
Ni    38.91471969   12.41435364   49.17850062     328
Ni    40.67927911   12.41308957   47.40987442     329
Ni     0.11019164   14.17171968   47.39946391     330
Ni    40.67419409   14.17267549   49.16962926     331
Ni     0.09879876   12.39999759   49.16117553     332
Ni     1.85525636   12.39786833   47.38908582     333
Ni     3.60526367   14.15967615   47.38496834     334
Ni     1.85286517   14.16055992   49.15576887     335
Ni     3.60052029   12.38913249   49.14687778     336
Ni     5.35069697   15.92588115   47.38522090     337
Ni     7.09341929   17.69662426   47.38838963     338
Ni     5.34705309   17.69235974   49.15314056     339
Ni     7.09556127   15.92037141   49.14873096     340
Ni     8.84196572   15.92744679   47.38719189     341
Ni    10.58624885   17.70358648   47.39437407     342
Ni     8.84011186   17.69206612   49.15252445     343
Ni    10.59591268   15.92291441   49.14837933     344
Ni    12.34508995   15.94207981   47.39580768     345
Ni    14.09755998   17.72274944   47.40682111     346
Ni    12.34348704   17.69851920   49.15487528     347
Ni    14.11145173   15.93846466   49.15323901     348
Ni    15.87180491   15.97422535   47.41436861     349
Ni    17.63855911   17.75387932   47.43088326     350
Ni    15.86837105   17.71738722   49.16544500     351
Ni    17.64770081   15.96748075   49.16902184     352
Ni    19.42862440   16.01385558   47.44737607     353
Ni    21.19834582   17.77836896   47.45191412     354
Ni    19.41284599   17.75123171   49.19181344     355
Ni    21.20031353   15.99591518   49.19312210     356
Ni    22.99868892   16.03084515   47.46609971     357
Ni    24.77048308   17.77943282   47.45363589     358
Ni    22.96730560   17.76266880   49.19895996     359
Ni    24.76474997   16.00888725   49.20551636     360
Ni    26.56789550   16.02847364   47.46840231     361
Ni    28.34135593   17.76945586   47.44448100     362
Ni    26.53897990   17.76536558   49.19846962     363
Ni    28.32455935   16.00349951   49.20727143     364
Ni    30.12190707   16.00816340   47.45880831     365
Ni    31.89214992   17.74830373   47.43507022     366
Ni    30.10095499   17.74945015   49.18997467     367
Ni    31.87231343   15.98216016   49.19970853     368
Ni    33.66006036   15.98389227   47.44260909     369
Ni    35.42209310   17.73331869   47.42212920     370
Ni    33.64452965   17.72739881   49.18047686     371
Ni    35.40605027   15.96121954   49.18707618     372
Ni    37.17998623   15.96379951   47.42465803     373
Ni    38.93646836   17.71698320   47.40905705     374
Ni    37.16968821   17.71372976   49.17323579     375
Ni    38.92376295   15.94486301   49.17422881     376
Ni    40.68709448   15.94578566   47.40685250     377
Ni     0.11373586   17.70580397   47.39738477     378
Ni    40.67991404   17.70296795   49.16474551     379
Ni     0.10555869   15.93241301   49.16220466     380
Ni     1.86009733   15.93295015   47.39236404     381
Ni     3.60551505   17.69817350   47.38911405     382
Ni     1.85445999   17.69626035   49.15763618     383
Ni     3.60169191   15.92463370   49.15312575     384
Ni     5.34851696   19.46726481   47.38888177     385
Ni     7.09230082   21.23705464   47.38835377     386
Ni     5.34352020   21.23304908   49.15572523     387
Ni     7.09130951   19.46331328   49.15451982     388
Ni     8.83712363   19.46883680   47.39118024     389
Ni    12.34562639   22.98646181   50.90963621     390
Ni     8.83842073   21.23317949   49.15401199     391
Ni    10.58678349   19.46438552   49.15456488     392
Ni    12.33598197   19.47786641   47.39762516     393
Ni    14.09350824   21.24451272   47.39642921     394
Ni    15.87550852   17.68277506   52.66626629     395
Ni    14.09647804   19.47049140   49.15898670     396
Ni    15.85863710   19.49509566   47.41305150     397
Ni    17.62043798   21.25269283   47.40211690     398
Ni    15.85675672   21.23415713   49.16100349     399
Ni    17.63153793   19.48880771   49.17463083     400
Ni    19.40485950   19.51279145   47.42438757     401
Ni    21.17276394   21.25439050   47.39873485     402
Ni    19.38865887   21.24419791   49.15325250     403
Ni    21.17155280   19.51179138   49.18928310     404
Ni    22.96790110   19.51906691   47.43147400     405
Ni    24.74067393   21.24972173   47.39849326     406
Ni    22.93672738   21.23915856   49.15547962     407
Ni    24.73901719   19.50460117   49.17971062     408
Ni    26.54647423   19.50812799   47.41799281     409
Ni    30.11783810   24.69983013   49.07549731     410
Ni    26.52249000   21.21573104   49.12522733     411
Ni    28.32180615   19.49834614   49.16803733     412
Ni    30.11896046   19.50429504   47.41147829     413
Ni    31.89174321   21.25612672   47.37644542     414
Ni    31.84533906   19.46742737   52.68328439     415
Ni    31.88054861   19.48839848   49.16179106     416
Ni    33.65800163   19.49624901   47.40990643     417
Ni    35.42079029   21.24102132   47.38730011     418
Ni    33.65178323   21.23362693   49.14694858     419
Ni    35.38971049   19.44873144   52.68089131     420
Ni    37.18087334   19.48261614   47.40372328     421
Ni    38.93186762   21.24081987   47.39166775     422
Ni    37.17227596   21.22801102   49.15047983     423
Ni    38.92773519   19.46924790   49.16163753     424
Ni    40.68704373   19.47554063   47.39781506     425
Ni     0.10927971   21.23741741   47.39022504     426
Ni    40.67609639   21.23361818   49.15430690     427
Ni     0.10533081   19.46679086   49.15878688     428
Ni     1.85938764   19.46967621   47.39166217     429
Ni     1.86126997   21.23964941   45.62195875     430
Ni     1.86621518   19.47708258   43.85645262     431
Ni     3.59977732   19.46291809   49.15550862     432
Ni     5.34670324   23.00324725   47.38661209     433
Ni     7.09447790   24.76652583   47.38384755     434
Ni     3.59384419   23.00251910   49.15735731     435
Ni     7.09046951   22.99983388   49.15488755     436
Ni     8.84001209   23.00462524   47.38370322     437
Ni    10.59297609   24.76443786   47.37985322     438
Ni     8.84297963   24.76028693   49.15264769     439
Ni    10.59051202   22.99718893   49.15006860     440
Ni    12.33986922   23.00253372   47.38374198     441
Ni    14.09892053   24.75771581   47.37337348     442
Ni    12.34964678   24.75730747   49.14445967     443
Ni    14.09643980   22.99265846   49.14775124     444
Ni    15.85476601   23.00004677   47.38619391     445
Ni    17.61444059   24.75029135   47.36560223     446
Ni    15.85545166   24.74503963   49.13556166     447
Ni    17.61662680   22.98401239   49.15056617     448
Ni    19.38392665   23.00033696   47.37625185     449
Ni    21.15302437   24.75088147   47.36062496     450
Ni    19.36656125   24.72217132   49.11695307     451
Ni    21.14555813   22.97465262   49.11708147     452
Ni    22.94402444   22.99370638   47.37395750     453
Ni    24.72548911   24.74115041   47.36174938     454
Ni    22.91314282   24.70831609   49.08857305     455
Ni    24.71177141   22.96305537   49.11045610     456
Ni    28.32204979   22.93965301   49.08159618     457
Ni    28.30573493   24.74534291   47.37279776     458
Ni    26.50488584   24.69000449   49.08635835     459
Ni    30.11191948   21.22525281   49.12958590     460
Ni    30.12458584   21.28172626   45.64888374     461
Ni    31.88033310   24.71175765   47.30721148     462
Ni    30.11581253   22.99001040   47.35285168     463
Ni    31.91678498   24.68557578   50.82729804     464
Ni    33.65252710   22.99325143   47.34936610     465
Ni    35.41663274   24.77487332   47.36176624     466
Ni    33.66871393   24.72275297   49.07016274     467
Ni    35.41182479   22.97082783   49.12514377     468
Ni    37.17301649   23.00342641   47.37880249     469
Ni    38.91739920   24.76228044   47.36891230     470
Ni    37.14650207   24.75818286   49.12228205     471
Ni    38.91725876   22.99623613   49.14168853     472
Ni    40.67755824   23.00108240   47.38268844     473
Ni     0.09990962   24.76247096   47.37877928     474
Ni    40.67000328   24.75400191   49.13708044     475
Ni     0.10002042   22.99662804   49.15071787     476
Ni     1.85364115   23.00110165   47.38624339     477
Ni     3.59669227   24.76423807   47.38075089     478
Ni     1.84242711   24.76399428   49.15063062     479
Ni     1.85105736   21.23256760   49.15597311     480
Ni     5.34737817   26.52612160   47.37603226     481
Ni     7.09681849   28.28194675   47.37863827     482
Ni     5.33636523   28.28197883   49.14665919     483
Ni     5.33904887   24.76482679   49.15406763     484
Ni     8.85108393   28.28283154   49.14761193     485
Ni     7.08940296   24.75913803   50.92004622     486
Ni    10.60294159   28.27890124   47.37186182     487
Ni    10.60453584   26.52093489   49.14619677     488
Ni    12.34916038   26.51921780   47.36785281     489
Ni    14.10603760   28.27615052   47.35447006     490
Ni    12.36414580   28.27776096   49.13573185     491
Ni    14.10943952   26.51219837   49.13361086     492
Ni    15.86048514   24.75961238   45.60621557     493
Ni    17.60898953   28.27495618   47.33536262     494
Ni    15.85624052   28.26999101   49.10921972     495
Ni    17.60133567   26.49659265   49.10396616     496
Ni    19.37758161   26.50764962   47.35185778     497
Ni    21.15277095   28.28052974   47.35995190     498
Ni    19.34429249   28.26666383   49.06914587     499
Ni    21.12805256   26.47810873   49.09082571     500
Ni    22.93242943   26.51688912   47.36839749     501
Ni    24.73319189   28.29549747   47.41896686     502
Ni    22.90201106   28.25580106   49.10749713     503
Ni    24.70546379   26.44445610   49.07073447     504
Ni    26.51787064   26.52576382   47.39720934     505
Ni    28.29582173   28.29534613   47.41190727     506
Ni    26.52982561   28.26838465   49.17026253     507
Ni    28.31222603   26.45843075   49.10341388     508
Ni    30.08563608   26.50432670   47.35673067     509
Ni    31.87529719   28.26551245   47.33955584     510
Ni    30.11090121   28.21745930   49.09767168     511
Ni    31.88910059   26.44873175   49.04897115     512
Ni    33.71092233   28.22518072   49.03358089     513
Ni    35.42092349   28.26481595   47.32109941     514
Ni    33.65892465   26.50219643   47.32779175     515
Ni    35.43354554   28.21696320   50.79966209     516
Ni    38.91138173   26.52853636   45.59553005     517
Ni    38.90641152   28.27770157   47.33896474     518
Ni    37.15782409   28.25226899   49.08216313     519
Ni    38.92051312   26.50868563   49.11571828     520
Ni    40.66845606   26.52189888   47.36421959     521
Ni    40.64938125   28.28139318   49.12194173     522
Ni    42.34071047   29.98483994    6.76587658     523
Ni     0.08713897   26.52211499   49.14272900     524
Ni     1.83887808   26.52647336   47.37574222     525
Ni     3.58696862   28.28776594   47.37429053     526
Ni     1.82867463   28.28388104   49.14169290     527
Ni     3.58684931   26.52505087   49.13573187     528
Ni     5.33942713   30.04205617   47.37598278     529
Ni     7.09548533   31.79929474   47.37440894     530
Ni     5.33439920   31.80072904   49.13934961     531
Ni     7.09436192   30.04052861   49.14308767     532
Ni     7.08843303   26.52313791   49.15540097     533
Ni    10.60903801   31.79981402   47.36624867     534
Ni     8.85525673   31.79943236   49.13738039     535
Ni    10.61290444   30.03987191   49.13811922     536
Ni    12.35901731   30.03832627   47.36015950     537
Ni    14.10762021   31.80516483   47.34194818     538
Ni    12.37067207   31.80262513   49.12781976     539
Ni    14.11642339   30.03796125   49.12079911     540
Ni    15.85646422   30.04167127   47.33494985     541
Ni    17.61736009   31.81605888   47.32794671     542
Ni    15.85050392   31.81205682   49.08851779     543
Ni    17.59634229   30.04320213   49.07676151     544
Ni    19.37449481   30.05157699   47.33278887     545
Ni    21.15502629   31.82561206   47.33920938     546
Ni    19.36398104   31.82820206   49.07855174     547
Ni    21.11097514   30.05792640   49.06785586     548
Ni    22.95260925   30.05143460   47.39547772     549
Ni    24.73341386   31.81487854   47.41477606     550
Ni    22.90391930   31.84100207   49.08795913     551
Ni    24.73481920   30.03443061   49.20524183     552