ITEM: TIMESTEP
0
ITEM: NUMBER OF ATOMS
9360
ITEM: BOX BOUNDS pp pp pp
6.0118699999999997e-02 4.2383663200000001e+01
6.5134800000000007e-02 4.5920013400000002e+01
7.5153600000000001e-02 5.2983249800000003e+01
ITEM: ATOMS id type x y z c_1[1] c_1[2] c_1[3] c_1[4] c_1[5] c_1[6]
1437 1 1.90468000000000e+00 1.75535000000000e+00 1.50305000000000e+00 1.725e+05 -8.496e+04 2.880e+05 -2.199e+03 3.591e+05 -9.367e+04
1386 1 6.65561000000000e-02 1.17723000000000e-01 1.53584010000000e+00 9.611e+04 -3.141e+05 5.907e+05 5.069e+05 -5.089e+05 -4.697e+05
1393 1 5.36225990000000e+00 1.84279000000000e+00 1.48880010000000e+00 -3.343e+05 -9.723e+05 3.785e+05 1.777e+05 3.595e+04 -2.170e+05
1397 1 8.82864000000000e+00 1.82489000000000e+00 1.62983000000000e+00 5.358e+04 -1.466e+05 -5.756e+05 -1.902e+05 5.086e+04 6.657e+03
1401 1 1.23576002000000e+01 1.79482000000000e+00 1.49284010000000e+00 -1.923e+06 -9.980e+05 -9.969e+05 -1.469e+06 -4.857e+05 -1.016e+05
724 1 1.07762003000000e+01 1.29232000000000e-01 1.58364000000000e+00 -8.511e+05 -3.749e+05 -2.994e+05 -5.979e+05 1.944e+05 -1.253e+05
1405 1 1.59594002000000e+01 1.88565000000000e+00 1.45494000000000e+00 7.377e+05 -5.821e+04 -6.314e+05 2.769e+05 1.099e+05 -9.043e+05
1408 1 1.94092007000000e+01 1.72150010000000e+00 1.45377010000000e+00 -3.815e+05 -7.730e+03 1.462e+04 2.311e+05 -4.150e+05 4.250e+04
1438 1 3.69369010000000e+00 3.46967010000000e+00 1.47478000000000e+00 -7.239e+05 -6.153e+05 1.057e+05 -8.039e+04 -9.531e+03 -3.743e+04
1394 1 6.99834020000000e+00 3.55970000000000e+00 1.50203000000000e+00 -5.156e+05 -5.528e+05 -2.225e+05 -1.034e+05 7.951e+04 7.877e+04
1398 1 1.05958996000000e+01 3.67424990000000e+00 1.52939000000000e+00 -7.627e+05 -7.583e+05 -1.231e+06 5.618e+04 -2.339e+05 -3.427e+04
1402 1 1.40391998000000e+01 3.50957990000000e+00 1.50950010000000e+00 -4.476e+05 -8.014e+05 -1.030e+06 8.127e+04 -3.177e+05 1.589e+05
1411 1 1.78069992000000e+01 3.64335990000000e+00 1.52579000000000e+00 -3.713e+05 1.407e+05 -3.359e+03 1.619e+05 6.613e+04 -3.662e+05
1410 1 2.12033997000000e+01 3.52058010000000e+00 1.37005000000000e+00 -1.911e+05 -1.502e+05 -5.453e+04 4.070e+05 1.973e+04 -3.610e+05
1485 1 1.80625000000000e+00 5.35225010000000e+00 1.57142000000000e+00 6.008e+04 5.978e+05 -4.780e+05 -9.149e+04 -3.199e+05 4.844e+05
1441 1 5.27994010000000e+00 5.25719980000000e+00 1.53784000000000e+00 -6.374e+05 -2.512e+05 -6.511e+05 2.027e+05 -1.603e+04 -3.867e+04
1486 1 3.58347010000000e+00 7.12732980000000e+00 1.46546000000000e+00 -8.212e+05 -7.007e+05 -9.256e+05 -6.400e+05 -6.426e+05 5.022e+05
1442 1 7.16341020000000e+00 7.17210010000000e+00 1.46418000000000e+00 -7.197e+04 -7.347e+05 -1.381e+05 1.794e+05 -1.925e+05 9.453e+04
1445 1 8.85414040000000e+00 5.34931990000000e+00 1.50800000000000e+00 -2.457e+05 -2.834e+05 -1.068e+06 7.748e+05 -4.427e+05 2.680e+05
1449 1 1.23795996000000e+01 5.31169990000000e+00 1.49306000000000e+00 1.588e+05 9.741e+03 4.464e+05 7.750e+04 -1.704e+04 1.913e+05
1446 1 1.07395001000000e+01 7.19525000000000e+00 1.37478010000000e+00 1.199e+05 3.227e+05 -2.033e+05 -5.844e+04 -5.506e+05 -4.683e+05
1450 1 1.42565003000000e+01 7.07431980000000e+00 1.61622000000000e+00 5.258e+05 -7.460e+04 3.351e+05 2.359e+05 -4.158e+04 -1.098e+04
1453 1 1.59877996000000e+01 5.26349020000000e+00 1.55201010000000e+00 3.895e+05 3.243e+05 1.986e+04 5.838e+05 -1.804e+05 2.225e+04
1454 1 1.78631992000000e+01 7.02564000000000e+00 1.39084010000000e+00 2.564e+05 -3.712e+05 -6.449e+05 2.172e+05 -6.986e+05 -1.901e+05
787 1 1.95555992000000e+01 5.33185010000000e+00 1.52064000000000e+00 -1.018e+06 -8.781e+05 -1.893e+05 -1.165e+05 -4.591e+05 1.350e+05
1458 1 2.11840992000000e+01 7.08329010000000e+00 1.43746000000000e+00 -7.518e+05 -1.047e+06 8.882e+04 3.917e+05 -3.101e+05 9.254e+04
1533 1 1.73967010000000e+00 8.88111020000000e+00 1.49669010000000e+00 6.930e+05 -3.230e+05 -2.922e+05 3.277e+05 1.923e+04 4.650e+05
1489 1 5.29932020000000e+00 8.75236040000000e+00 1.42281000000000e+00 -8.376e+05 -7.085e+05 -1.158e+06 -1.043e+05 2.361e+05 1.611e+05
1493 1 8.82773970000000e+00 8.89029980000000e+00 1.53524010000000e+00 -6.023e+05 -1.079e+06 -8.401e+05 -2.589e+05 -4.955e+05 -5.820e+05
1497 1 1.25375004000000e+01 8.83506010000000e+00 1.43670000000000e+00 1.837e+05 5.748e+05 6.582e+05 -1.458e+05 2.478e+05 -1.668e+04
1501 1 1.59875002000000e+01 8.86861040000000e+00 1.46846000000000e+00 -3.441e+05 4.936e+05 -2.709e+05 -5.275e+05 -6.518e+05 -4.192e+05
1505 1 1.95853997000000e+01 8.80947020000000e+00 1.39224010000000e+00 -1.207e+06 -4.187e+05 -1.424e+04 3.412e+04 3.358e+05 -2.813e+03
1581 1 1.89402000000000e+00 1.24094000000000e+01 1.54973000000000e+00 -1.311e+06 -6.973e+05 -8.977e+05 1.603e+05 5.516e+05 4.586e+04
1534 1 3.60110000000000e+00 1.06658001000000e+01 1.52188010000000e+00 -6.994e+05 2.934e+05 -5.768e+05 1.775e+05 -2.152e+05 1.992e+05
911 1 7.22858000000000e+00 1.07433996000000e+01 1.50689010000000e+00 -1.297e+06 8.514e+04 -1.121e+06 3.289e+05 2.490e+04 -1.321e+05
1584 1 5.36569980000000e+00 1.24008999000000e+01 1.44095010000000e+00 8.868e+04 -1.256e+06 -1.144e+06 -4.301e+05 -2.175e+05 2.085e+05
1541 1 8.91228960000000e+00 1.24644003000000e+01 1.55639010000000e+00 -4.525e+05 -1.535e+06 -6.810e+05 -1.035e+06 -1.435e+05 -5.269e+05
1494 1 1.06852999000000e+01 1.05932999000000e+01 1.41884010000000e+00 1.564e+05 4.050e+04 -1.168e+06 -4.060e+04 -4.336e+05 1.665e+05
1545 1 1.24490996000000e+01 1.24589997000000e+01 1.53492000000000e+00 3.355e+05 -7.657e+05 -5.435e+05 5.592e+04 -1.051e+04 -9.973e+04
1498 1 1.42660999000000e+01 1.07153998000000e+01 1.43723000000000e+00 3.329e+05 -1.222e+05 -2.673e+02 -2.712e+05 -2.599e+04 -1.809e+05
1502 1 1.77649002000000e+01 1.05214997000000e+01 1.58153000000000e+00 -1.462e+05 -5.631e+05 -4.778e+05 -3.071e+05 1.561e+05 -1.475e+05
1549 1 1.60195999000000e+01 1.23766003000000e+01 1.42927010000000e+00 -4.045e+05 6.326e+04 -3.316e+05 -6.006e+05 -1.753e+05 2.042e+05
1506 1 2.11511993000000e+01 1.05957003000000e+01 1.32776000000000e+00 -5.746e+05 -8.038e+05 1.578e+05 -8.366e+04 4.879e+05 1.924e+05
1553 1 1.94892998000000e+01 1.23521004000000e+01 1.55681000000000e+00 -8.301e+05 -1.320e+05 -1.440e+05 -1.409e+05 4.202e+05 -1.524e+05
1578 1 2.19356000000000e-01 1.41808996000000e+01 1.53324000000000e+00 1.759e+05 -1.245e+06 -3.667e+05 -3.312e+05 -1.926e+05 3.959e+05
1582 1 3.47294000000000e+00 1.41915999000000e+01 1.56612010000000e+00 1.628e+05 6.848e+04 -2.338e+05 -3.724e+05 2.718e+05 -1.304e+05
1538 1 7.08119010000000e+00 1.41420002000000e+01 1.49044000000000e+00 -1.583e+05 -1.754e+05 -1.950e+05 -1.323e+05 -3.244e+05 5.137e+05
1542 1 1.06036997000000e+01 1.40895004000000e+01 1.56167000000000e+00 -2.235e+05 -1.290e+04 5.391e+05 -3.209e+05 4.543e+05 8.674e+05
1546 1 1.42023001000000e+01 1.41658001000000e+01 1.38443010000000e+00 8.483e+03 -1.111e+05 -2.994e+04 -4.210e+05 2.271e+05 1.193e+05
1550 1 1.77124996000000e+01 1.41759996000000e+01 1.46218000000000e+00 -1.981e+05 6.017e+04 -2.831e+05 6.317e+02 -8.178e+05 4.136e+05
1554 1 2.10799007000000e+01 1.41524000000000e+01 1.40839010000000e+00 1.341e+05 4.944e+05 4.471e+05 -4.023e+05 -1.448e+05 9.352e+04
1629 1 1.78233010000000e+00 1.59930000000000e+01 1.55664010000000e+00 -9.633e+05 -4.523e+05 -8.721e+04 -3.737e+05 -2.077e+05 7.596e+04
1626 1 8.16094000000000e-02 1.77649994000000e+01 1.51382010000000e+00 1.566e+04 -2.633e+05 3.565e+05 -1.125e+05 -2.880e+05 5.766e+04
1630 1 3.56528000000000e+00 1.76536999000000e+01 1.48237000000000e+00 -1.514e+04 -3.231e+05 4.892e+05 -1.323e+04 1.730e+05 -2.699e+04
1585 1 5.37028980000000e+00 1.59610004000000e+01 1.49545000000000e+00 2.469e+05 5.298e+05 5.014e+05 1.690e+05 -3.907e+05 -3.590e+05
1586 1 7.19216010000000e+00 1.76228009000000e+01 1.57436000000000e+00 -1.227e+05 -7.575e+05 -1.319e+05 -3.407e+05 5.159e+04 2.088e+05
1589 1 8.86001980000000e+00 1.58985004000000e+01 1.50452010000000e+00 -5.860e+05 3.808e+05 3.769e+05 2.636e+05 3.608e+05 2.671e+05
1590 1 1.05907002000000e+01 1.76536999000000e+01 1.52787010000000e+00 6.458e+05 4.585e+05 7.543e+05 2.040e+05 1.606e+05 3.088e+05
1593 1 1.24252005000000e+01 1.59413004000000e+01 1.56677000000000e+00 1.020e+05 8.935e+05 2.311e+05 2.356e+05 -7.735e+05 -2.166e+04
1594 1 1.42930002000000e+01 1.76665001000000e+01 1.39354000000000e+00 -6.663e+05 -4.670e+05 -8.293e+05 2.111e+05 8.934e+04 6.444e+05
1597 1 1.59533998000000e+01 1.58918000000000e+01 1.51975000000000e+00 -8.756e+05 4.155e+04 -3.023e+05 3.642e+05 3.101e+05 -7.251e+04
975 1 1.76427002000000e+01 1.77954006000000e+01 1.48389010000000e+00 -2.609e+05 4.829e+05 -2.806e+05 1.678e+05 -1.433e+04 1.270e+05
1601 1 1.94540997000000e+01 1.59957000000000e+01 1.54060000000000e+00 2.202e+05 -1.168e+05 -9.472e+03 -9.428e+04 -1.534e+05 -5.333e+03
1602 1 2.12091999000000e+01 1.77001992000000e+01 1.40243010000000e+00 8.881e+04 -2.259e+05 4.490e+05 -1.393e+05 5.439e+05 -1.752e+05
1677 1 1.82877010000000e+00 1.93878002000000e+01 1.51437000000000e+00 1.100e+05 -1.801e+05 1.330e+04 -2.880e+05 1.106e+05 3.273e+05
1633 1 5.30248020000000e+00 1.94230995000000e+01 1.62878000000000e+00 3.177e+05 9.514e+04 -2.763e+02 -9.041e+04 3.423e+05 3.834e+05
1637 1 8.83648970000000e+00 1.93796997000000e+01 1.57553010000000e+00 -3.649e+05 -3.444e+05 7.267e+04 -3.031e+05 -1.286e+05 4.952e+04
1641 1 1.24722996000000e+01 1.94202004000000e+01 1.56970000000000e+00 5.935e+05 -1.378e+05 -4.222e+05 1.322e+04 1.230e+04 2.504e+05
1645 1 1.59408998000000e+01 1.95365010000000e+01 1.54042010000000e+00 -9.945e+04 2.656e+05 -1.687e+05 -9.152e+04 -3.415e+05 -5.032e+05
1649 1 1.94262009000000e+01 1.95354996000000e+01 1.44605010000000e+00 -4.063e+05 2.621e+05 -4.471e+05 3.921e+05 6.232e+04 -1.066e+06
1678 1 3.62144000000000e+00 2.12320995000000e+01 1.61402000000000e+00 2.476e+05 1.202e+05 -2.137e+05 2.065e+05 2.324e+05 1.704e+05
1634 1 7.10586980000000e+00 2.11702004000000e+01 1.67704000000000e+00 8.769e+05 5.071e+05 6.434e+05 -4.712e+04 2.064e+05 -6.971e+05
1638 1 1.05902996000000e+01 2.11007004000000e+01 1.54022000000000e+00 -1.363e+05 2.292e+05 -2.045e+05 8.610e+04 2.583e+05 -4.700e+05
1685 1 8.94888980000000e+00 2.29314996000000e+01 1.60532000000000e+00 -5.856e+04 7.177e+05 -4.856e+05 1.135e+05 3.578e+05 -1.687e+05
1689 1 1.23301001000000e+01 2.29771996000000e+01 1.55745010000000e+00 -1.327e+06 -8.393e+04 -6.428e+05 5.729e+05 4.468e+04 -7.252e+04
1642 1 1.40363998000000e+01 2.13603993000000e+01 1.60054010000000e+00 -5.206e+05 -2.768e+04 2.342e+05 1.259e+05 -1.548e+05 -5.546e+04
1072 1 1.59095002000000e+01 2.29197998000000e+01 1.53681010000000e+00 -1.401e+05 -2.129e+05 2.225e+05 1.965e+05 -1.425e+05 3.658e+04
1693 1 1.77359009000000e+01 2.12409001000000e+01 1.40369000000000e+00 7.068e+05 -5.628e+05 -7.447e+04 7.519e+05 -5.204e+05 -3.840e+05
1076 1 2.02371998000000e+01 2.23267994000000e+01 7.34195000000000e-01 4.142e+06 3.753e+06 4.252e+06 3.859e+04 -1.215e+05 1.351e+05
1436 1 1.30881000000000e-01 1.76979010000000e+00 3.27964000000000e+00 2.254e+05 -5.031e+04 -2.385e+05 2.300e+04 -6.109e+04 1.496e+05
2061 1 1.74771000000000e+00 1.81301000000000e+00 5.09809020000000e+00 3.404e+04 1.482e+05 -8.744e+05 -4.280e+05 -2.667e+05 -3.256e+05
1440 1 3.56955010000000e+00 1.83336000000000e+00 3.40686010000000e+00 -2.271e+05 4.926e+05 1.720e+04 6.956e+03 -1.008e+06 -3.634e+05
2017 1 5.24136020000000e+00 1.67134000000000e+00 4.98849020000000e+00 -1.843e+05 7.528e+04 -1.076e+06 2.250e+04 -8.315e+05 -1.402e+05
1396 1 7.18079000000000e+00 1.79588000000000e+00 3.34130000000000e+00 3.303e+04 6.456e+05 5.455e+04 1.868e+04 2.014e+05 4.539e+04
2021 1 8.90635020000000e+00 1.86401000000000e+00 4.99881980000000e+00 -4.352e+05 5.110e+05 5.131e+05 -1.195e+05 -4.964e+05 -1.210e+04
1400 1 1.06624003000000e+01 1.92534020000000e+00 3.23989010000000e+00 -8.885e+04 1.906e+05 -1.291e+05 -5.850e+05 1.022e+05 -1.172e+05
1974 1 1.24169998000000e+01 1.90157000000000e+00 5.03363990000000e+00 -1.251e+04 6.955e+03 -6.900e+05 1.054e+05 -1.740e+05 -3.759e+05
1403 1 1.40649996000000e+01 1.80915000000000e+00 3.17755010000000e+00 -2.634e+05 -7.730e+05 -2.623e+04 -4.458e+05 -1.438e+05 1.326e+05
1359 1 1.58777000000000e+01 1.01353000000000e-01 3.33804010000000e+00 9.140e+05 1.046e+06 7.642e+05 -5.614e+04 -6.519e+04 -3.593e+05
2032 1 1.58794004000000e+01 1.78960000000000e+00 5.10653020000000e+00 6.049e+05 -3.655e+05 -4.973e+04 1.838e+05 2.988e+05 -3.736e+05
2033 1 1.77208996000000e+01 1.73743000000000e+00 3.29909990000000e+00 4.459e+05 1.701e+05 3.023e+05 4.971e+04 -2.226e+05 -6.275e+05
1986 1 2.11940994000000e+01 1.75830000000000e+00 3.26243000000000e+00 5.634e+05 5.274e+04 8.823e+05 -2.261e+05 4.245e+04 -2.224e+05
1987 1 1.94109993000000e+01 1.78946000000000e+00 5.07162000000000e+00 -8.908e+05 1.420e+05 -4.473e+05 -1.736e+05 8.125e+05 1.825e+04
1439 1 1.79148000000000e+00 3.56065010000000e+00 3.24713990000000e+00 3.123e+05 7.454e+04 7.004e+05 1.041e+05 -4.217e+05 1.651e+05
2062 1 3.55991010000000e+00 3.66372990000000e+00 4.97188000000000e+00 -3.740e+05 2.538e+04 -8.892e+05 2.397e+05 -1.011e+05 -2.521e+05
767 1 5.36916020000000e+00 3.57606010000000e+00 3.31918000000000e+00 -3.408e+05 2.707e+05 -3.819e+05 -1.251e+05 2.365e+04 8.432e+04
1395 1 7.12743000000000e+00 3.66534000000000e+00 4.97582020000000e+00 1.977e+05 3.066e+05 -2.818e+05 3.468e+05 -8.214e+05 3.044e+05
1399 1 8.86933040000000e+00 3.69254000000000e+00 3.19023990000000e+00 -7.774e+05 -1.125e+06 -1.295e+05 -8.472e+05 5.362e+05 2.880e+05
2023 1 1.05676003000000e+01 3.60737990000000e+00 5.12781000000000e+00 -4.759e+05 -4.117e+05 -4.866e+05 -6.175e+05 1.313e+05 -2.020e+05
2022 1 1.23305998000000e+01 3.60058000000000e+00 3.20868990000000e+00 -4.549e+05 -7.470e+05 -2.744e+05 -4.879e+05 6.775e+04 1.129e+05
1407 1 1.58846998000000e+01 3.41431000000000e+00 3.17824010000000e+00 3.787e+05 6.820e+04 -3.228e+05 1.070e+05 -5.388e+03 -4.961e+05
2026 1 1.42215004000000e+01 3.55194000000000e+00 5.02774000000000e+00 -2.343e+04 -5.271e+05 5.349e+05 -1.825e+05 4.046e+05 2.544e+05
1978 1 1.77052002000000e+01 3.50941990000000e+00 4.91358000000000e+00 9.320e+05 7.121e+04 5.944e+05 2.208e+05 2.164e+05 -3.674e+05
1404 2 1.95324993000000e+01 3.56055000000000e+00 3.21693990000000e+00 7.828e+04 5.255e+05 2.028e+05 6.977e+04 -2.451e+05 3.086e+05
2034 1 2.11718998000000e+01 3.53677010000000e+00 5.10290000000000e+00 7.560e+04 3.857e+05 -2.703e+05 1.579e+05 1.102e+05 -4.692e+05
1484 1 7.16372000000000e-02 5.32792000000000e+00 3.27870010000000e+00 4.908e+05 4.121e+05 9.733e+04 2.680e+05 -4.745e+04 1.338e+05
1487 1 1.81367010000000e+00 7.26449010000000e+00 3.29829000000000e+00 4.833e+05 -3.734e+04 -3.772e+05 4.927e+05 -3.495e+05 -6.114e+05
2109 1 1.81368010000000e+00 5.35062980000000e+00 5.05450010000000e+00 4.594e+05 3.160e+05 1.179e+06 3.077e+05 -1.592e+05 -1.391e+05
1488 1 3.61775000000000e+00 5.35622980000000e+00 3.23892000000000e+00 7.873e+04 4.520e+05 -2.044e+04 -3.341e+05 2.541e+05 5.301e+05
1443 1 5.29433010000000e+00 7.10586020000000e+00 3.17317010000000e+00 -5.469e+05 -7.278e+05 -3.660e+04 6.307e+04 -4.264e+05 3.397e+05
2110 1 3.54480010000000e+00 7.20473000000000e+00 4.98775020000000e+00 -9.055e+04 -2.844e+05 -8.403e+05 1.752e+05 -6.381e+04 -6.173e+05
1444 1 7.06649020000000e+00 5.39235020000000e+00 3.30562000000000e+00 -7.029e+04 -5.290e+05 -9.695e+05 3.121e+05 -6.117e+04 -4.378e+05
2065 1 5.37411020000000e+00 5.39318990000000e+00 5.03775980000000e+00 -9.774e+05 -4.223e+05 -4.192e+05 -7.733e+05 4.187e+05 -1.832e+05
2066 1 7.03940010000000e+00 7.02402020000000e+00 4.95977020000000e+00 -1.655e+06 -1.830e+06 -4.967e+05 4.306e+05 2.268e+05 -4.915e+05
1448 1 1.05014000000000e+01 5.30189990000000e+00 3.32810000000000e+00 -6.600e+05 -6.147e+05 1.547e+05 -4.974e+05 -2.372e+05 -7.583e+05
1447 1 8.94913020000000e+00 7.19866990000000e+00 3.26369000000000e+00 4.119e+05 -1.072e+06 -9.548e+05 8.694e+04 -3.593e+05 -2.486e+05
2069 1 8.76947020000000e+00 5.53391980000000e+00 5.01257990000000e+00 -1.144e+06 -5.606e+05 -6.458e+05 7.210e+05 4.891e+04 2.900e+05
1451 1 1.23670998000000e+01 7.11565020000000e+00 3.25368000000000e+00 2.999e+05 7.004e+05 2.770e+05 5.562e+05 5.210e+05 7.866e+04
2073 1 1.23910999000000e+01 5.27934980000000e+00 5.00125980000000e+00 5.607e+05 2.586e+05 2.042e+05 1.245e+05 2.783e+05 -1.965e+04
2070 1 1.07096997000000e+01 7.13406990000000e+00 4.97266020000000e+00 -3.478e+05 7.548e+04 -3.282e+05 2.716e+05 -2.659e+05 9.309e+03
1452 1 1.41837997000000e+01 5.27968980000000e+00 3.23150990000000e+00 4.471e+05 4.385e+05 2.386e+05 -1.939e+05 6.025e+04 4.789e+05
2077 1 1.58844004000000e+01 5.32847020000000e+00 5.06375980000000e+00 -2.754e+05 6.360e+05 -3.092e+04 -2.058e+05 8.580e+05 2.309e+05
2074 1 1.42090998000000e+01 7.16522980000000e+00 5.04512980000000e+00 6.363e+04 1.423e+05 -3.860e+05 1.989e+05 8.855e+05 2.788e+05
1456 1 1.77481003000000e+01 5.39502000000000e+00 3.25058010000000e+00 1.080e+05 1.457e+05 3.912e+05 -2.486e+04 -2.828e+05 1.173e+03
1455 1 1.59874002000000e+01 7.05302000000000e+00 3.33052990000000e+00 7.370e+04 -4.801e+04 4.699e+05 1.924e+05 -3.226e+05 -1.243e+05
2078 1 1.77210999000000e+01 7.10353990000000e+00 5.18369010000000e+00 -2.611e+05 1.408e+05 -2.823e+04 4.094e+05 9.910e+04 -4.281e+05
1460 1 2.11492004000000e+01 5.41118000000000e+00 3.25144010000000e+00 -9.338e+05 2.126e+05 -2.737e+05 4.134e+05 -4.509e+05 2.177e+04
1459 1 1.94566994000000e+01 7.03768020000000e+00 3.30966000000000e+00 -1.182e+06 -1.326e+06 3.680e+05 5.891e+05 -3.069e+05 -2.142e+05
2081 1 1.94848004000000e+01 5.32402990000000e+00 5.07938000000000e+00 -4.375e+05 1.029e+05 -5.014e+05 1.582e+05 -1.432e+05 1.797e+05
2157 1 1.69534010000000e+00 8.75074010000000e+00 5.05593010000000e+00 -3.841e+05 -7.473e+05 -3.971e+05 5.697e+05 -4.447e+05 -6.609e+05
1536 1 3.69086010000000e+00 8.91724980000000e+00 3.29223990000000e+00 5.648e+05 -4.842e+05 -2.474e+05 2.392e+05 -5.043e+04 -1.425e+05
1492 1 7.05312010000000e+00 8.86102960000000e+00 3.21337010000000e+00 -1.368e+05 8.220e+04 3.361e+04 -3.786e+04 4.520e+05 -4.111e+05
2113 1 5.39731980000000e+00 8.90036960000000e+00 5.00943990000000e+00 -7.433e+05 3.804e+05 -3.367e+05 -1.008e+05 -6.371e+03 1.579e+05
2117 1 8.88066020000000e+00 8.75302030000000e+00 4.94856980000000e+00 8.136e+05 1.368e+05 1.010e+05 3.011e+05 -7.058e+04 -7.089e+05
1496 1 1.07152996000000e+01 8.85326960000000e+00 3.15628000000000e+00 -9.016e+04 -3.330e+05 1.263e+05 1.725e+05 -1.747e+05 4.551e+04
2121 1 1.24302998000000e+01 8.98106000000000e+00 4.97314980000000e+00 -9.901e+04 -3.862e+05 -1.195e+05 3.408e+03 -3.694e+04 -3.258e+05
1500 1 1.42482004000000e+01 8.86898040000000e+00 3.27404000000000e+00 6.591e+05 5.176e+05 2.815e+05 -3.588e+04 3.204e+04 -2.850e+05
1504 1 1.77933998000000e+01 8.71451000000000e+00 3.12586000000000e+00 1.600e+05 -3.218e+05 4.102e+05 3.579e+05 -8.435e+04 3.541e+05
2125 1 1.60499992000000e+01 8.85071000000000e+00 5.00690980000000e+00 1.678e+05 1.298e+04 6.082e+05 -3.207e+05 -3.804e+05 -1.651e+04
835 1 1.95559006000000e+01 8.81173040000000e+00 5.04981990000000e+00 -1.620e+05 -6.314e+05 8.079e+04 -8.378e+03 -7.437e+04 -1.377e+05
1532 1 1.81120000000000e+00 1.06717997000000e+01 3.22735000000000e+00 3.050e+05 3.963e+05 7.393e+04 8.102e+03 -5.633e+04 -1.317e+05
1580 1 1.01456000000000e-01 1.24544001000000e+01 3.14459990000000e+00 -4.933e+05 -3.257e+05 -6.430e+05 7.630e+02 -3.925e+05 2.397e+04
2205 1 1.76886000000000e+00 1.24272003000000e+01 4.95398000000000e+00 -3.385e+05 -9.277e+04 -4.465e+05 6.706e+04 -1.016e+05 7.627e+04
2115 1 3.52010990000000e+00 1.05387001000000e+01 4.99593020000000e+00 8.980e+05 -1.975e+05 -1.507e+05 7.980e+04 -4.934e+05 -8.488e+04
2158 1 3.57890010000000e+00 1.23641005000000e+01 3.29565000000000e+00 -1.171e+06 -6.048e+05 -1.944e+05 -6.854e+05 -5.246e+05 -7.714e+04
2161 1 5.28867010000000e+00 1.22901001000000e+01 5.00288010000000e+00 5.200e+05 -2.255e+04 -6.851e+05 1.875e+05 -9.776e+03 6.667e+05
1491 1 5.44419010000000e+00 1.07233000000000e+01 3.10139990000000e+00 -2.403e+05 -9.611e+04 9.635e+04 -7.809e+03 -1.075e+05 3.568e+05
2114 1 7.14744000000000e+00 1.06175003000000e+01 5.00131990000000e+00 4.402e+05 5.345e+05 1.190e+06 -4.685e+05 4.868e+04 -2.956e+04
1540 1 7.07189990000000e+00 1.25242996000000e+01 3.23148990000000e+00 -1.007e+06 -1.103e+06 -3.959e+05 7.510e+04 -1.193e+04 -1.219e+05
1495 1 8.85354040000000e+00 1.05738001000000e+01 3.15405010000000e+00 8.434e+04 2.596e+05 -5.709e+05 -2.894e+05 -7.513e+05 -4.329e+05
2118 1 1.06273003000000e+01 1.06005001000000e+01 4.99576000000000e+00 2.543e+05 6.768e+03 3.120e+04 3.845e+05 -2.835e+05 6.772e+03
2165 1 8.84020040000000e+00 1.23739996000000e+01 5.04905990000000e+00 6.286e+05 3.934e+05 4.493e+05 -1.319e+05 -3.513e+05 2.317e+05
1499 1 1.24659996000000e+01 1.07233000000000e+01 3.17851000000000e+00 2.698e+05 -3.355e+05 -2.205e+05 1.619e+05 -1.725e+05 6.635e+04
1544 1 1.06576996000000e+01 1.23262997000000e+01 3.23458010000000e+00 -4.020e+05 -1.120e+05 -6.040e+04 2.926e+05 -4.142e+05 5.562e+05
2169 1 1.24568997000000e+01 1.23381004000000e+01 4.92027000000000e+00 -1.721e+05 -8.186e+05 -5.590e+05 5.484e+05 2.210e+05 2.692e+05
2122 1 1.41716995000000e+01 1.06673002000000e+01 5.00980000000000e+00 -4.340e+02 -2.701e+05 1.314e+05 -2.143e+05 -1.538e+05 -2.968e+05
1548 1 1.42848997000000e+01 1.23900004000000e+01 3.19891000000000e+00 -3.783e+05 -2.694e+05 -7.603e+03 -9.155e+04 -5.250e+03 -3.504e+05
1503 1 1.60424004000000e+01 1.06021004000000e+01 3.23275000000000e+00 5.010e+04 2.256e+05 -4.783e+04 -3.317e+05 2.654e+05 -1.389e+05
2126 1 1.77628994000000e+01 1.05396996000000e+01 5.02025990000000e+00 1.522e+05 2.469e+05 8.005e+05 -3.618e+05 -2.262e+05 -2.437e+05
1552 1 1.77453003000000e+01 1.23553000000000e+01 3.13008000000000e+00 -6.972e+05 -5.201e+05 -2.294e+05 -5.231e+05 3.207e+05 -3.761e+05
2173 1 1.60035992000000e+01 1.23202000000000e+01 5.03558020000000e+00 -5.778e+04 -3.886e+05 1.859e+05 -1.932e+04 -5.340e+05 6.753e+03
1507 1 1.95310002000000e+01 1.05592003000000e+01 3.24887990000000e+00 -1.645e+05 4.180e+05 -4.164e+05 -9.350e+04 -8.041e+05 3.038e+05
2130 1 2.11347008000000e+01 1.06054001000000e+01 4.99296000000000e+00 -4.361e+05 2.271e+05 -3.661e+05 -2.123e+05 -4.682e+05 -9.176e+04
1556 1 2.11706009000000e+01 1.24055004000000e+01 3.27690010000000e+00 -1.283e+05 1.187e+05 -2.356e+04 -3.195e+05 -5.785e+05 -1.475e+05
2177 1 1.94307995000000e+01 1.23682003000000e+01 5.04151010000000e+00 -4.378e+05 -3.398e+04 1.718e+05 -1.956e+05 3.591e+04 -4.696e+05
1583 1 1.87617000000000e+00 1.41747999000000e+01 3.32294990000000e+00 -1.001e+06 -5.198e+05 -1.061e+06 -6.021e+05 2.166e+05 3.314e+05
1539 1 5.27996020000000e+00 1.39839002000000e+01 3.26925990000000e+00 -6.901e+05 -1.649e+05 3.346e+05 3.232e+05 -1.911e+05 -8.169e+04
2206 1 3.54533010000000e+00 1.41393995000000e+01 5.10578010000000e+00 -8.252e+04 -4.278e+05 -6.750e+05 -2.977e+05 -2.724e+05 6.058e+05
2162 1 7.08815000000000e+00 1.42264996000000e+01 4.95621020000000e+00 4.573e+05 1.497e+05 3.976e+05 2.808e+05 3.039e+05 -4.612e+05
1543 1 8.89587980000000e+00 1.41264000000000e+01 3.25067000000000e+00 -5.076e+02 -8.956e+04 -2.817e+05 -1.055e+05 6.646e+05 -3.972e+05
1547 1 1.24877005000000e+01 1.40291996000000e+01 3.28578000000000e+00 6.461e+05 -5.517e+05 -8.491e+05 9.126e+04 3.574e+05 -4.308e+05
2166 1 1.07826996000000e+01 1.41595001000000e+01 5.00977990000000e+00 -1.213e+05 3.015e+05 -4.319e+05 -1.457e+05 3.000e+05 5.801e+05
2171 1 1.42986002000000e+01 1.40485001000000e+01 5.08125020000000e+00 -1.211e+05 3.710e+05 5.318e+05 -6.463e+04 2.659e+04 -5.647e+05
1551 1 1.60025005000000e+01 1.41217003000000e+01 3.30131010000000e+00 -1.856e+05 1.448e+05 6.212e+04 -5.670e+05 -2.118e+05 1.481e+05
2174 1 1.76558991000000e+01 1.41141005000000e+01 4.98381000000000e+00 -3.225e+05 1.087e+05 -6.387e+04 -3.388e+05 -3.915e+05 -3.043e+05
1555 1 1.93640995000000e+01 1.41391001000000e+01 3.19087010000000e+00 -2.155e+05 -2.571e+05 -4.452e+05 -2.106e+05 -1.211e+05 -3.952e+05
2178 1 2.11557007000000e+01 1.40693998000000e+01 5.00369980000000e+00 -2.114e+05 -4.280e+05 -5.207e+05 -7.174e+04 -2.512e+05 -2.057e+05
1631 1 1.79429000000000e+00 1.77513008000000e+01 3.27501990000000e+00 9.851e+04 1.092e+04 -2.811e+05 2.734e+05 -3.365e+05 2.156e+05
2253 1 1.74022000000000e+00 1.59762002000000e+01 5.06413980000000e+00 -4.767e+05 3.958e+05 -2.302e+05 5.521e+05 -7.716e+04 1.087e+05
1632 1 3.50249010000000e+00 1.59309998000000e+01 3.32290010000000e+00 5.574e+05 2.808e+05 4.503e+05 -3.876e+05 -2.461e+05 -2.827e+05
2211 1 5.34553000000000e+00 1.58890000000000e+01 5.04245000000000e+00 3.872e+05 3.329e+05 7.874e+05 9.442e+04 -3.094e+05 1.415e+05
2254 1 3.59658010000000e+00 1.77873993000000e+01 4.95325000000000e+00 1.802e+05 -2.394e+05 -3.572e+05 -5.803e+05 3.367e+04 -8.962e+04
1588 1 7.16249990000000e+00 1.59392996000000e+01 3.22992990000000e+00 4.484e+05 -9.369e+04 -5.974e+05 4.181e+05 1.885e+05 7.577e+05
1587 1 5.43268020000000e+00 1.77017002000000e+01 3.32929990000000e+00 1.549e+05 -2.688e+05 -1.713e+04 -1.462e+05 4.248e+05 1.544e+05
2210 1 7.15982010000000e+00 1.75634995000000e+01 5.12837980000000e+00 7.689e+03 -8.777e+05 -4.307e+05 -1.488e+05 -3.359e+05 1.489e+05
1591 1 8.88127040000000e+00 1.77507000000000e+01 3.35773990000000e+00 -1.400e+06 -1.126e+06 -8.398e+05 7.645e+04 -3.278e+05 -3.388e+04
2213 1 8.88560960000000e+00 1.58970004000000e+01 5.07700010000000e+00 -1.645e+05 7.156e+03 7.471e+05 -1.659e+05 2.045e+05 -1.222e+05
1595 1 1.06246004000000e+01 1.75977001000000e+01 5.04875990000000e+00 3.122e+04 -4.810e+05 -4.109e+05 -3.419e+05 -4.567e+05 -3.011e+05
1592 1 1.06609001000000e+01 1.60042000000000e+01 3.33505010000000e+00 7.440e+05 4.233e+05 -6.956e+05 4.085e+04 -1.366e+04 -1.619e+05
1596 1 1.25029001000000e+01 1.77530003000000e+01 3.26313000000000e+00 4.458e+05 -1.300e+06 -4.528e+05 -3.112e+05 -1.935e+05 -4.184e+05
2217 1 1.25073004000000e+01 1.58388996000000e+01 4.91516020000000e+00 1.898e+05 2.956e+05 2.498e+05 -5.335e+05 -2.588e+05 -1.395e+04
2170 1 1.42011995000000e+01 1.59641000000000e+01 3.10390000000000e+00 -8.803e+05 4.456e+05 -2.449e+05 -3.082e+05 1.583e+05 -3.741e+04
1599 1 1.58410998000000e+01 1.76975994000000e+01 3.34779000000000e+00 -2.245e+05 -8.890e+04 6.407e+04 2.802e+05 3.738e+05 -3.695e+05
2221 1 1.58662004000000e+01 1.58858004000000e+01 5.09023000000000e+00 -4.073e+05 4.086e+04 7.517e+04 1.278e+04 8.549e+05 -1.151e+05
2218 1 1.42208996000000e+01 1.76770993000000e+01 5.05660010000000e+00 -8.676e+05 -6.126e+05 -8.487e+05 2.775e+05 5.011e+05 1.847e+05
1600 1 1.76242008000000e+01 1.59351998000000e+01 3.27209000000000e+00 1.106e+05 1.014e+05 2.259e+05 -2.230e+05 -3.452e+05 -2.724e+05
2222 1 1.77392006000000e+01 1.76074009000000e+01 5.06168990000000e+00 2.267e+05 4.686e+05 1.081e+05 1.026e+05 -2.359e+05 -7.556e+05
1604 1 2.11790009000000e+01 1.59123002000000e+01 3.26055000000000e+00 -3.869e+05 2.437e+05 -4.051e+05 5.138e+05 -3.798e+05 -5.390e+05
1603 1 1.94577008000000e+01 1.76644001000000e+01 3.25712990000000e+00 2.510e+05 2.539e+05 1.697e+05 -9.753e+04 -2.076e+05 -7.759e+05
2225 1 1.94228993000000e+01 1.58275004000000e+01 5.02048020000000e+00 1.248e+05 2.327e+05 4.948e+05 2.537e+05 2.464e+05 -2.619e+05
2301 1 1.73882000000000e+00 1.95291004000000e+01 5.05922990000000e+00 -3.796e+05 -2.769e+05 -1.040e+06 -3.621e+05 4.307e+04 2.091e+05
1680 1 3.60977010000000e+00 1.94923001000000e+01 3.29449010000000e+00 -1.470e+05 -4.365e+05 -8.783e+05 -2.468e+05 1.995e+05 7.066e+05
2257 1 5.29967020000000e+00 1.94351998000000e+01 5.06686020000000e+00 -6.943e+05 -9.512e+03 1.039e+05 -6.317e+05 1.260e+04 -4.225e+05
1636 1 7.15120980000000e+00 1.93507004000000e+01 3.43279010000000e+00 -7.704e+05 -8.663e+05 -2.026e+05 -3.281e+04 -4.443e+04 -3.726e+05
1640 1 1.05850001000000e+01 1.93834992000000e+01 3.43170000000000e+00 -1.497e+06 -1.294e+06 -1.087e+05 1.274e+05 -3.454e+05 2.383e+05
2261 1 8.86386020000000e+00 1.93421002000000e+01 5.12068990000000e+00 -7.626e+05 -6.085e+05 -1.682e+06 7.389e+04 6.176e+05 -4.957e+05
2265 1 1.24066000000000e+01 1.93171997000000e+01 4.98252020000000e+00 -3.836e+05 -1.049e+06 -1.010e+06 2.660e+05 -2.788e+05 -4.961e+05
1644 1 1.41878996000000e+01 1.94221001000000e+01 3.28730010000000e+00 -1.381e+06 -1.025e+06 -1.655e+05 -4.094e+05 -1.015e+05 -2.354e+05
1648 1 1.77101994000000e+01 1.95923996000000e+01 3.23969010000000e+00 1.334e+05 5.683e+05 8.540e+04 -1.112e+05 -3.318e+04 -4.513e+05
2269 1 1.59501000000000e+01 1.94123993000000e+01 5.06050010000000e+00 -2.072e+05 -7.542e+05 -4.481e+05 -4.058e+05 -3.082e+05 -5.750e+05
1652 1 2.11781006000000e+01 1.94508000000000e+01 3.23949000000000e+00 6.151e+04 1.897e+05 6.749e+05 -4.162e+05 1.777e+05 5.911e+04
2273 1 1.94804001000000e+01 1.93733997000000e+01 5.05069020000000e+00 6.608e+04 -3.229e+05 4.934e+04 4.828e+04 1.485e+04 -8.456e+05
1679 1 1.71685010000000e+00 2.11592007000000e+01 3.27830010000000e+00 5.989e+05 -1.062e+05 2.405e+05 -2.153e+05 -1.541e+04 4.819e+05
2298 1 1.80352000000000e+00 2.29356004000000e+01 5.04629990000000e+00 6.154e+05 8.811e+05 2.861e+05 3.014e+05 -1.395e+05 -1.409e+05
1635 1 5.33553980000000e+00 2.12345009000000e+01 3.35752010000000e+00 -6.610e+05 -1.306e+05 -7.373e+05 -2.962e+05 -3.050e+05 -5.697e+05
2302 1 3.55252010000000e+00 2.11560001000000e+01 5.08238980000000e+00 -3.108e+05 -2.844e+05 -1.508e+05 1.029e+05 3.360e+05 -5.195e+05
1684 1 7.13432980000000e+00 2.29792004000000e+01 3.25756000000000e+00 4.846e+05 3.177e+05 -2.167e+05 -1.696e+05 9.562e+04 -3.894e+05
2258 1 7.09254980000000e+00 2.11513996000000e+01 4.99167020000000e+00 8.793e+04 1.886e+05 2.009e+05 -1.638e+04 -6.454e+05 -2.284e+05
2305 1 5.35242990000000e+00 2.29678002000000e+01 4.98217020000000e+00 5.886e+05 1.621e+05 -3.660e+05 -1.305e+05 -2.269e+05 -3.643e+05
1639 1 8.99232960000000e+00 2.10648994000000e+01 3.36278010000000e+00 -2.880e+05 -7.965e+05 -3.994e+05 5.736e+05 2.420e+05 -5.584e+05
2309 1 8.96780980000000e+00 2.28752996000000e+01 4.91167020000000e+00 1.172e+05 3.096e+05 -4.044e+05 -1.843e+05 -1.939e+05 -3.808e+05
1688 1 1.06681004000000e+01 2.29442998000000e+01 3.26280000000000e+00 -4.042e+05 7.539e+05 -2.766e+05 5.629e+03 7.631e+05 -3.884e+05