ITEM: TIMESTEP
0
ITEM: NUMBER OF ATOMS
694
ITEM: BOX BOUNDS pp pp pp
6.0118699999999997e-02 4.2383663200000001e+01
6.5134800000000007e-02 4.5920013400000002e+01
7.5153600000000001e-02 5.2983249800000003e+01
ITEM: ATOMS id type x y z c_1[1] c_1[2] c_1[3] c_1[4] c_1[5] c_1[6]
1649 1 1.94262009000000e+01 1.95354996000000e+01 1.44605010000000e+00 9.041e+05 7.449e+05 1.004e+06 3.391e+05 5.174e+05 -4.104e+05
1689 1 1.23301001000000e+01 2.29771996000000e+01 1.55745010000000e+00 1.509e+06 1.595e+06 1.149e+06 -8.054e+04 6.715e+04 1.584e+05
1693 1 1.77359009000000e+01 2.12409001000000e+01 1.40369000000000e+00 1.054e+06 8.790e+05 1.132e+06 4.658e+05 -1.937e+05 5.496e+04
1076 1 2.02371998000000e+01 2.23267994000000e+01 7.34195000000000e-01 4.687e+06 4.163e+06 4.717e+06 7.684e+04 -9.548e+04 1.271e+05
2166 1 1.07826996000000e+01 1.41595001000000e+01 5.00977990000000e+00 1.126e+06 1.572e+06 6.108e+05 -3.022e+05 -1.215e+05 -1.134e+04
2213 1 8.88560960000000e+00 1.58970004000000e+01 5.07700010000000e+00 1.623e+06 1.829e+06 1.631e+06 -1.662e+05 1.663e+05 4.297e+03
1595 1 1.06246004000000e+01 1.75977001000000e+01 5.04875990000000e+00 2.162e+06 1.779e+06 1.705e+06 -2.680e+05 -3.976e+04 -1.241e+05
2217 1 1.25073004000000e+01 1.58388996000000e+01 4.91516020000000e+00 1.507e+06 1.914e+06 1.668e+06 -4.385e+05 -2.647e+05 2.257e+05
1652 1 2.11781006000000e+01 1.94508000000000e+01 3.23949000000000e+00 1.589e+06 1.163e+06 1.597e+06 1.244e+05 -4.804e+04 -2.319e+05
1688 1 1.06681004000000e+01 2.29442998000000e+01 3.26280000000000e+00 1.656e+06 1.743e+06 2.101e+06 1.956e+05 4.540e+05 -1.443e+05
2313 1 1.24305001000000e+01 2.29801998000000e+01 5.19411990000000e+00 1.951e+06 1.543e+06 1.707e+06 -8.379e+04 3.810e+05 -2.608e+05
1696 1 1.76322994000000e+01 2.28225003000000e+01 3.24487000000000e+00 1.710e+06 1.497e+06 1.283e+06 -1.103e+05 -2.784e+05 -2.565e+05
1651 1 1.94785004000000e+01 2.12098999000000e+01 3.15145990000000e+00 1.354e+06 1.092e+06 9.423e+05 -4.338e+05 -1.787e+05 -5.057e+05
2168 1 1.06973000000000e+01 1.23823996000000e+01 6.64332010000000e+00 1.137e+06 4.340e+05 1.876e+06 6.514e+05 1.646e+05 -8.024e+04
2167 1 9.09980960000000e+00 1.40778999000000e+01 6.79338980000000e+00 7.330e+05 6.648e+05 1.258e+06 3.589e+05 2.539e+04 -8.355e+05
2841 1 1.24450999000000e+01 1.41788998000000e+01 6.74939020000000e+00 1.205e+06 1.971e+06 1.625e+06 2.976e+05 -5.168e+04 -1.094e+06
2214 1 8.90938000000000e+00 1.75963002000000e+01 6.85740000000000e+00 9.645e+05 -4.103e+05 -2.728e+04 -1.817e+04 -5.885e+05 1.466e+06
2219 1 1.23917999000000e+01 1.75827999000000e+01 6.77743010000000e+00 1.205e+06 1.095e+06 1.125e+06 6.103e+04 3.611e+05 7.617e+05
2689 1 5.33486990000000e+00 5.45769980000000e+00 8.57855990000000e+00 1.520e+06 1.046e+06 1.626e+06 -2.359e+05 -1.695e+05 1.062e+05
2734 1 3.61912990000000e+00 7.17795990000000e+00 8.66738990000000e+00 1.281e+06 8.444e+05 1.188e+06 1.933e+04 5.409e+04 -4.669e+05
2736 1 3.46070010000000e+00 5.38683990000000e+00 1.03322001000000e+01 1.621e+06 4.792e+05 1.059e+06 1.302e+05 -1.610e+05 -7.606e+05
2690 1 7.00102000000000e+00 7.11832000000000e+00 8.54296970000000e+00 1.243e+06 1.446e+06 1.518e+06 -4.394e+05 -6.395e+04 1.016e+05
2692 1 7.15810010000000e+00 5.37307980000000e+00 1.02393999000000e+01 1.473e+06 9.101e+05 1.829e+06 -1.398e+05 -3.468e+04 -3.989e+05
2737 1 5.28394990000000e+00 8.91948040000000e+00 8.49510000000000e+00 1.781e+06 1.429e+06 1.596e+06 -2.336e+05 2.802e+05 -1.793e+05
2784 1 3.54088000000000e+00 8.94585040000000e+00 1.01857996000000e+01 1.197e+06 7.482e+05 8.680e+05 -1.364e+05 -2.240e+03 -4.292e+05
2740 1 7.15928980000000e+00 8.90497980000000e+00 1.02480002000000e+01 1.653e+06 1.227e+06 2.036e+06 1.832e+05 3.005e+05 3.061e+05
2789 1 8.96317020000000e+00 1.23472004000000e+01 8.48735050000000e+00 1.135e+06 1.411e+06 1.343e+06 1.140e+05 -6.128e+05 4.353e+05
2212 1 1.05351000000000e+01 1.24185000000000e+01 1.01926003000000e+01 1.681e+06 1.830e+06 1.021e+06 4.408e+04 -5.872e+05 -2.957e+04
2793 1 1.23976002000000e+01 1.23767004000000e+01 8.58638000000000e+00 1.890e+06 1.928e+06 2.531e+06 -1.705e+05 9.598e+04 8.080e+04
2791 1 8.81779010000000e+00 1.42139998000000e+01 1.02693997000000e+01 1.447e+06 2.004e+06 2.291e+06 -2.919e+05 -2.882e+05 2.113e+05
2790 1 1.22851000000000e+01 1.42580004000000e+01 1.03123999000000e+01 1.526e+06 2.085e+06 1.744e+06 3.060e+05 1.003e+05 3.491e+05
2837 1 9.05128960000000e+00 1.59154998000000e+01 8.29790020000000e+00 6.677e+05 -9.427e+05 6.390e+05 -3.166e+05 -1.422e+05 2.415e+05
2840 1 1.05283003000000e+01 1.58905002000000e+01 1.02681999000000e+01 9.126e+05 1.271e+06 1.434e+06 7.417e+03 -2.239e+05 -1.591e+05
2216 1 1.22355003000000e+01 1.58878002000000e+01 8.39982990000000e+00 7.653e+05 1.763e+05 1.337e+06 6.157e+05 -1.107e+05 -4.091e+05
2838 1 1.06767998000000e+01 1.75914994000000e+01 8.45895010000000e+00 -8.783e+05 -5.713e+05 9.099e+05 1.527e+05 -1.505e+05 -2.298e+05
3313 1 5.34130000000000e+00 5.31716010000000e+00 1.20792999000000e+01 9.872e+05 1.079e+06 1.851e+06 -2.207e+05 -3.608e+05 4.716e+04
3361 1 3.60193990000000e+00 7.10987000000000e+00 1.18249998000000e+01 1.432e+06 4.185e+05 1.389e+06 -1.619e+05 2.654e+05 -7.130e+05
3943 1 7.00985000000000e+00 7.11620000000000e+00 1.18613998000000e+01 1.087e+06 3.257e+05 1.764e+06 1.000e+05 5.492e+04 -2.438e+04
2739 1 5.31966020000000e+00 8.87623980000000e+00 1.19285002000000e+01 1.077e+06 9.329e+05 2.071e+06 1.654e+05 1.481e+05 -1.907e+05
3360 1 5.21764990000000e+00 5.39772990000000e+00 1.55605002000000e+01 1.570e+06 1.301e+06 2.139e+06 1.157e+05 -1.594e+05 6.193e+04
3988 1 5.22881990000000e+00 7.15354010000000e+00 1.38128996000000e+01 1.307e+06 1.193e+06 2.440e+06 -2.019e+05 8.422e+04 -2.793e+04
3316 1 7.04057980000000e+00 5.39654020000000e+00 1.36773005000000e+01 8.576e+05 9.790e+05 1.867e+06 -2.775e+05 -4.232e+05 -8.580e+04
4569 1 8.71251010000000e+00 5.23190020000000e+00 1.55834999000000e+01 1.558e+06 1.772e+06 2.153e+06 -2.045e+05 4.657e+04 -2.043e+05
3944 1 8.67757990000000e+00 7.17041020000000e+00 1.37317000000000e+01 7.562e+05 1.052e+06 2.136e+06 2.753e+05 2.616e+05 -2.062e+05
3985 1 5.38985020000000e+00 8.82075030000000e+00 1.56529999000000e+01 1.372e+06 1.364e+06 1.760e+06 -5.807e+04 -4.526e+04 -6.609e+04
2643 2 7.00551990000000e+00 8.82549960000000e+00 1.37417002000000e+01 7.760e+05 5.838e+05 2.237e+06 2.358e+05 3.440e+05 1.293e+05
3364 1 8.81649970000000e+00 8.82837970000000e+00 1.55776997000000e+01 1.820e+06 1.538e+06 2.218e+06 1.885e+05 -6.222e+04 -4.342e+04
3456 1 7.09436990000000e+00 1.41525002000000e+01 1.56089001000000e+01 4.937e+05 1.894e+06 1.235e+06 5.755e+04 -2.783e+05 -1.243e+05
3415 1 8.72155950000000e+00 1.41461001000000e+01 1.38981000000000e+01 1.760e+06 1.702e+06 1.913e+06 -1.027e+05 4.616e+05 1.008e+05
4038 1 1.05949002000000e+01 1.42147999000000e+01 1.56155005000000e+01 1.104e+06 1.049e+06 7.463e+05 -9.014e+04 5.753e+05 3.679e+05
3460 1 6.96393020000000e+00 1.58982000000000e+01 1.37063999000000e+01 1.666e+06 2.216e+06 1.976e+06 -5.199e+04 3.078e+05 -5.025e+04
4082 1 7.15428020000000e+00 1.75333996000000e+01 1.56444998000000e+01 1.495e+06 1.522e+06 1.812e+06 -4.594e+04 2.064e+05 4.649e+05
3464 1 1.05404997000000e+01 1.58297997000000e+01 1.39195996000000e+01 1.686e+06 1.311e+06 1.460e+06 -1.176e+05 -8.935e+04 3.524e+05
3463 1 8.72817040000000e+00 1.75935002000000e+01 1.38228998000000e+01 2.058e+06 1.771e+06 1.569e+06 -4.973e+04 3.557e+05 -1.275e+05
4086 1 1.05470000000000e+01 1.75625000000000e+01 1.56124001000000e+01 1.875e+06 1.258e+06 1.677e+06 7.691e+04 3.876e+04 1.799e+05
3939 1 5.21140000000000e+00 7.05625010000000e+00 1.73174000000000e+01 1.532e+06 1.586e+06 1.226e+06 3.486e+05 -1.271e+05 1.350e+03
3315 1 6.94742020000000e+00 5.37769990000000e+00 1.72782002000000e+01 1.582e+06 1.311e+06 1.323e+06 5.115e+03 -1.101e+05 -7.459e+04
4568 1 8.74407010000000e+00 7.01487020000000e+00 1.72535992000000e+01 1.417e+06 1.903e+06 1.504e+06 -1.099e+05 7.654e+04 -3.670e+04
3991 1 7.07048990000000e+00 8.81186010000000e+00 1.73738003000000e+01 2.005e+06 1.748e+06 1.427e+06 1.872e+05 -2.971e+05 1.631e+05
4034 1 8.81606960000000e+00 1.42626000000000e+01 1.71539002000000e+01 5.723e+05 1.468e+06 7.409e+05 -7.966e+04 -1.649e+05 -6.149e+04
4084 1 7.02041010000000e+00 1.59392996000000e+01 1.73957005000000e+01 1.624e+06 1.728e+06 1.244e+06 2.239e+05 -1.960e+05 4.448e+05
4088 1 1.05969000000000e+01 1.59410000000000e+01 1.73404999000000e+01 1.455e+06 1.324e+06 1.154e+06 -2.239e+05 1.389e+05 2.504e+05
4087 1 8.83395010000000e+00 1.77047997000000e+01 1.74288006000000e+01 2.150e+06 1.796e+06 1.584e+06 8.708e+04 -1.152e+05 2.801e+05
5879 1 2.09913006000000e+01 1.05429001000000e+01 2.58288002000000e+01 1.787e+06 1.569e+06 1.481e+05 7.628e+05 -4.749e+05 3.843e+05
5253 1 2.05811005000000e+01 8.19851020000000e+00 2.75242005000000e+01 -1.212e+06 -2.347e+06 -4.441e+05 -2.030e+06 -1.063e+06 -1.515e+06
4668 1 1.91193008000000e+01 1.02988005000000e+01 2.76746006000000e+01 -2.682e+03 1.506e+06 1.196e+06 3.371e+05 8.742e+04 2.915e+05
5927 1 2.11282005000000e+01 1.24026003000000e+01 2.79016000000000e+01 1.587e+06 5.020e+05 2.196e+06 2.394e+05 -3.127e+05 8.156e+05
6451 1 2.07073002000000e+01 4.58052020000000e+00 3.09305992000000e+01 5.193e+05 4.712e+05 -1.133e+04 -2.870e+05 -5.963e+04 2.158e+05
6500 1 1.89951000000000e+01 6.58979990000000e+00 3.08327008000000e+01 1.516e+05 1.009e+04 -1.709e+05 1.400e+04 3.214e+05 -3.790e+05
5870 1 2.06695004000000e+01 6.39508010000000e+00 2.92630005000000e+01 -1.797e+05 -6.708e+05 -3.235e+05 -2.710e+05 4.294e+05 -5.555e+05
6496 1 1.72045994000000e+01 8.24769980000000e+00 3.10881996000000e+01 -1.519e+06 -1.025e+06 -8.542e+05 -5.866e+05 3.688e+05 4.035e+05
6497 1 1.89297010000000e+01 8.40979960000000e+00 2.93087006000000e+01 -1.581e+06 9.477e+04 -1.500e+06 2.278e+05 -7.200e+05 2.454e+05
5924 1 2.11583996000000e+01 8.56647970000000e+00 2.98307991000000e+01 -2.695e+06 -1.527e+06 -2.087e+06 -1.228e+06 -3.659e+05 -7.782e+05
6503 1 1.94554005000000e+01 8.81980990000000e+00 3.15463009000000e+01 -2.447e+06 -1.084e+06 -2.489e+06 -2.020e+05 -1.052e+06 -1.620e+06
6495 1 1.56004000000000e+01 1.03485003000000e+01 3.10673008000000e+01 -9.256e+05 1.359e+06 -6.184e+05 -4.769e+05 -8.631e+05 5.342e+05
6540 1 1.41826000000000e+01 1.24273997000000e+01 3.15179997000000e+01 2.262e+06 1.403e+06 2.410e+06 -6.131e+05 -5.686e+04 -4.190e+05
6494 1 1.75237007000000e+01 1.03297005000000e+01 2.94225006000000e+01 7.294e+05 1.096e+06 -2.833e+06 2.694e+05 1.756e+04 -2.781e+05
5875 1 1.78134995000000e+01 1.04621001000000e+01 3.15905991000000e+01 -3.456e+06 -4.242e+06 -4.637e+06 -5.043e+05 -1.839e+06 -1.613e+06
6541 1 1.59762002000000e+01 1.22903996000000e+01 2.97479000000000e+01 2.320e+06 6.813e+05 1.953e+06 -5.730e+05 1.667e+04 1.937e+04
6544 1 1.77922001000000e+01 1.26682997000000e+01 3.16380997000000e+01 1.601e+06 -1.982e+06 1.467e+06 1.126e+05 5.627e+05 -1.105e+05
6545 1 1.93712006000000e+01 1.21710997000000e+01 2.96611004000000e+01 2.411e+06 3.114e+06 2.458e+06 8.607e+05 -5.219e+05 8.457e+05
6594 1 2.10935001000000e+01 1.40970001000000e+01 2.97738991000000e+01 1.313e+06 2.339e+06 1.677e+06 5.182e+05 -7.998e+05 5.152e+05
6547 1 1.95617008000000e+01 1.41815996000000e+01 3.16308995000000e+01 6.507e+05 1.779e+06 1.582e+06 -1.335e+05 -6.981e+05 5.691e+05
6048 1 1.85069000000000e+00 1.94988995000000e+01 2.96422005000000e+01 1.596e+06 1.531e+06 1.368e+06 -2.472e+05 1.512e+05 1.820e+05
6668 1 1.72956000000000e-01 1.95492001000000e+01 3.13684006000000e+01 1.406e+06 1.456e+06 1.539e+06 1.222e+05 1.174e+05 6.422e+04
6672 1 3.53258990000000e+00 1.95464993000000e+01 3.14825001000000e+01 2.108e+06 1.872e+06 1.675e+06 3.876e+05 1.949e+05 -2.092e+05
6669 1 1.14856000000000e-01 2.13502007000000e+01 2.97222004000000e+01 1.478e+06 1.499e+06 1.303e+06 -3.648e+05 1.109e+05 -7.370e+04
6092 1 1.90156000000000e-01 2.29808006000000e+01 3.15098000000000e+01 1.226e+06 1.167e+06 1.082e+06 -1.061e+05 -1.798e+05 1.206e+05
6720 1 3.51080990000000e+00 2.12723999000000e+01 2.96149006000000e+01 1.823e+06 1.172e+06 1.503e+06 7.384e+04 3.773e+05 -3.737e+05
7341 1 3.54518010000000e+00 2.28864002000000e+01 3.14307003000000e+01 1.408e+06 7.125e+05 2.640e+05 7.941e+05 1.963e+05 7.910e+05
6627 1 5.39451980000000e+00 2.13743992000000e+01 3.14347000000000e+01 1.584e+06 1.428e+06 1.403e+06 9.042e+05 1.120e+06 9.824e+04
6676 1 7.21415000000000e+00 2.29895992000000e+01 3.14452992000000e+01 1.271e+06 1.605e+06 1.612e+06 -2.411e+05 -1.635e+05 -2.948e+05
7603 1 2.08474998000000e+01 1.23246000000000e+00 3.43224983000000e+01 -6.327e+05 3.436e+05 -5.658e+05 -8.024e+05 -4.720e+05 -5.217e+05
7023 1 1.72633991000000e+01 4.75794990000000e+00 3.44236985000000e+01 8.589e+05 1.073e+06 -5.397e+05 -4.902e+05 -4.645e+05 -6.558e+05
7068 1 1.90172997000000e+01 4.72721010000000e+00 3.26523018000000e+01 9.007e+05 1.475e+06 1.194e+06 -4.719e+05 -1.932e+05 -5.923e+05
7024 1 2.07394009000000e+01 2.99471000000000e+00 3.26896019000000e+01 1.022e+06 1.016e+05 3.392e+05 -3.982e+05 1.624e+04 3.934e+05
6974 1 1.89615002000000e+01 2.93760000000000e+00 3.44297982000000e+01 8.864e+05 8.474e+05 -1.317e+05 -4.925e+05 -1.538e+05 -5.926e+05
7116 1 1.55123997000000e+01 6.60426000000000e+00 3.44174004000000e+01 5.563e+05 -1.538e+06 -7.267e+05 -1.257e+06 -4.796e+05 -6.709e+05
7070 1 1.72164002000000e+01 6.63825990000000e+00 3.27125016000000e+01 1.135e+06 8.774e+05 2.462e+05 -3.710e+05 -3.239e+05 8.301e+05
7117 1 1.54703999000000e+01 8.43260960000000e+00 3.26334992000000e+01 -2.188e+05 -1.446e+06 -8.468e+05 -5.147e+05 1.735e+05 -9.508e+05
7115 1 1.37056999000000e+01 8.39900970000000e+00 3.44076004000000e+01 8.852e+05 8.687e+05 -1.454e+06 -4.149e+05 -1.218e+06 -9.431e+05
7124 1 1.98824998000000e+01 9.42716980000000e+00 3.36988983000000e+01 2.243e+05 1.412e+05 -1.200e+06 9.027e+04 7.914e+04 -8.576e+05
7114 1 1.39239998000000e+01 1.04323998000000e+01 3.30107994000000e+01 -3.239e+06 1.563e+06 1.282e+06 1.372e+05 -4.346e+05 -6.407e+04
7160 1 1.60527000000000e+01 1.04742003000000e+01 3.33695984000000e+01 -6.685e+06 -8.081e+06 -3.970e+06 -2.082e+06 -2.331e+06 -1.269e+06
7118 1 1.81408997000000e+01 1.09776002000000e+01 3.37751007000000e+01 -2.899e+06 2.283e+05 -9.339e+05 -3.428e+05 -1.441e+06 -9.102e+05
7165 1 1.61004009000000e+01 1.25565996000000e+01 3.33244019000000e+01 1.534e+06 -4.841e+06 2.132e+06 -9.348e+04 6.504e+05 2.946e+05
6499 1 1.99620000000000e+01 1.11766005000000e+01 3.19496002000000e+01 -9.269e+05 9.825e+05 8.251e+05 -9.267e+05 -1.436e+05 -3.089e+05
7293 1 1.80074000000000e+00 1.96005001000000e+01 3.32117996000000e+01 1.309e+06 1.255e+06 1.427e+06 5.853e+05 7.998e+04 -6.223e+04
6671 1 1.89176000000000e+00 2.28754006000000e+01 3.32546005000000e+01 7.374e+05 9.444e+05 1.106e+06 4.664e+05 5.203e+05 1.067e+05
7290 1 1.40056000000000e-01 2.12441998000000e+01 3.31684990000000e+01 4.656e+05 5.193e+05 1.250e+06 5.185e+04 -1.124e+05 2.096e+05
7294 1 3.74464010000000e+00 2.13470993000000e+01 3.31874008000000e+01 1.388e+06 9.747e+05 3.624e+05 8.478e+05 3.703e+05 9.388e+05
7250 1 7.16682010000000e+00 2.12243004000000e+01 3.32661018000000e+01 1.912e+06 1.654e+06 2.200e+06 -1.656e+05 -1.935e+05 -4.071e+05
7598 1 1.91394005000000e+01 1.29655000000000e+00 3.63409996000000e+01 -2.273e+06 -1.374e+06 1.519e+06 -1.277e+06 -2.826e+05 -2.964e+05
7691 1 1.54846001000000e+01 4.92424020000000e+00 3.61921005000000e+01 -8.034e+05 -1.655e+06 1.020e+06 -1.468e+06 -5.758e+05 -4.050e+05
7642 1 1.72740994000000e+01 2.97987020000000e+00 3.62491989000000e+01 -1.322e+06 -5.418e+05 7.232e+05 -1.170e+06 -5.566e+05 -2.750e+04
7648 1 1.94316006000000e+01 3.57121990000000e+00 3.66195984000000e+01 -4.799e+06 -2.054e+06 -3.641e+06 -7.969e+05 -2.208e+06 -1.830e+06
7689 1 1.37075005000000e+01 6.89721020000000e+00 3.64887009000000e+01 -1.310e+06 -9.416e+05 1.681e+06 -6.693e+05 -2.122e+05 1.257e+05
7696 1 1.77199002000000e+01 5.25894020000000e+00 3.66034012000000e+01 -1.260e+06 -1.537e+06 -1.695e+06 -5.046e+05 -1.290e+06 -1.476e+06
8266 1 1.59663000000000e+01 7.04946990000000e+00 3.66637993000000e+01 -2.797e+06 -3.480e+06 -6.184e+06 -1.616e+06 -1.694e+06 -1.637e+06
7646 1 2.00056000000000e+01 7.59434990000000e+00 3.54785004000000e+01 5.619e+05 7.742e+05 5.040e+05 1.667e+05 7.414e+04 -3.532e+05
7734 1 1.22157002000000e+01 8.74917030000000e+00 3.66654015000000e+01 -1.873e+06 1.390e+06 1.935e+06 1.179e+05 4.521e+05 4.489e+05
7112 1 1.43835001000000e+01 9.06350040000000e+00 3.64010010000000e+01 -4.632e+06 -3.138e+06 -6.002e+06 -1.547e+06 2.407e+05 -1.618e+06
7120 1 1.61601009000000e+01 8.68432050000000e+00 3.49553986000000e+01 -1.767e+06 -4.863e+06 -1.371e+06 -1.258e+06 -1.522e+05 -8.671e+05
7075 1 1.82642002000000e+01 9.30422020000000e+00 3.55676003000000e+01 -5.910e+05 2.814e+05 4.449e+05 -6.115e+05 -6.213e+05 -2.197e+04
7158 1 1.24786997000000e+01 1.05535002000000e+01 3.49253006000000e+01 1.314e+06 1.675e+06 1.787e+06 -2.902e+05 6.380e+05 1.257e+05
7785 1 1.23437996000000e+01 1.24859000000000e+01 3.66206017000000e+01 5.581e+05 1.224e+06 2.197e+06 4.010e+05 4.713e+04 5.915e+04
7738 1 1.42110005000000e+01 1.12159996000000e+01 3.70770988000000e+01 -5.519e+05 -2.902e+06 -9.220e+05 3.680e+05 5.066e+05 -2.108e+06
7164 1 1.41244001000000e+01 1.23530998000000e+01 3.48549004000000e+01 1.803e+06 1.446e+06 2.646e+06 -3.858e+05 -1.017e+05 4.204e+05
7119 1 1.61487999000000e+01 1.08564998000000e+01 3.55628014000000e+01 1.662e+06 -2.592e+06 -2.108e+06 -2.700e+04 -2.494e+03 -2.636e+06
7789 1 1.60489006000000e+01 1.26458998000000e+01 3.69273988000000e+01 8.335e+05 -5.959e+05 1.292e+06 -3.155e+05 1.878e+04 -1.212e+06
7251 1 5.29248000000000e+00 2.11704006000000e+01 3.50634003000000e+01 1.637e+06 1.449e+06 1.384e+06 1.564e+05 -5.006e+05 -1.487e+05
7344 1 3.63064010000000e+00 2.29277000000000e+01 3.51223984000000e+01 1.288e+06 9.078e+05 1.525e+06 -2.148e+05 2.341e+05 -1.827e+05
7300 1 7.01016000000000e+00 2.29265996000000e+01 3.49528008000000e+01 9.732e+05 8.699e+05 1.225e+06 5.288e+05 5.751e+04 -4.504e+04
7647 1 1.77164002000000e+01 1.84274020000000e+00 3.83031006000000e+01 2.518e+06 2.453e+06 5.189e+05 -3.245e+05 -3.752e+05 -1.100e+05
8267 1 1.59323998000000e+01 3.68319010000000e+00 3.83376007000000e+01 2.296e+06 2.349e+06 1.380e+06 -4.126e+04 -4.483e+05 -2.456e+05
8321 1 1.96944008000000e+01 3.83575010000000e+00 3.87844010000000e+01 9.293e+05 1.613e+06 -2.562e+06 1.243e+05 2.533e+05 -2.243e+05
8268 1 1.42163000000000e+01 5.34497020000000e+00 3.83358994000000e+01 1.765e+06 1.787e+06 1.171e+06 4.891e+05 -4.518e+05 -3.230e+05
7699 1 1.79020996000000e+01 5.51502990000000e+00 3.89117012000000e+01 2.068e+06 1.843e+06 4.168e+05 2.863e+05 -1.524e+05 -1.791e+05
7695 1 1.81865997000000e+01 7.49427990000000e+00 3.71882019000000e+01 -8.414e+05 -7.736e+05 7.828e+05 -1.293e+05 -4.559e+05 -6.542e+05
7740 1 1.61138992000000e+01 7.18929010000000e+00 3.87809983000000e+01 1.918e+06 1.741e+06 -3.902e+06 -9.117e+04 -1.677e+05 1.404e+05
7694 1 2.00291996000000e+01 5.87503000000000e+00 3.72387009000000e+01 -1.576e+04 -3.486e+05 5.243e+05 6.280e+05 -3.574e+05 -3.408e+05
7737 1 1.41084995000000e+01 8.88286020000000e+00 3.85639000000000e+01 2.434e+06 3.166e+06 -1.821e+06 -3.526e+05 6.074e+05 5.502e+05
7741 1 1.64622002000000e+01 9.18332960000000e+00 3.74356995000000e+01 -4.507e+05 -1.822e+06 -5.689e+05 -1.350e+05 -7.778e+05 -1.212e+06
7739 1 1.23485003000000e+01 1.07361002000000e+01 3.85479012000000e+01 1.703e+06 2.539e+06 1.909e+06 1.018e+05 -1.338e+05 1.859e+05
7788 1 1.41578999000000e+01 1.26602001000000e+01 3.87312012000000e+01 2.079e+06 1.195e+05 -1.353e+05 3.358e+05 1.702e+05 -1.219e+06
7743 1 1.59388000000000e+01 1.09292002000000e+01 3.88130989000000e+01 1.309e+06 8.731e+05 8.944e+05 4.998e+05 4.198e+05 -8.547e+05
8894 1 1.77050991000000e+01 3.62855010000000e+00 4.38437996000000e+01 1.922e+06 1.836e+06 1.285e+06 3.415e+04 -1.266e+05 6.865e+04
8941 1 1.59183998000000e+01 5.36660000000000e+00 4.37734986000000e+01 1.706e+06 2.215e+06 1.867e+06 -9.667e+04 1.992e+05 1.886e+05
8942 1 1.77056008000000e+01 7.06570010000000e+00 4.40770988000000e+01 1.024e+06 1.435e+06 1.112e+06 2.301e+05 -5.923e+05 2.027e+04
8945 1 1.94615002000000e+01 5.46263980000000e+00 4.36663018000000e+01 1.930e+06 1.747e+06 1.894e+06 3.238e+05 3.711e+05 -1.502e+05
205 1 1.59374000000000e+01 3.60395000000000e+00 4.54958000000000e+01 1.453e+06 1.721e+06 2.039e+06 1.063e+05 7.814e+04 5.396e+04
158 1 1.77366009000000e+01 3.65684010000000e+00 4.72596016000000e+01 1.790e+06 1.024e+06 1.460e+06 -2.754e+05 5.965e+05 -1.624e+05
8899 1 1.94400997000000e+01 3.69626000000000e+00 4.55425987000000e+01 1.782e+06 1.487e+06 2.037e+06 9.843e+04 6.228e+05 -4.536e+05
829 1 1.58476000000000e+01 5.27961020000000e+00 4.73858986000000e+01 1.531e+06 1.653e+06 1.765e+06 9.059e+04 1.562e+05 1.607e+05
8943 1 1.58863002000000e+01 7.07717990000000e+00 4.57346001000000e+01 8.374e+05 1.632e+06 1.504e+06 -1.114e+05 -4.450e+05 3.379e+05
206 1 1.77108994000000e+01 7.02008010000000e+00 4.72156983000000e+01 1.343e+06 1.373e+06 1.549e+06 3.589e+05 2.642e+05 -1.077e+05
209 1 1.94745007000000e+01 7.09630010000000e+00 4.55840988000000e+01 1.118e+06 1.500e+06 1.330e+06 -2.906e+05 1.303e+05 3.427e+05
739 1 1.95252991000000e+01 3.66832000000000e+00 4.89747010000000e+01 1.326e+06 5.614e+05 1.267e+06 2.480e+05 6.157e+05 -2.875e+05
208 1 1.78090992000000e+01 5.30476000000000e+00 4.89915010000000e+01 -1.571e+05 -6.471e+05 5.641e+05 -3.214e+05 3.139e+05 -2.713e+05
212 1 1.94799004000000e+01 6.89940980000000e+00 4.90360985000000e+01 9.933e+05 5.237e+05 1.580e+06 -5.616e+05 4.515e+05 -2.217e+04
139 2 1.25442000000000e-01 1.21023000000000e-01 5.10000000000000e+01 1.824e+06 1.630e+06 2.068e+06 -1.966e+05 -2.549e+05 -7.948e+04
810 1 1.06355000000000e-01 3.56873010000000e+00 5.09107018000000e+01 1.591e+06 1.170e+06 1.405e+06 1.102e+05 1.475e+05 1.384e+05
833 1 1.94538002000000e+01 5.20349980000000e+00 5.07593994000000e+01 1.823e+06 1.305e+06 1.698e+05 6.427e+04 -6.421e+04 -2.444e+05
1024 1 1.77115994000000e+01 1.95202008000000e+01 5.26510010000000e+01 7.219e+05 1.135e+06 6.761e+05 1.523e+05 1.472e+05 -4.903e+05
1025 1 1.93831997000000e+01 1.96478005000000e+01 5.09982986000000e+01 8.814e+05 1.313e+06 1.087e+06 -1.283e+04 3.455e+05 1.591e+05
1028 1 2.11818008000000e+01 1.95970993000000e+01 5.27280998000000e+01 1.122e+06 1.024e+06 1.122e+06 -2.272e+05 4.704e+05 2.671e+05
1022 1 1.76165009000000e+01 2.12696991000000e+01 5.08372994000000e+01 6.534e+05 9.847e+05 1.457e+06 -2.875e+05 2.190e+05 -1.716e+05
1026 1 2.11861992000000e+01 2.13318005000000e+01 5.10239983000000e+01 -3.311e+05 3.567e+05 6.207e+05 1.484e+05 -5.925e+05 3.470e+05
1073 1 1.93845997000000e+01 2.28447000000000e+01 5.10098991000000e+01 2.292e+05 -3.394e+05 -9.707e+04 4.649e+05 2.933e+05 -1.395e+06
1726 1 3.56303000000000e+00 2.47861004000000e+01 1.57276000000000e+00 7.117e+05 1.220e+06 9.608e+05 3.906e+04 6.001e+05 -5.928e+04
1686 1 1.06973000000000e+01 2.48756008000000e+01 1.58790010000000e+00 1.493e+06 2.171e+06 1.852e+06 -2.309e+05 1.115e+05 -1.670e+05
1690 1 1.41577997000000e+01 2.46088009000000e+01 1.55919010000000e+00 2.191e+06 1.544e+06 9.917e+05 -1.718e+05 -7.022e+04 1.030e+06
1697 1 1.77285004000000e+01 2.47057991000000e+01 1.53046000000000e+00 1.499e+06 2.979e+06 1.984e+06 -1.303e+05 -7.054e+05 -2.251e+05
1698 1 2.10011005000000e+01 2.47166996000000e+01 1.51880000000000e+00 1.397e+06 1.213e+06 -6.756e+04 -1.352e+05 -3.443e+05 -4.489e+05
1152 1 1.90684000000000e+00 2.66156006000000e+01 1.54696000000000e+00 8.854e+05 -1.345e+06 -2.439e+05 -5.811e+05 -3.016e+05 7.207e+05
1729 1 5.27620980000000e+00 2.65205994000000e+01 1.63857000000000e+00 8.887e+05 6.665e+05 1.087e+06 4.005e+05 9.156e+04 -3.871e+05
1737 1 1.24832001000000e+01 2.64731999000000e+01 1.55474000000000e+00 1.997e+06 1.559e+06 1.848e+06 -2.181e+05 7.204e+04 -8.108e+04
1746 1 2.08955994000000e+01 2.80086002000000e+01 1.36972000000000e+00 1.118e+06 8.786e+05 2.691e+05 -2.803e+05 4.673e+05 6.285e+04
1773 1 3.62832000000000e+00 2.81973991000000e+01 1.68583000000000e+00 6.478e+05 2.139e+05 1.392e+06 -3.124e+05 -3.825e+05 1.154e+05
1742 1 1.78551006000000e+01 2.83465004000000e+01 1.59062010000000e+00 1.689e+06 1.931e+06 2.298e+06 -2.994e+04 -3.205e+05 2.036e+05
1794 1 2.10552998000000e+01 3.18127003000000e+01 1.33960000000000e+00 -5.020e+06 1.431e+06 -4.129e+05 5.271e+05 -1.996e+06 1.934e+05
2310 1 1.06752005000000e+01 2.47206002000000e+01 4.95545020000000e+00 1.776e+06 2.181e+06 1.639e+06 1.009e+04 -5.429e+04 1.191e+04
1692 1 1.40261002000000e+01 2.31634007000000e+01 3.33876990000000e+00 1.873e+06 -8.798e+04 -2.726e+05 -1.514e+05 -9.067e+04 -3.795e+05
2364 1 1.41564999000000e+01 2.47096997000000e+01 4.96790980000000e+00 1.664e+06 8.605e+05 3.901e+05 -1.434e+05 -8.174e+04 -1.128e+06
1027 2 2.10314999000000e+01 2.30655003000000e+01 3.27981000000000e+00 6.632e+05 1.016e+06 9.230e+05 1.244e+05 2.629e+05 3.930e+05
1699 1 1.93222008000000e+01 2.46056996000000e+01 3.25655010000000e+00 -8.121e+05 1.078e+06 8.244e+04 3.199e+05 -2.272e+05 2.819e+05
2397 1 1.64749000000000e+00 2.66618996000000e+01 5.10462000000000e+00 5.902e+05 1.140e+06 7.815e+05 -9.837e+04 7.353e+05 -2.274e+05
1736 1 1.07664004000000e+01 2.65935993000000e+01 3.37457990000000e+00 1.415e+06 1.499e+06 1.718e+06 -1.216e+05 -3.147e+05 1.109e+05
2361 1 1.24096003000000e+01 2.65202999000000e+01 5.09073020000000e+00 1.925e+06 1.725e+06 1.435e+06 2.917e+04 -3.945e+05 1.725e+05
1740 1 1.42270002000000e+01 2.65583000000000e+01 3.35876990000000e+00 2.557e+06 1.953e+06 2.295e+06 2.138e+05 -4.290e+04 2.929e+05
1694 1 1.77077999000000e+01 2.65396004000000e+01 3.30712010000000e+00 2.075e+06 2.243e+06 1.587e+06 4.266e+03 -1.546e+05 -6.401e+04
1748 1 2.10475998000000e+01 2.63036003000000e+01 3.21821000000000e+00 -1.413e+05 -1.168e+06 3.024e+05 -1.292e+06 -3.777e+04 -5.473e+05
2370 1 2.10105000000000e+01 2.80372009000000e+01 5.12720010000000e+00 -6.685e+05 6.142e+05 -3.320e+05 -3.675e+05 1.657e+05 -1.235e+05
1775 1 1.73375000000000e+00 2.82691002000000e+01 3.22936010000000e+00 -1.571e+05 -2.332e+05 2.742e+05 -2.921e+05 -4.202e+05 -3.211e+05
2445 1 1.85519000000000e+00 2.99524002000000e+01 5.01744990000000e+00 1.702e+06 1.170e+06 2.069e+06 2.794e+04 1.140e+05 -1.570e+05
1068 2 1.95408993000000e+01 2.81875000000000e+01 3.32122990000000e+00 7.349e+05 6.255e+05 -3.668e+05 6.674e+05 6.348e+04 6.525e+04
1844 1 2.09412004000000e+01 3.18297997000000e+01 5.31662990000000e+00 -1.558e+06 1.856e+06 9.721e+05 1.910e+05 1.044e+06 -1.134e+05
1772 1 1.68358010000000e+00 2.47576008000000e+01 6.70457990000000e+00 9.349e+05 1.047e+06 1.388e+06 2.464e+05 1.028e+05 -1.442e+05
2444 1 3.38132000000000e+00 2.66182995000000e+01 6.87326000000000e+00 1.319e+06 1.177e+06 1.789e+06 1.098e+06 6.192e+05 -3.768e+05
9259 2 1.78131000000000e+00 2.83034992000000e+01 6.93012000000000e+00 4.612e+05 6.865e+04 9.931e+05 4.670e+05 4.750e+05 -6.390e+05
2355 1 5.29482990000000e+00 2.81516991000000e+01 6.87996020000000e+00 1.469e+06 1.835e+06 1.722e+06 -2.597e+05 -2.162e+04 -2.410e+05
2448 1 3.50911000000000e+00 2.99473000000000e+01 6.80785990000000e+00 1.626e+06 1.060e+06 1.551e+06 -6.568e+05 1.710e+05 -5.355e+04
1939 1 2.11331997000000e+01 4.39990998000000e+01 6.83838990000000e+00 1.290e+06 1.463e+06 1.442e+06 -2.720e+05 1.638e+05 -3.458e+04
2975 1 1.70379000000000e+00 2.46562996000000e+01 1.01868000000000e+01 2.298e+06 1.813e+06 1.570e+06 -1.522e+05 1.611e+05 -1.368e+05
2974 1 3.40727000000000e+00 2.46495991000000e+01 8.45545010000000e+00 1.817e+06 1.228e+06 1.160e+06 3.643e+05 2.043e+03 -1.264e+05
2977 1 5.34022000000000e+00 2.62854996000000e+01 8.61147980000000e+00 1.044e+06 1.794e+06 1.082e+06 3.682e+05 7.870e+05 -3.287e+05
3022 1 3.55615000000000e+00 2.64545994000000e+01 1.00965996000000e+01 1.306e+06 1.823e+06 9.414e+05 2.484e+05 2.961e+05 4.444e+04
2351 1 1.68421000000000e+00 3.00181999000000e+01 8.60120970000000e+00 1.258e+06 -7.294e+04 9.155e+05 -8.882e+04 4.051e+04 -2.442e+05
3018 1 1.72092000000000e+00 2.82087002000000e+01 1.01949997000000e+01 2.018e+06 1.746e+06 1.111e+06 3.634e+05 1.285e+05 5.564e+04
3025 1 5.24911020000000e+00 2.99323998000000e+01 8.56138040000000e+00 1.529e+06 9.611e+05 1.356e+06 1.204e+05 4.247e+04 3.189e+05
3649 1 5.24649000000000e+00 2.81679993000000e+01 1.02161999000000e+01 1.875e+06 1.168e+06 1.367e+06 -1.072e+05 4.213e+05 2.962e+05
3023 2 3.41942000000000e+00 2.99312000000000e+01 1.02852001000000e+01 1.911e+06 1.249e+06 1.247e+06 -1.861e+05 -2.483e+05 1.607e+05
3028 1 6.96939000000000e+00 3.00361996000000e+01 1.02770004000000e+01 2.467e+06 2.292e+06 1.489e+06 2.884e+05 2.413e+05 -3.522e+04
3601 1 8.88362980000000e+00 2.82640991000000e+01 1.02851000000000e+01 2.993e+06 1.802e+06 1.755e+06 4.501e+04 -5.349e+04 7.379e+04
3032 1 1.06159001000000e+01 3.00216007000000e+01 1.02372999000000e+01 1.911e+06 2.445e+06 1.720e+06 -2.143e+05 -9.562e+04 -1.428e+03
3031 1 8.72548010000000e+00 3.18164997000000e+01 1.02065001000000e+01 2.838e+06 1.925e+06 2.022e+06 -2.455e+05 -3.612e+04 -1.386e+05
2562 1 2.11954994000000e+01 4.23647995000000e+01 8.68496990000000e+00 1.357e+06 1.725e+06 1.827e+06 8.633e+04 -5.264e+05 1.045e+05
2612 1 2.10823994000000e+01 4.41539002000000e+01 1.04228001000000e+01 1.861e+06 2.035e+06 1.439e+06 1.663e+05 -2.303e+05 2.501e+05
3602 1 6.98195980000000e+00 2.81868000000000e+01 1.20071001000000e+01 2.039e+06 1.351e+06 2.262e+06 1.608e+05 2.839e+05 -8.201e+04
2979 1 1.06548996000000e+01 2.83125000000000e+01 1.19943000000000e+01 1.724e+06 1.345e+06 1.984e+06 -4.887e+04 -5.758e+04 -2.881e+05
3650 1 6.94363020000000e+00 3.17728005000000e+01 1.20096998000000e+01 1.608e+06 1.579e+06 2.079e+06 -3.039e+04 -3.214e+05 -1.666e+05
3654 1 1.05691996000000e+01 3.17929993000000e+01 1.20730000000000e+01 1.642e+06 1.269e+06 2.022e+06 5.527e+04 6.393e+05 7.131e+05
3652 1 7.01311020000000e+00 2.99118996000000e+01 1.37586003000000e+01 1.107e+06 1.314e+06 1.697e+06 -1.840e+03 1.745e+05 -1.799e+05
3605 1 8.76369960000000e+00 2.82360993000000e+01 1.37960997000000e+01 1.522e+06 1.143e+06 1.949e+06 -2.402e+03 -1.108e+05 1.742e+05
4277 1 8.77188020000000e+00 3.00648003000000e+01 1.54909001000000e+01 1.167e+06 7.307e+05 6.532e+05 1.557e+05 5.713e+05 3.043e+05