         692
Lattice="  42.3235   0.0000   0.0000   0.0000  45.8549   0.0000   0.0000   0.0000  52.9081 " Time=0.000E+00  Step=0
Ni     0.00094282    0.00392960   50.81708530     139
Ni    17.63634110    3.57597090   47.23087690     158
Ni    21.20118900    5.31267880   45.49501800     162
Ni    22.90880780    3.54181170   49.02892690     163
Ni    21.14718060    3.58096700   47.26927570     164
Ni    38.84502800    1.74887330   49.08331680     184
Ni    40.58784490    3.49871830   49.08553310     187
Ni     0.00668050    1.74971520   49.07143020     188
Ni    15.86590860    3.54780320   45.47753530     205
Ni    17.64450650    7.02128790   47.24557500     206
Ni    17.61318780    5.29082730   49.02811050     208
Ni    19.40839770    7.05449720   45.52289970     209
Ni    21.16942980    7.03826480   47.28732300     210
Ni    19.40560340    7.01519250   49.00928880     212
Ni    22.95771040    5.30040550   47.28841400     213
Ni    22.92805100    7.05013800   49.04278180     215
Ni    31.83162500   21.19099240   47.30129240     414
Ni    30.06446650   21.21659090   45.57373050     461
Ni    31.82021530   24.64662360   47.23205950     462
Ni    30.05569460   22.92487540   47.27769850     463
Ni    31.85666660   24.62044150   50.75214390     464
Ni    33.59240730   22.92811580   47.27421190     465
Ni    35.35651400   24.70973780   47.28661350     466
Ni    33.60859680   24.65761760   48.99501040     467
Ni    37.08638380   24.69304850   49.04713060     471
Ni    33.65080260   28.16004560   48.95842740     513
Ni    35.36080550   28.19968030   47.24594500     514
Ni    33.59880450   26.43706130   47.25263980     515
Ni    35.37342840   28.15182880   50.72451020     516
Ni    37.09770580   28.18713380   49.00701140     519
Ni    42.28059010   29.91970440    6.69072250     523
Ni    30.08058550   33.58972930   50.76199720     556
Ni    19.39534950    3.57159620   49.00270460     739
Ni    38.83631140    0.00667780   50.81997300     758
Ni    40.57452780    0.01057880   52.56603620     763
Ni    21.14265630    3.53964950   50.77746200     786
Ni    38.82209780    1.75525670   52.57616810     802
Ni    40.57158280    3.50416140   52.57925040     806
Ni    38.83354570    3.50004290   50.83541490     808
Ni    40.58613210   45.85283280   49.06707760     809
Ni     0.00214400    3.50087140   50.82664490     810
Ni    42.31724170    1.75480020   52.56763840     812
Ni    15.85020460    5.29206990   47.24320600     829
Ni    19.39087300    5.28682760   50.79822920     833
Ni    21.15098950    7.03493450   50.78100970     834
Ni    22.90740200    5.28601790   50.78659820     837
Ni    17.56322480   21.15587430   50.85126120    1022
Ni    17.57505990   19.39385610   52.59759520    1024
Ni    19.34251020   19.43839270   50.87731560    1025
Ni    21.08580970   21.19236760   50.86594020    1026
Ni    21.05741690   22.83317000    3.20620560    1027
Ni    21.09858510   19.42661480   52.62707140    1028
Ni    22.85889640   21.16922570   52.60139470    1031
Ni     5.25882050   24.69914820   52.60115440    1059
Ni    19.30136300   28.14789960    3.27969190    1068
Ni    19.31805610   22.88931480   50.85452660    1073
Ni    21.05484580   24.61415100   50.77888110    1074
Ni    17.54472740   22.87808800   52.59121330    1075
Ni    19.36409950   22.75415420    1.35480080    1076
Ni    22.85263640   22.89169320   50.79986570    1077
Ni    22.77428440   24.57013510   52.54545600    1079
Ni    31.94611740   26.28698540   52.47733690    1086
Ni    31.84072500   22.88085760   52.55663680    1088
Ni    35.34813310   24.64427000   50.80059050    1090
Ni    33.59686660   22.91317760   50.82367710    1091
Ni    35.32545470   22.91014100   52.58089450    1092
Ni     3.52220390   24.70627980   50.85185240    1102
Ni     1.77300720   24.70579340   52.60295490    1103
Ni     5.26305010   26.45533370   50.84925460    1105
Ni     5.25837370   28.19964410   52.59261320    1107
Ni    17.58411790   26.40997120   52.58530810    1120
Ni    19.28223040   28.18588640   52.47291570    1123
Ni    21.02457050   26.36060140   52.46943290    1124
Ni    22.70240210   28.11191370   52.34469990    1127
Ni    24.56704710   26.27532770   52.50562290    1128
Ni    28.27328490   28.05553630   50.78872300    1130
Ni    26.33891680   27.96991540   52.42069630    1131
Ni    28.23141100   26.16473960   52.39052960    1132
Ni    30.28458020   28.06937220   52.36001970    1135
Ni    33.65684890   26.37813950   50.70155340    1137
Ni    35.34524920   26.36707120   52.54530720    1140
Ni    37.08962630   26.41706090   50.78443150    1141
Ni    38.79205710   28.20141220    1.44805660    1143
Ni    40.53799820   29.95173840    1.44436460    1147
Ni     1.77766900   26.45663260   50.84618760    1149
Ni     3.51596500   28.20790480   50.84081280    1150
Ni     1.76046700   28.20129590   52.58964160    1151
Ni     1.75291550   26.45123670    1.44056630    1152
Ni    22.89324960   31.73939330   52.59154510    1175
Ni    24.58846480   29.82025530   52.16219710    1176
Ni    26.56224060   29.97993660   50.87434400    1177
Ni    26.22930720   31.96822560   52.44976050    1179
Ni    28.66201210   29.87491420   52.20792010    1180
Ni    32.14151000   29.95203780    2.90608120    1181
Ni    28.45218470   31.84735500    0.53750670    1183
Ni    24.62168700   33.84375760   52.25419240    1224
Ni    28.27918820   31.85120400   50.85839080    1225
Ni    26.42873000   35.54555900   52.27753450    1227
Ni    28.24546620   33.85843660   52.39212040    1228
Ni    26.42257120   37.06924060    1.31176210    1273
Ni    28.41859820   37.28149030    3.12963320    1276
Ni    10.53364370   17.57788280    4.97058880    1595
Ni    19.34579090   19.41138080    1.43155280    1649
Ni    19.31693840   21.10283660    3.21523170    1651
Ni    21.09907340   19.38297650    3.19411660    1652
Ni    22.87171760   19.41435820    1.44897690    1653
Ni    22.84873960   21.12424850    3.21047330    1655
Ni    10.55828760   24.67407420    1.46344320    1686
Ni    10.54867460   22.90862280    3.20506450    1688
Ni    12.29058080   22.91141320    1.46053300    1689
Ni    14.03567220   24.65866090    1.45900300    1690
Ni    14.03330710   22.88694200    3.20234060    1692
Ni    17.53969580   21.11043550    1.43094920    1693
Ni    17.60320090   26.36263850    3.18877890    1694
Ni    17.59271050   24.61928370    1.42464370    1697
Ni    20.99303060   24.59342010    1.39859820    1698
Ni    19.24574090   24.49005700    3.20174220    1699
Ni    22.77632530   22.85514840    1.43890120    1701
Ni    31.84660540   24.58697700    1.38246110    1710
Ni    33.58135230   22.86985220    1.42614410    1713
Ni    35.34603500   24.61702160    1.42602240    1714
Ni    40.55553440   26.46250730    1.46274840    1718
Ni     3.50686890   24.69677160    1.44478230    1726
Ni     5.25264460   26.44455530    1.43272130    1729
Ni    10.55965520   26.42012600    3.20180940    1736
Ni    12.30667120   26.42791750    1.45277380    1737
Ni    14.05218890   26.40022850    3.19959240    1740
Ni    17.62125020   28.13836670    1.43770160    1742
Ni    19.30194860   24.64157680   52.56747060    1745
Ni    20.76739310   27.85848440    1.40448690    1746
Ni    20.85572820   26.20364190    3.22548840    1748
Ni    24.24520300   28.07454870    1.17127190    1750
Ni    22.46406180   27.86387640    3.22010260    1751
Ni    24.62561800   26.48150450    3.18339750    1752
Ni    26.44600110   25.96703340    1.21948460    1753
Ni    28.40566250   28.00488660    0.82411970    1754
Ni    24.18423840   29.29369550    3.35828020    1755
Ni    28.12046620   26.29759030    3.15015270    1756
Ni    28.28650480   28.64182090    2.96119100    1757
Ni    30.29516220   27.65932660    3.06727080    1758
Ni    26.29699900   28.01299480    1.97052040    1759
Ni    33.62472540   26.31847760    1.37201250    1761
Ni    42.29517370   26.48597530    3.22022610    1766
Ni    38.80383680   26.44765670    3.21224830    1768
Ni    40.55928800   26.47489360    4.95661260    1769
Ni    42.30220800   28.20635800    1.42932720    1770
Ni     1.73309720   24.69295310    6.74036080    1772
Ni     3.50445940   28.19197270    1.42702210    1773
Ni     1.74784330   28.19982720    3.19718700    1775
Ni    20.76999480   31.77288440    1.24106120    1794
Ni    21.06183620   29.96298600    3.32796070    1796
Ni    22.41665840   29.52851490    1.34697720    1797
Ni    24.57386780   32.82623670    1.33028040    1798
Ni    22.78042610   31.60576060    2.13572290    1799
Ni    24.74150090   31.57041360    3.43483930    1800
Ni    24.69199370   30.47475050    1.36167420    1801
Ni    30.39312550   31.70868300   52.32213210    1802
Ni    25.77675060   33.72745520    3.42454600    1803
Ni    26.57161330   31.99585340    1.92037700    1804
Ni    30.16299060   29.79703140    1.27991130    1805
Ni    30.53518300   31.85428060    2.60878330    1807
Ni    26.35520940   29.99536900    3.02756570    1808
Ni    38.76809310   29.95159920    3.18785260    1816
Ni    42.28058630   29.91735280    3.20726990    1820
Ni    21.08623310   33.45207220    3.28402210    1843
Ni    20.62536620   31.72613340    5.25073720    1844
Ni    22.48329360   33.77658470    1.23778810    1845
Ni    24.49028020   35.32381440    1.49222280    1846
Ni    22.62626650   35.58799750    3.19404940    1847
Ni    23.54650120   33.57225420    3.34902620    1848
Ni    26.53244400   34.15576550    1.16397330    1849
Ni    28.41904450   35.52736280    1.31965540    1850
Ni    26.75063330   35.70762640    3.21183680    1851
Ni    28.47590640   33.33824920    2.40469310    1852
Ni    30.27399260   33.61278540    1.02142640    1853
Ni    29.97052580   35.33731460    3.18679980    1855
Ni    31.83051680   33.69954300    3.15976170    1856
Ni    28.33671190   35.93118300    5.14975070    1897
Ni    28.23290250   38.79511260    5.01158620    1898
Ni    26.32867240   37.19033430    5.04875330    1899
Ni    28.24200820   37.26820370    6.97552360    1900
Ni    30.20019150   37.23740010    4.95540860    1901
Ni    21.11092190   44.07920070    6.73318670    1939
Ni    22.86318400   42.33964160    6.74431710    1943
Ni    22.88026240   45.81484990    6.73310760    1991
Ni    24.64145660   44.06610490    6.72462470    1992
Ni    10.54506020   14.07105260    4.95181660    2166
Ni     8.82799150   14.08539200    6.73800520    2167
Ni    10.54308800   12.29864690    6.72649910    2168
Ni    10.52257730   12.32268530   10.22934060    2212
Ni     8.80109980   15.82739070    4.97681480    2213
Ni     8.78991610   17.58199500    6.72236160    2214
Ni    12.24048330   15.80010800    8.46736430    2216
Ni    12.28141210   15.81949430    4.96964840    2217
Ni    12.26634220   17.56034660    6.72510860    2219
Ni    26.40014650   17.58404730   10.25670720    2230
Ni    22.88735580   17.59997370    6.73637340    2231
Ni    24.64191630   19.35298540    6.74641660    2280
Ni    26.40710260   17.61456110    6.73448760    2284
Ni    10.55432510   24.65427970    4.94592200    2310
Ni    12.28932670   22.88448340    4.95360480    2313
Ni     1.71328680   29.94931600    8.45965200    2351
Ni     5.24704170   28.18351750    6.73110440    2355
Ni    12.30471520   26.39876180    4.94456240    2361
Ni    14.03310110   24.62798310    4.94413520    2364
Ni    24.34765820   27.87511060    5.28312920    2374
Ni    26.38191610   26.04051400    5.19681740    2377
Ni    26.37911420   28.04225350    4.24443250    2378
Ni    26.30012130   27.99247360    6.79313090    2379
Ni    26.87668240   29.94689760    0.70109950    2382
Ni    31.70532420   28.21199230    5.02273990    2383
Ni    38.75588230   28.19580460    4.94837380    2390
Ni    40.52362060   28.18934820    6.72078760    2394
Ni    42.27167890   28.17843250    8.48333080    2395
Ni     1.72277380   26.46446230    4.96564060    2397
Ni    24.38389400   33.64621740    7.23666910    2418
Ni    25.65875820   30.00695990    5.32802490    2421
Ni    24.47225760   31.97133260    5.64996770    2422
Ni    22.74073220   29.61345100    5.28218700    2423
Ni    24.31433300   29.79131700    7.13249490    2424
Ni    26.86679660   31.88514720    4.27860930    2425
Ni    28.44798660   30.87158780    2.59512860    2426
Ni    27.91178520   29.94270520    4.83845810    2427
Ni    29.87476920   30.01528170    6.04349850    2428
Ni    28.49966620   27.77855490    5.20372530    2429
Ni    30.26175690   33.88222900    5.11965850    2430
Ni    30.20996860   32.09111790    6.90038360    2431
Ni    31.72909930   31.69349100    4.91603420    2432
Ni    30.14230730   29.78786090    3.85621300    2433
Ni    40.53382110   29.91224480    4.92815500    2441
Ni     3.47620250   26.45209120    6.76630170    2444
Ni     1.71392380   29.91894160    4.96124560    2445
Ni     3.48198440   29.93080900    6.72470910    2448
Ni    22.59926040   31.62468910    4.32646370    2469
Ni    24.58807950   35.26408770    5.04192640    2470
Ni    22.66761590   33.66413500    5.45340540    2471
Ni    27.98460400   31.84760480    6.27709490    2472
Ni    26.20481680   33.52736280    5.85626800    2473
Ni    29.33696370   31.90515720    4.51173550    2474
Ni    26.44947630   35.57601170    6.87902740    2475
NiH   28.39696690   33.99548720    6.86223360    2476
Ni    27.99172600   33.87923820    4.48520000    2477
Ni    21.09478950   42.34095000    8.50060180    2562
Ni    24.61837200   42.34279630    8.50118160    2566
Ni    22.85386660   42.33936310   10.25458620    2567
Ni    21.11721800   45.81808860    8.48937230    2610
Ni    21.09534450   44.07385640   10.25057030    2612
Ni    24.62832260   44.07671360   10.25225350    2613
Ni    24.63122560   45.81368640    8.48624420    2614
Ni    22.86794100   45.81306840   10.24131110    2615
Ni     6.96524960    8.78706080   13.74879740    2643
Ni     5.23962170    5.28372670    8.48025710    2689
Ni     6.99256620    7.03215220    8.48379140    2690
Ni     6.97218420    5.27866940   10.22273830    2692
Ni     3.50162890    7.03713800    8.48873710    2734
Ni     3.48190930    5.28770540   10.22897530    2736
Ni     5.25039530    8.78526980    8.48662570    2737
Ni     5.22737500    8.78754520   11.98043360    2739
Ni     6.98651800    8.79012210   10.22810370    2740
Ni     3.49259140    8.78478150   10.23439120    2784
Ni     8.78999710   12.32319170    8.47621820    2789
Ni    12.26749230   14.06771560   10.23359490    2790
Ni     8.77935130   14.07509610   10.22492410    2791
Ni    12.28051850   12.31893450    8.48048210    2793
Ni    24.64988710   15.86312880    6.73595380    2806
Ni    22.87720880   17.57130630   10.26514530    2810
Ni     8.81091690   15.81777770    8.46575550    2837
Ni    10.52519320   17.59162910    8.47580530    2838
Ni    10.52249240   15.82028680   10.24896430    2840
Ni    12.26160240   14.07489780    6.73166040    2841
Ni    22.89351280   15.84649000    8.49227530    2853
Ni    26.39689070   19.34069440    8.50356960    2854
Ni    24.64333730   15.83820440   10.25086020    2856
Ni    26.39758300   15.85468200    8.49002360    2857
Ni    22.87751020   19.31510160    8.51059530    2901
Ni    24.63278390   19.30700110   10.26682950    2904
Ni    42.30437470   24.68062210    8.47558600    2970
Ni     3.48627900   24.65278440    8.47504240    2974
Ni     1.72835600   24.66935350   10.21700570    2975
Ni     5.26328800   26.42389680    8.47247220    2977
Ni    10.49755580   28.16537480   12.00477890    2979
Ni    26.20477490   29.69577220    8.75614170    3000
Ni    30.01369860   29.95933340    8.49481590    3007
Ni     1.73044090   28.15708350   10.17986110    3018
Ni    42.29370880   26.41922190   10.22155480    3020
Ni    42.30039980   26.45031930    6.72594070    3021
Ni     3.46997810   26.43035130   10.18354040    3022
Ni     3.46974760   29.91344260   10.19189640    3023
Ni     5.23969370   29.92669300    8.46464540    3025
Ni     7.01161580   29.92459120   10.22732740    3028
Ni     8.75397300   31.67378430   10.21965980    3031
Ni    10.51121050   29.91739080   10.23461060    3032
Ni    22.54112250   31.64161490    6.91192820    3045
Ni    26.05905720   31.53438760    7.33306460    3046
Ni    30.02666660   27.92774200    6.98566540    3049
NiH   28.26041410   31.78853040    8.58795550    3050
Ni    26.33866880   31.72187620   10.13632970    3051
Ni    27.89739040   29.70428660    7.18735220    3052
Ni    31.96751980   29.96012700    6.86149020    3053
Ni    22.58074000   33.49285130    8.64954950    3093
Ni    24.63078500   35.46511080    8.62959670    3094
Ni    24.58654220   33.53509520   10.18764970    3096
Ni    26.48870280   33.63064200    8.47654150    3097
Ni    12.20462040   33.39557650   15.49993710    3132
Ni     5.21396020    5.28435990   11.97211080    3313
Ni     6.91690680    5.26258760   17.22097400    3315
Ni     6.94825800    5.27570150   13.73650650    3316
Ni     5.19169710    5.27003190   15.49008280    3360
Ni     3.47970250    7.03783420   11.98347380    3361
Ni     8.69650180    8.79129790   15.49047090    3364
Ni     8.74359990   14.09363460   13.77148730    3415
Ni     6.98735100   14.10251810   15.51581000    3456
Ni     7.00245950   15.84343720   13.77156550    3460
Ni     8.75079540   17.58344650   13.78026680    3463
Ni    10.49748610   15.83700280   13.78065400    3464
Ni     8.76994330   28.17833330   10.24382780    3601
Ni     7.00740430   28.17500880   11.97861400    3602
Ni     8.74660020   28.16151810   13.74448110    3605
Ni     5.23435120   28.17069820   10.20688150    3649
Ni     6.99916600   31.66337970   11.97162060    3650
Ni     6.99655960   29.91312800   13.72638900    3652
Ni    12.21656800   31.65682800   13.76995180    3653
Ni    10.48201280   31.65357210   11.97235680    3654
Ni     8.74168680   31.65218930   13.73054220    3655
Ni    24.26144600   31.66674040    8.70863150    3670
Ni    35.30171970   31.71123700   12.03324990    3682
Ni    36.99257280   35.20972830   17.25799370    3683
Ni    35.27000050   29.96839340   13.78699880    3684
Ni    37.02185440   29.95001040   12.02940560    3685
Ni    38.75196840   31.70198820   12.00767800    3686
Ni    38.75047690   29.94785700   13.76601410    3688
Ni    10.47233680   33.41219710   13.73876760    3704
Ni    33.49938590   31.69957540   13.77051170    3732
Ni    37.02537540   33.46567540   12.00522800    3733
Ni    37.01866910   35.23337940   13.77477740    3735
Ni    38.72549060   33.43794630   13.77365970    3736
Ni     5.19128990    7.03145980   17.23575780    3939
Ni     6.95555460    7.03414630   11.95293820    3943
Ni     8.69662380    7.03161380   13.73972320    3944
Ni     5.21180200    8.79195880   15.50221730    3985
Ni     5.22632890    7.03503370   13.77098280    3988
Ni     6.93854520    8.79452610   17.24178700    3991
Ni     8.72790630   14.11192230   17.26119040    4034
Ni    10.48469450   14.09900950   15.52121740    4038
Ni     6.99982640   17.59346580   15.52406500    4082
Ni     6.98673580   15.85514160   17.27091410    4084
Ni    10.49301530   17.58462910   15.53477480    4086
Ni     8.74147990   17.59786040   17.28090100    4087
Ni    10.48631860   15.84930320   17.27732090    4088
Ni     8.75112150   29.92064680   15.51553820    4277
Ni    10.48214060   29.91333020   13.75574310    4278
Ni     8.72724440   31.65163610   17.25413710    4279
Ni    10.48437790   29.90067680   17.27473830    4280
Ni    12.22316930   29.90362560   15.52332790    4281
Ni    12.21985440   31.64501380   17.25945470    4283
Ni    33.48268890   29.94353100   15.50399500    4305
Ni    35.33545300   33.40480040   13.83565050    4306
Ni    33.46874240   31.69087220   17.24195670    4307
Ni    35.24840550   29.97046280   17.24583440    4308
Ni    36.99051680   29.95651640   15.51789860    4309
Ni    35.29614640   33.38589480   17.20341870    4311
Ni    38.73405460   29.94765860   17.26239780    4312
Ni     8.72449400   33.39626690   15.48279000    4325
Ni    10.46027570   33.38610080   17.23714070    4328
Ni    33.48987200   33.43825150   15.50105960    4353
Ni    35.27124020   35.21766280   15.51555830    4354
Ni    38.72714240   31.69972040   15.50361920    4357
Ni    38.74056250   35.20065690   15.51362710    4358
Ni    38.70024870   33.42190940   17.24374390    4360
Ni     8.65455730    7.02607580   17.20998960    4568
Ni     8.67282390    5.26762440   15.47379310    4569
Ni    19.00522800   10.28687000   27.58367920    4668
Ni     5.22854660   28.15408330   20.81248670    4850
Ni     5.23327110   28.15968510   24.32834630    4851
Ni     6.98752840   26.40994070   20.82747080    4852
Ni     8.72871400   28.14363860   20.82091520    4855
Ni     6.96780260   29.88809400   20.80962760    4900
Ni    35.23592760   31.69029810   19.02492900    4930
Ni    36.98280340   29.94589240   19.01573940    4933
Ni    38.72489170   31.68712240   19.01565170    4934
Ni    36.98002240   33.43111040   19.02800370    4981
Ni    29.97111140   42.23753360   24.28289220    5069
Ni    29.97237020   45.74592970   24.29136090    5071
Ni    28.19277380   43.91255580   24.17764280    5116
Ni    31.70348740   44.02307130   24.33137130    5120
Ni    22.42124180    8.41004850   25.69287680    5204
Ni    26.25954440    6.90300080   24.06591800    5211
Ni    28.12415510    5.32094290   24.39456940    5212
NiH   20.64207080    8.19993120   27.40572170    5253
Ni    26.83989340    9.21022320   26.46483610    5254
Ni    22.94969940   10.48320390   24.41001130    5255
Ni    24.53393750    8.61888510   24.06839750    5256
Ni    26.40354350   10.54091840   24.44264030    5259
Ni    28.17174150    8.77890110   24.43628700    5260
Ni    22.82359320   12.26693920   26.19276620    5348
Ni     5.24674990   26.42275050   22.57694440    5473
Ni     6.99569000   26.41641810   24.33443640    5476
Ni     8.74242120   26.40674970   22.58428580    5477
Ni     5.22072750   29.89467820   22.56415750    5521
Ni     6.97280740   29.88978960   24.31923300    5524
Ni    28.21919630   42.24813460   26.02050020    5690
Ni    31.68629650   42.28849790   26.08917050    5694
Ni    29.94141580   42.29068760   27.83365630    5695
Ni    28.19808390   45.57213210   25.91398820    5738
Ni    28.19173620   44.02539830   27.80564310    5740
Ni    31.69265370   44.05249790   27.86703880    5741
Ni    31.67581940   45.80502320   26.10270880    5742
Ni    29.94328880   45.77578360   27.85743140    5743
Ni    28.00407600    3.31711530   25.77802660    5786
Ni    27.95288100    3.51483560   28.03712850    5787
Ni    27.98971180    1.29679070   27.65314680    5788
Ni    29.88879780    1.74527740   26.13434980    5789
Ni    30.20631030    3.61250280   27.96978380    5791
Ni    26.32389830    5.26384070   27.98003960    5829
NiH   24.14423180    6.51322410   25.65682800    5830
Ni    26.06270410    1.27071860   29.17390440    5832
Ni    26.05416300    4.78881740   25.68899160    5833
Ni    26.30840680    6.97424280   26.32492640    5834
Ni    28.61291120    5.70796680   28.24328810    5836
Ni    29.92285540    5.22174450   26.15875440    5837
NiH   20.60609630    6.46329640   29.13245010    5870
Ni    17.70196540   10.36382100   31.48302270    5875
NiH   22.37111860    6.46977000   27.37820250    5876
Ni    24.85809720   10.94121360   26.36079600    5878
Ni    20.92969900   10.34145640   25.77109150    5879
Ni    28.56080820    7.22492650   26.33997540    5885
Ni    19.35923960   12.24112420   26.13442230    5918
Ni    21.15803720    8.70951560   29.73401450    5924
Ni    21.21172520   10.32017230   28.02658840    5925
Ni    23.37161450   11.00189590   28.28141980    5926
Ni    21.20519830   12.57005310   28.02891920    5927
Ni     1.74737620   19.42123220   29.65502360    6048
Ni     0.00515940   22.93155680   31.41031080    6092
Ni     8.74249270   28.15085030   24.33514980    6102
Ni     8.71312430   29.87822720   22.56737140    6149
NiH   22.40581320    1.20235260   32.64472960    6355
Ni    28.15818600    0.06271640   33.14532470    6367
NiH   24.15256310    1.21351680   30.89995200    6402
NiH   22.35514830    2.95236420   30.87431140    6404
NiH   24.10380550    2.95388960   29.14572910    6406
Ni    24.61691670    1.84412600   33.13109210    6407
Ni    26.87970920    2.13865450   33.59698870    6409
Ni    28.60772520    3.89973500   30.16188430    6410
Ni    28.11671260   45.83626940   29.70304110    6411
Ni    28.57748800    1.97320500   31.60857390    6412
Ni    29.88120660    1.78760890   29.56781390    6413
NiH   23.40185550    9.33670240   30.20287320    6450
NiH   20.60696990    4.70504000   30.86365520    6451
NiH   26.93278500    5.78972150   30.19458200    6454
NiH   25.17168810    5.82200240   31.96569820    6456
NiH   25.83535580    2.99758540   27.40710640    6459
Ni    17.32995230   10.25654320   29.25399210    6494
Ni    15.44052980   10.20706460   30.96637920    6495
NiH   17.14574430    8.20859910   30.86352920    6496
Ni    18.90778920    8.35332110   29.14532280    6497
NiH   25.17174530    9.28293040   28.47055440    6498
Ni    19.85546680   11.07082650   31.84999860    6499
NiH   18.87384040    6.47149180   30.85648740    6500
NiH   25.16807940    7.56146100   30.23473360    6501
Ni    19.44376760    8.74039940   31.41733360    6503
Ni    14.09175590   12.24629980   31.40963170    6540
Ni    15.84817040   12.23154930   29.64234160    6541
Ni    17.73336220   12.61787040   31.58856390    6544
Ni    19.28226280   12.08111380   29.61733250    6545
Ni    24.60333450    8.68637090   26.32707790    6546
Ni    19.50317000   14.18288040   31.49469570    6547
Ni    21.48431780   12.76781560   31.76781850    6548
Ni    21.21135520   14.16133500   29.77464110    6594
Ni    22.90693660    8.68994720   27.99115760    6596
Ni    21.53479960   11.05469040   30.15945240    6599
Ni     5.27706000   21.16907500   31.41932870    6627
Ni     0.02456290   19.44700240   31.41503720    6668
Ni     0.00243170   21.18265150   29.65360830    6669
Ni     5.27423910   24.67181400   34.91719820    6670
Ni     1.75099720   22.92543800   33.16353230    6671
Ni     3.50013380   19.41795350   31.41213990    6672
Ni     5.25604490   24.65086180   31.41859820    6675
Ni     7.01942300   22.90901000   31.41663930    6676
Ni    33.51968770   24.71784980   31.42009550    6707
Ni    37.02914810   24.71528820   31.42318920    6711
Ni     1.74514730   22.91585160   29.65756230    6717
Ni     3.48915890   21.16261670   29.65930750    6720
Ni    35.25878140   26.44718550   31.42750360    6756
Ni     3.51820140   24.67020610   33.16642760    6768
Ni     5.18768260   38.71714790   34.94026580    6867
Ni     5.17931220   42.21002580   34.93259060    6915
Ni     6.91381220   40.44881820   34.93864060    6916
Ni    19.39552690    0.02663480   38.35844800    6926
Ni     3.44692800   40.47636420   34.93735500    6960
NiH   18.87862400    2.96644080   34.36748890    6974
NiH   23.40229230    4.06092170   35.45322040    6978
Ni    24.42564390   45.43364340   32.94150920    6982
Ni    24.64724730    0.09765210   36.66550450    6983
Ni    26.20985800   45.47511680   31.25333600    6985
Ni    26.40865140    0.09341520   34.91501620    6987
NiH   17.12113000    4.71489000   34.36903760    7023
NiH   20.61746410    2.95552340   32.60762790    7024
NiH   22.35367780    4.70988280   29.12375640    7025
Ni    22.88196960    1.85146500   34.85490800    7027
Ni    26.31743430    1.87885380   31.38849260    7029
Ni    26.30322460    3.55577570   29.71252440    7030
NiH   25.16042330    4.05921220   33.70532230    7031
Ni    25.11128620    2.17400670   35.37385560    7033
NiH   26.89576540    4.05933430   31.95740140    7034
NiH   18.86880500    4.70543390   32.60589600    7068
NiH   23.42514420    7.57828910   31.97021880    7069
NiH   17.13018420    6.44057710   32.60906600    7070
NiH   21.66464620    5.82543950   35.46090320    7072
NiH   18.17259790    9.30628300   35.44141770    7075
NiH   23.42327690    5.82429790   33.71334460    7076
NiH   24.10960390    4.72988800   27.37789730    7080
Ni    14.32949540    8.94647040   36.34259030    7112
Ni    13.71637920   10.36140630   32.95793540    7114
Ni    13.72353170    8.37044430   34.29257580    7115
NiH   15.37347990    6.47705840   34.36443330    7116
NiH   15.43068790    8.20956040   32.57150270    7117
NiH   18.12189290   11.03999520   33.68528370    7118
Ni    16.14288900   10.96486000   35.41808320    7119
Ni    16.03027340    8.68345840   34.81853870    7120
NiH   19.92942060    9.32733920   33.69256210    7124
NiH   21.68211940    9.32429120   31.97309500    7125
Ni    12.40232180   10.47654820   35.00416560    7158
Ni    15.97938440   10.36426450   33.18910600    7160
Ni    14.11977100   12.31045250   34.87754440    7164
Ni    15.99368960   12.62331010   33.30907440    7165
Ni     7.02688030   21.16150090   33.16704560    7250
Ni     5.27877190   21.17478750   34.91405120    7251
Ni     0.02381820   21.19019510   33.16963200    7290
Ni     1.77343060   19.43456650   33.16663740    7293
Ni     3.52436190   21.18184280   33.16347890    7294
Ni     7.01544860   24.65805440   33.16411210    7298
Ni     7.02537390   22.91752060   34.91546260    7300
Ni    33.57714850   23.01653100   33.20379260    7329
Ni    35.29926300   22.98915680   31.42991260    7330
Ni    35.31819150   23.00920300   34.97306060    7331
Ni    37.05023960   22.99504860   33.19832230    7333
Ni    37.05026250   24.73096280   34.96548460    7335
Ni     3.49823910   22.90739440   31.41443060    7341
Ni     3.53545620   22.92975820   34.91989140    7344
Ni    33.51807020   26.45447730   33.19011690    7377
Ni    35.27676390   26.46395300   34.95336920    7378
Ni    33.54413610   24.73889540   34.96923460    7380
Ni    37.00809480   26.44380190   33.18827060    7381
Ni     3.46619970   37.00236890   38.46259310    7489
Ni     6.94936240   38.72890470   36.70095830    7490
Ni     5.23316480   38.75203710   38.45535280    7491
Ni    35.25267410   38.77328110   36.70907210    7522
Ni    35.26480490   37.03251270   38.46994400    7524
Ni    37.00111010   37.01911930   36.71369940    7525
Ni    38.80984120   38.79271700   43.72983170    7527
Ni    38.75734710   37.02719120   38.46791080    7528
Ni    42.28431700   38.74824530   36.70660780    7530
Ni    38.74961470   38.76340870   36.71031570    7531