        8668
Lattice="  42.3235   0.0000   0.0000   0.0000  45.8549   0.0000   0.0000   0.0000  52.9081 " Time=0.000E+00  Step=0
Ni     5.27081490   37.01599120   47.29368210       1
Ni     7.02411940   37.01286320   45.52849200       2
Ni     5.27265170   38.78240210   49.05327610       3
Ni     7.03230000   37.02028660   49.05467990       4
Ni     8.78761960   37.02069850   47.28742600       5
Ni    10.54357150   38.79149250   47.27469640       6
Ni     8.79047970   38.78937530   49.04551320       7
Ni    10.54936220   37.02930070   49.04413600       8
Ni    14.05702210   38.80849460   47.25356290       9
Ni    15.81919860   40.58404920   47.24107740      10
Ni    12.30269430   38.80451970   49.02887730      11
Ni    14.05468850   37.04733660   49.02257160      12
Ni    15.80980680   37.05102920   47.24594500      13
Ni    17.57216070   38.82763290   47.23478320      14
Ni    15.80903910   38.82563020   49.00765990      15
Ni    17.55740930   37.07158660   48.99684520      16
Ni    19.32761960   37.06913380   47.23053360      17
Ni    21.09489250   38.84324660   47.22472760      18
Ni    19.32161330   38.84657680   48.99095540      19
Ni    21.07360840   37.09595490   48.97913360      20
Ni    22.85668560   37.08181000   47.22680280      21
Ni    24.63853460   38.86560820   47.20903400      22
Ni    22.85074420   38.86620340   48.97613540      23
Ni    24.62674330   37.15190890   48.92834100      24
Ni    26.43043900   37.09540940   47.23085020      25
Ni    28.21312910   38.85986340   47.22071840      26
Ni    26.42444230   38.89410400   48.94920360      27
Ni    28.23300170   37.14147570   48.94449620      28
Ni    29.98359500   38.82480620   45.48897170      29
Ni    31.77474410   38.83882530   47.23452380      30
Ni    30.00786780   38.87085720   48.97567000      31
Ni    31.79809190   37.10283280   48.97091300      32
Ni    33.55221560   37.07472610   47.22878270      33
Ni    35.33092880   37.07661060   48.99188240      34
Ni    33.55750280   38.84401700   48.99576200      35
Ni    35.34831620   35.33067320   50.74283980      36
Ni    37.08143230   37.05266190   47.24614340      37
Ni    38.83171850   40.56855780   49.03586580      38
Ni    38.83302310   38.80268480   47.26579290      39
Ni    40.58123020   37.03125760   47.26651000      40
Ni     0.00448140   37.02646640   49.04667660      41
Ni     0.00846650   38.78687670   47.27975470      42
Ni    40.57329180   37.03734210   50.80582430      43
Ni    40.57621000   35.27366640   49.03961940      44
Ni    40.55514150   35.26661680   52.57276540      45
Ni     3.51420930   38.77939610   47.29035950      46
Ni     1.76044690   38.78442000   49.05089950      47
Ni     3.51312620   37.01800540   49.05558400      48
Ni     7.02800660   38.78143690   47.28849790      49
Ni     7.02862550   42.31272890   47.28004460      50
Ni     5.27565580   42.31399920   49.04731370      51
Ni     7.03179360   40.55051040   49.04635620      52
Ni     8.78571320   40.55133820   47.27796170      53
Ni    10.54682540   42.32444000   47.26460650      54
Ni     8.79128460   42.32125860   49.03583910      55
Ni    10.54779440   40.56273650   49.03270720      56
Ni    12.30269240   40.56614310   47.25983810      57
Ni    14.06633000   42.34066390   47.24698260      58
Ni    12.30761620   42.33714680   49.02053830      59
Ni    14.05926990   40.58067710   49.01527020      60
Ni    17.58658600   42.35309600   47.23655700      61
Ni    19.34417340   42.35821920   49.00374220      62
Ni    15.82280070   42.35119250   49.00832750      63
Ni    17.57211310   40.59762580   49.00131990      64
Ni    19.33927160   40.59817890   47.23073960      65
Ni    21.11192320   42.35877990   47.23595050      66
Ni    21.12068560   44.10932540   49.01270680      67
Ni    21.09544180   40.60774230   48.99488080      68
Ni    22.86891380   40.60698320   47.22760770      69
Ni    24.65031240   42.35170370   47.24638750      70
Ni    22.87657740   42.35142140   49.00927350      71
Ni    24.63749890   40.60224150   48.99593740      72
Ni    26.42451290   40.61294940   47.22607800      73
Ni    28.21022230   42.34406280   47.25730520      74
Ni    26.42298130   42.33915330   49.01760100      75
Ni    28.21054080   40.60747150   48.99579620      76
Ni    29.99268340   40.59809500   47.24226380      77
Ni    31.78048140   44.07395940   45.52869420      78
Ni    29.98805060   42.34143450   49.02227780      79
Ni    31.77677730   40.60040670   49.00597000      80
Ni    31.77121160   42.33468630   47.26617050      81
Ni    35.31248480   42.32738880   47.27322770      82
Ni    33.54329300   42.33997350   49.02947620      83
Ni    35.31594090   40.58572770   49.02055740      84
Ni    37.07477570   40.56989670   47.26775360      85
Ni    38.83137130   42.32167440   47.28033070      86
Ni    37.07401660   42.33391570   49.03953550      87
Ni    35.31450270   38.82107930   47.24875260      88
Ni    40.58290100   38.79844290   49.03910060      89
Ni     0.01294300   42.31533810   47.28641130      90
Ni    40.58494950   42.32110220   49.04593280      91
Ni     0.01210540   40.55396650   49.04700470      92
Ni     1.76269560   40.54696660   47.28687290      93
Ni     3.51742530   42.31081010   47.28756330      94
Ni     1.76585930   42.31613540   49.05104450      95
Ni     3.51751830   40.54795080   49.05150990      96
Ni     5.27427770   44.07640460   47.28216940      97
Ni     7.03485060   45.84313960   47.27315520      98
Ni     5.28206450   45.84288420   49.04355620      99
Ni     7.03566120   44.08126830   49.03922650     100
Ni     8.78988550   44.08282090   47.26870730     101
Ni    10.55440710   45.85192500   47.25758740     102
Ni     8.79656980   45.84894180   49.03097920     103
Ni    10.55249310   44.09249880   49.02543260     104
Ni    12.31227880   44.09751510   47.25214770     105
Ni    12.31719500    1.75508570   43.71525190     106
Ni    14.07880400    0.01165980   50.78157430     107
Ni    14.07322600   44.10793310   49.01299290     108
Ni    15.83470630   44.10958100   47.24188620     109
Ni    17.60876850    0.02036960   47.24060820     110
Ni    14.08219340    0.01257820   47.24623490     111
Ni    17.59388930   44.11358640   49.00737000     112
Ni    19.35931210   44.11530300   47.23861700     113
Ni    21.13436700    0.01794850   47.24743270     114
Ni    19.36662100    0.01630150   49.01037980     115
Ni    22.89879420    1.76424920   50.78863530     116
Ni    22.89678380    0.00621630   49.02330400     117
Ni    26.41838070   42.31818390   52.55604940     118
Ni    26.43905830    1.74696830   50.80747610     119
Ni    24.65675930   44.09538650   49.02580640     120
Ni    26.43678100   44.09304430   47.27057270     121
Ni    26.47165490    1.75000370   47.29759980     122
Ni    28.20325470   45.83499150   50.80946730     123
Ni    28.20648000   44.08491900   49.03665540     124
Ni    28.22992520   45.83754350   47.29417800     125
Ni    31.77947050   45.83290480   47.30327990     126
Ni    31.75111390   45.83704380   50.81615830     127
Ni    33.52918250   44.09158710   50.80496600     128
Ni    31.76393890   44.08529280   49.04299930     129
Ni    35.31574630   44.07220840   45.52907180     130
Ni    31.77152830    1.73928670   49.07295230     131
Ni    35.30860140   44.08901600   49.04792020     132
Ni    37.07566450   44.08099370   47.28920750     133
Ni    38.83576590   45.84144600   47.30109410     134
Ni    37.07308960   45.84619900   49.06309130     135
Ni    38.83193210   44.08823400   49.05311580     136
Ni    40.58625410   44.08141710   47.29192740     137
Ni     0.01537700   45.84144980   47.29473500     138
Ni     0.01356440   44.08356480   49.05435560     140
Ni     1.76612630   44.07748790   47.28938290     141
Ni     3.52173500   45.84067920   47.28631970     142
Ni     1.76819670   45.84495940   49.05546950     143
Ni     8.78662970   44.08510590    1.41982630     144
Ni     5.28170970    1.74968170   47.27897260     145
Ni     7.04277230    3.51244090   47.27207190     146
Ni     5.28738830    3.51235080   49.04552080     147
Ni     7.04163270    1.75254320   49.03753280     148
Ni     8.79794120    1.75385700   47.26417540     149
Ni    10.56185250    3.51686930   47.25961300     150
Ni     8.80303960    3.51473000   49.03323750     151
Ni    10.55988220    1.75889970   49.02540210     152
Ni    12.32048320    1.76266880   47.25182340     153
Ni    14.08875940    3.52811240   47.24593740     154
Ni    12.32637690    3.52135450   49.02168660     155
Ni    14.08730220    1.77044220   49.01278310     156
Ni    15.86031340    1.78586400   47.23984150     157
Ni    15.85629000    3.53266170   49.01067730     159
Ni    17.62290770    1.79291250   49.00233460     160
Ni    19.38202100    1.78698180   47.24392320     161
Ni    22.91002460    1.78162170   47.26785660     165
Ni    24.71442230    3.52487810   47.29327390     166
Ni    26.41898350    3.50296430    3.18799020     167
Ni    24.71330450    1.76256590   45.53122330     168
Ni    24.67522240    1.76193700   49.03806310     169
Ni    28.26896100    3.51160770   47.32705690     170
Ni    26.46952630    3.51277400   49.05862050     171
Ni    28.22809980    1.74179830   49.06104280     172
Ni    30.02127270    1.73874890   47.31798170     173
Ni    30.01254080    3.50586940   49.08114240     174
Ni    31.74744800    5.27112530   52.59432220     175
Ni    33.51163870   45.84294900   52.57701490     176
Ni    33.55633930    1.73994950   47.32144550     177
Ni    35.32811360    3.50802730   47.33529280     178
Ni    33.52416990    1.74279450   50.82909010     179
Ni    35.30511860    1.74444940   49.07313160     180
Ni    37.08470150    1.74473040   47.31987380     181
Ni    38.84255220    3.50752190   47.32307050     182
Ni    37.04860310    3.50906020   52.59099960     183
Ni    40.59060290    1.74660650   47.29344940     185
Ni     0.01957210    3.50873400   47.30641560     186
Ni     1.76796780    1.74811820   47.29623030     189
Ni     3.52772330    3.51059840   47.28890990     190
Ni     1.77172130    3.50949600   49.06181340     191
Ni     3.52989870    1.75021520   49.04935070     192
Ni     5.28737740    5.27190210   47.28256990     193
Ni     7.04633570    7.03154710   47.27893070     194
Ni     5.28960710    7.03162570   49.05263520     195
Ni     7.04647260    5.27238560   49.04207610     196
Ni     8.80422400    5.27323100   47.26833340     197
Ni    10.56495480    7.03481870   47.26839070     198
Ni     8.80585480    7.03159950   49.04060750     199
Ni    10.56603720    5.27538440   49.03103640     200
Ni    12.32660010    5.28037790   47.25775530     201
Ni    14.09153940    7.04500960   47.25854870     202
Ni    12.32910060    7.03646760   49.03089900     203
Ni    14.09322450    5.28276440   49.02075200     204
Ni    15.86042880    7.04301360   49.02022170     207
Ni    19.38459970    7.04174900   52.56136710     211
Ni    24.74704170    7.07756280   47.33166890     214
Ni    24.71630860    5.28837970   49.05282210     216
Ni    26.51453970    5.29351660   47.32963180     217
Ni    28.30083090    7.07567600   47.36684420     218
Ni    26.49225810    7.06166840   49.08255770     219
Ni    28.25424390    5.28157470   49.08362200     220
Ni    33.57827760    5.28213450   47.35480500     221
Ni    31.82893760    7.06609770   47.37248990     222
Ni    28.23689460    7.04954820   50.83779150     223
Ni    33.54694370    3.50640970   49.08781810     224
Ni    35.31872940    5.27537590   49.09819790     225
Ni    33.60993960    7.07180980   45.62456900     226
Ni    33.56423950    7.05134490   49.11116790     227
Ni    37.07597350    3.50687790   49.08540340     228
Ni    37.09211350    5.27710490   47.34081270     229
Ni    38.85052500    7.04597230   47.33833310     230
Ni    35.34354020    7.05502420   47.35943990     231
Ni    38.83688740    5.27319340   49.08869550     232
Ni    40.59687810    5.27171610   47.32400130     233
Ni     0.02949790    7.03906150   47.31557080     234
Ni    40.59405520    7.04329300   49.08410260     235
Ni     0.01910720    5.27184540   49.07393650     236
Ni     1.77663940    5.27249150   47.30144500     237
Ni     3.53458960    7.03396460   47.29491040     238
Ni     1.77847260    7.03485580   49.06846240     239
Ni     3.53106600    5.27175520   49.05654530     240
Ni     5.29132420    8.79371740   47.29056550     241
Ni     7.04441880   10.55492590   47.29122930     242
Ni     5.29094030   10.55495260   49.06163790     243
Ni     7.04640100    8.79083640   49.05105210     244
Ni     8.80281160    8.79234890   47.28013610     245
Ni    14.05994220   12.36559770   45.55585860     246
Ni    10.55603320   10.55839640   47.28705600     247
Ni    10.56410600    8.79254820   49.04170610     248
Ni    12.32404810    8.80000880   47.27370450     249
Ni    15.85245240   10.56826210   49.04287720     250
Ni    14.08232500   10.57206060   47.28771590     251
Ni    14.09186360    8.79947950   49.03314970     252
Ni    15.86436760    8.80690390   47.27072530     253
Ni    17.61617280   10.60400010   47.29885870     254
Ni    17.61733250   10.56529430   50.79971700     255
Ni    17.63199810    8.79646300   49.02357480     256
Ni    19.39812090    8.83488560   47.28380590     257
Ni    21.20606610    8.88037500   45.60130690     258
Ni    21.17733960   10.63724140   47.33363730     259
Ni    22.91823020    8.81527040   50.80548480     260
Ni    22.96072960    8.85220440   47.33200460     261
Ni    24.74996950   10.64849760   47.37738800     262
Ni    22.93819060   10.61188800   49.07956310     263
Ni    24.71446610    8.83504110   49.07952880     264
Ni    26.53276260    8.86464700   47.37380600     265
Ni    30.07316970    8.85562620   47.38571930     266
Ni    26.49712760   10.62033270   49.11317060     267
Ni    29.99927900    5.27447270   50.83848570     268
Ni    30.03497120    7.05759860   49.10733800     269
Ni    31.83743670   10.62777710   47.38927080     270
Ni    30.04409410   10.61674500   49.12801360     271
Ni    31.80751420    8.83318710   49.12133030     272
Ni    33.59370040    8.83992480   47.37644200     273
Ni    35.35424420   10.60709480   47.37076950     274
Ni    33.57406620   10.60374450   49.12506870     275
Ni    35.33001710    8.82242870   49.11449810     276
Ni    35.36782460    8.84256360   45.61883170     277
Ni    38.86193860   10.58844190   47.34603500     278
Ni    37.09258270   10.58892440   49.11100770     279
Ni    37.10355000    8.82430840   47.35555270     280
Ni    40.60778430    8.81226450   47.33032230     281
Ni     0.04089170   10.57310110   47.32164000     282
Ni    40.60401920   10.57512670   49.09277730     283
Ni     0.02959860    8.80427840   49.08026120     284
Ni     1.78624190    8.80097010   47.30814740     285
Ni     3.54124310   10.56103420   47.30244450     286
Ni     1.78673520   10.56384280   49.07528690     287
Ni     3.53617000    8.79511550   49.06398010     288
Ni     5.29217910   12.32283400   47.30112840     289
Ni     7.03846880   14.08959580   47.30490880     290
Ni     5.28959280   14.08742140   49.07112500     291
Ni     7.04195640   12.31754590   49.06249240     292
Ni     8.79328540   12.32156280   47.29742810     293
Ni    10.53908160   14.09585000   47.30810930     294
Ni     8.78975200   14.08505150   49.06676480     295
Ni    10.55200010   12.31927400   49.05771640     296
Ni    12.30640510   12.33323770   47.30040360     297
Ni    14.05481620   14.12007330   47.31866460     298
Ni    12.30126190   14.09311960   49.06663510     299
Ni    14.07458880   12.33142190   49.05664060     300
Ni    17.60570910   12.35732650   49.06345750     301
Ni    17.59591110   14.16104790   47.34301760     302
Ni    15.82686140   14.11640640   49.07299420     303
Ni    19.38620190   12.40508840   47.34071350     304
Ni    19.41012570   10.66765500   45.59926610     305
Ni    21.16474530   14.19580840   47.37870030     306
Ni    19.37074850   14.14540480   49.09107210     307
Ni    21.15626150   12.38261610   49.08516310     308
Ni    22.96099100   12.42944530   47.37902830     309
Ni    24.73654560   14.20494180   47.39762500     310
Ni    22.93164640   14.16968160   49.11674500     311
Ni    24.71755030   12.39849660   49.11460110     312
Ni    26.52533720   12.42849830   47.39837650     313
Ni    28.27149960   12.39778620   49.13142400     314
Ni    26.49201970   14.17530820   49.13223270     315
Ni    28.27163130    8.84046280   49.11148830     316
Ni    30.07094000   12.41349890   47.39700700     317
Ni    31.83491900   14.17055320   47.38639830     318
Ni    30.04144290   14.16408730   49.13453290     319
Ni    31.81176190   12.38544850   49.13195800     320
Ni    33.59891510   12.39068220   47.38156130     321
Ni    35.36034010   14.14571480   47.36660390     322
Ni    33.57865150   14.14440820   49.12550350     323
Ni    35.33842850   12.36715600   49.12046050     324
Ni    37.11374660   12.36753370   47.35883710     325
Ni    38.87180340   14.12424950   47.34472660     326
Ni    37.10246280   14.12399390   49.11034780     327
Ni    38.85459900   12.34921930   49.10334780     328
Ni    40.61915970   12.34795480   47.33472060     329
Ni     0.05007320   14.10658550   47.32431030     330
Ni    40.61407470   14.10754110   49.09447480     331
Ni     0.03868030   12.33486270   49.08602140     332
Ni     1.79513790   12.33273410   47.31393430     333
Ni     3.54514530   14.09454160   47.30981450     334
Ni     1.79274680   14.09542560   49.08061600     335
Ni     3.54040200   12.32399850   49.07172390     336
Ni     5.29057840   15.86074640   47.31006620     337
Ni     7.03330090   17.63148880   47.31323620     338
Ni     5.28693490   17.62722590   49.07798770     339
Ni     7.03544280   15.85523700   49.07357790     340
Ni     8.78184700   15.86231240   47.31203840     341
Ni    10.52613070   17.63845260   47.31922150     342
Ni     8.77999310   17.62693220   49.07736970     343
Ni    10.53579430   15.85777960   49.07322690     344
Ni    12.28497120   15.87694560   47.32065580     345
Ni    14.03744130   17.65761570   47.33166890     346
Ni    12.28336810   17.63338470   49.07972340     347
Ni    14.05133340   15.87333020   49.07808690     348
Ni    15.81168650   15.90909100   47.33921430     349
Ni    17.57843970   17.68874550   47.35573200     350
Ni    15.80825240   17.65225220   49.09029010     351
Ni    17.58758170   15.90234660   49.09386830     352
Ni    19.36850550   15.94872100   47.37222290     353
Ni    21.13822750   17.71323400   47.37676240     354
Ni    19.35272790   17.68609620   49.11666110     355
Ni    21.14019390   15.93078040   49.11796950     356
Ni    22.93857000   15.96571060   47.39094540     357
Ni    24.71036530   17.71429830   47.37848280     358
Ni    22.90718660   17.69753460   49.12380600     359
Ni    24.70463180   15.94375240   49.13036350     360
Ni    26.50777630   15.96333900   47.39324950     361
Ni    28.28123670   17.70432090   47.36932760     362
Ni    26.47886090   17.70023160   49.12331770     363
Ni    28.26444050   15.93836500   49.13211820     364
Ni    30.06178860   15.94302860   47.38365560     365
Ni    31.83203130   17.68316840   47.35991670     366
Ni    30.04083630   17.68431480   49.11482240     367
Ni    31.81219480   15.91702560   49.12455370     368
Ni    33.59994130   15.91875740   47.36745450     369
Ni    35.36197280   17.66818430   47.34697720     370
Ni    33.58441160   17.66226390   49.10532380     371
Ni    35.34593200   15.89608480   49.11192320     372
Ni    37.11986920   15.89866460   47.34950640     373
Ni    38.87635040   17.65184790   47.33390430     374
Ni    37.10956960   17.64859580   49.09808350     375
Ni    38.86364360   15.87972840   49.09907530     376
Ni    40.62697600   15.88065160   47.33169940     377
Ni     0.05361750   17.64066890   47.32223130     378
Ni    40.61979680   17.63783270   49.08959200     379
Ni     0.04544030   15.86727820   49.08705140     380
Ni     1.79997890   15.86781600   47.31721120     381
Ni     3.54539660   17.63303950   47.31396100     382
Ni     1.79434160   17.63112640   49.08248140     383
Ni     3.54157350   15.85949900   49.07797240     384
Ni     5.28839830   19.40213010   47.31372830     385
Ni     7.03218220   21.17192080   47.31320190     386
Ni     5.28340150   21.16791340   49.08057400     387
Ni     7.03119090   19.39817810   49.07936860     388
Ni     8.77700520   19.40370180   47.31602860     389
Ni    12.28550820   22.92132760   50.83448410     390
Ni     8.77830220   21.16804510   49.07885740     391
Ni    10.52666480   19.39925000   49.07941060     392
Ni    12.27586370   19.41273120   47.32247160     393
Ni    14.03339000   21.17937850   47.32127760     394
Ni    15.81538970   17.61763960   52.59111410     395
Ni    14.03635980   19.40535740   49.08383180     396
Ni    15.79851820   19.42996030   47.33789830     397
Ni    17.56031990   21.18755720   47.32696530     398
Ni    15.79663850   21.16902160   49.08584980     399
Ni    17.57141880   19.42367370   49.09947970     400
Ni    19.34473990   19.44765670   47.34923550     401
Ni    21.11264610   21.18925670   47.32358170     402
Ni    19.32854080   21.17906380   49.07809830     403
Ni    21.11143490   19.44665720   49.11413190     404
Ni    22.90778160   19.45393180   47.35631940     405
Ni    24.68055540   21.18458750   47.32334140     406
Ni    22.87660800   21.17402460   49.08032610     407
Ni    24.67889790   19.43946650   49.10455700     408
Ni    26.48635490   19.44299320   47.34283830     409
Ni    30.05772020   24.63469510   49.00034330     410
Ni    26.46237190   21.15059660   49.05007550     411
Ni    28.26168820   19.43321230   49.09288410     412
Ni    30.05884170   19.43916130   47.33632660     413
Ni    31.78522110   19.40229230   52.60813140     415
Ni    31.82042890   19.42326360   49.08663940     416
Ni    33.59788130   19.43111420   47.33475500     417
Ni    35.36067200   21.17588620   47.31214520     418
Ni    33.59166340   21.16849140   49.07179640     419
Ni    35.32958990   19.38359640   52.60573960     420
Ni    37.12075420   19.41748240   47.32857130     421
Ni    38.87175000   21.17568590   47.31651310     422
Ni    37.11215590   21.16287610   49.07532500     423
Ni    38.86761480   19.40411380   49.08648300     424
Ni    40.62692640   19.41040610   47.32266240     425
Ni     0.04916130   21.17228320   47.31507110     426
Ni    40.61597830   21.16848370   49.07915500     427
Ni     0.04521240   19.40165710   49.08363340     428
Ni     1.79926920   19.40454100   47.31650930     429
Ni     1.80115150   21.17451480   45.54680640     430
Ni     1.80609680   19.41194730   43.78129960     431
Ni     3.53965880   19.39778330   49.08035660     432
Ni     5.28658490   22.93811240   47.31145860     433
Ni     7.03435950   24.70139120   47.30869290     434
Ni     3.53372580   22.93738380   49.08220290     435
Ni     7.03035120   22.93470000   49.07973480     436
Ni     8.77989390   22.93949140   47.30855180     437
Ni    10.53285790   24.69930270   47.30469900     438
Ni     8.78286080   24.69515230   49.07749560     439
Ni    10.53039360   22.93205460   49.07491680     440
Ni    12.27975080   22.93739900   47.30858990     441
Ni    14.03880210   24.69258120   47.29822160     442
Ni    12.28952790   24.69217300   49.06930540     443
Ni    14.03632160   22.92752460   49.07259750     444
Ni    15.79464720   22.93491180   47.31103900     445
Ni    17.55432130   24.68515590   47.29045110     446
Ni    15.79533290   24.67990500   49.06040950     447
Ni    17.55650900   22.91887860   49.07541280     448
Ni    19.32380870   22.93520160   47.30109790     449
Ni    21.09290500   24.68574720   47.28547290     450
Ni    19.30644230   24.65703590   49.04180150     451
Ni    21.08543970   22.90951740   49.04192730     452
Ni    22.88390540   22.92857180   47.29880520     453
Ni    24.66537100   24.67601590   47.28659440     454
Ni    22.85302360   24.64318090   49.01342010     455
Ni    24.65165330   22.89792060   49.03530120     456
Ni    28.26193050   22.87451740   49.00644300     457
Ni    28.24561690   24.68020820   47.29764560     458
Ni    26.44476700   24.62487030   49.01120380     459
Ni    30.05179980   21.16011810   49.05443190     460
Ni    35.35170750   22.90569320   49.04999160     468
Ni    37.11289600   22.93829160   47.30364990     469
Ni    38.85728080   24.69714550   47.29375840     470
Ni    38.85713960   22.93110080   49.06653600     472
Ni    40.61743930   22.93594740   47.30753710     473
Ni     0.03979120   24.69733620   47.30362700     474
Ni    40.60988620   24.68886760   49.06192780     475
Ni     0.03990200   22.93149380   49.07556530     476
Ni     1.79352270   22.93596660   47.31108860     477
Ni     3.53657390   24.69910240   47.30559920     478
Ni     1.78230870   24.69886020   49.07547760     479
Ni     1.79093900   21.16743280   49.08081820     480
Ni     5.28725960   26.46098710   47.30088040     481
Ni     7.03669980   28.21681210   47.30348590     482
Ni     5.27624660   28.21684460   49.07150650     483
Ni     5.27893020   24.69969180   49.07891460     484
Ni     8.79096510   28.21769720   49.07246020     485
Ni     7.02928450   24.69400410   50.84489440     486
Ni    10.54282290   28.21376610   47.29670720     487
Ni    10.54441740   26.45579910   49.07104490     488
Ni    12.28904150   26.45408250   47.29269790     489
Ni    14.04591940   28.21101570   47.27931600     490
Ni    12.30402760   28.21262550   49.06057740     491
Ni    14.04932120   26.44706350   49.05845640     492
Ni    15.80036640   24.69447710   45.53106310     493
Ni    17.54887010   28.20982170   47.26020810     494
Ni    15.79612160   28.20485690   49.03406520     495
Ni    17.54121780   26.43145750   49.02881240     496
Ni    19.31746290   26.44251440   47.27670290     497
Ni    21.09265140   28.21539500   47.28479770     498
Ni    19.28417400   28.20152860   48.99399200     499
Ni    21.06793400   26.41297340   49.01567080     500
Ni    22.87231060   26.45175360   47.29324340     501
Ni    24.67307280   28.23036200   47.34381490     502
Ni    22.84189220   28.19066620   49.03234480     503
Ni    24.64534570   26.37932210   48.99558260     504
Ni    26.45775230   26.46062850   47.32205580     505
Ni    28.23570250   28.23021130   47.33675390     506
Ni    26.46970750   28.20324900   49.09510800     507
Ni    28.25210760   26.39329530   49.02825930     508
Ni    30.02551650   26.43919180   47.28157810     509
Ni    31.81517790   28.20037840   47.26440430     510
Ni    30.05078320   28.15232470   49.02251820     511
Ni    31.82898140   26.38359640   48.97381980     512
Ni    38.85126120   26.46340180   45.52037810     517
Ni    38.84629440   28.21256640   47.26381300     518
Ni    38.86039360   26.44355010   49.04056550     520
Ni    40.60833740   26.45676420   47.28906630     521
Ni    40.58926390   28.21625900   49.04678730     522
Ni     0.02702060   26.45697980   49.06757740     524
Ni     1.77875960   26.46133810   47.30059050     525
Ni     3.52685020   28.22263150   47.29913710     526
Ni     1.76855630   28.21874620   49.06653980     527
Ni     3.52673080   26.45991520   49.06057740     528
Ni     5.27930880   29.97692120   47.30083090     529
Ni     7.03536700   31.73415950   47.29925540     530
Ni     5.27428060   31.73559380   49.06419750     531
Ni     7.03424360   29.97539340   49.06793590     532
Ni     7.02831460   26.45800400   49.08024980     533
Ni    10.54891970   31.73467830   47.29109570     534
Ni     8.79513840   31.73429680   49.06222920     535
Ni    10.55278590   29.97473720   49.06296540     536
Ni    12.29889870   29.97319220   47.28500750     537
Ni    14.04750160   31.74003030   47.26679610     538
Ni    12.31055360   31.73748970   49.05266570     539
Ni    14.05630490   29.97282600   49.04564670     540
Ni    15.79634570   29.97653580   47.25979620     541
Ni    17.55724150   31.75092320   47.25279240     542
Ni    15.79038530   31.74692160   49.01336290     543
Ni    17.53622440   29.97806740   49.00160980     544
Ni    19.31437680   29.98644260   47.25763700     545
Ni    21.09490780   31.76047710   47.26405720     546
Ni    19.30386160   31.76306730   49.00339890     547
Ni    21.05085560   29.99279220   48.99270260     548
Ni    22.89249040   29.98629960   47.32032400     549
Ni    24.67329600   31.74974440   47.33962250     550
Ni    22.84380160   31.77586750   49.01280590     551
Ni    24.67469980   29.96929560   49.13008880     552
Ni    26.45737650   29.99135020   47.35846710     553
Ni    28.22804450   31.75198750   47.33012010     554
Ni    26.46395500   31.75685500   49.10575490     555
Ni    30.01687240   29.98942580   47.32706450     557
Ni    31.79640390   31.76876070   47.26607900     558
Ni    30.04300880   31.79197120   49.04285810     559
Ni    30.26822660   29.94372760   50.60074240     560
Ni    31.91205020   29.96056940   48.92414860     561
Ni    35.35746000   31.75474550   47.20710760     562
Ni    33.64779670   31.76343730   48.93169020     563
Ni    35.37388610   29.97616200   48.96883400     564
Ni    38.84505840   31.75189210   47.24227910     565
Ni    38.83023840   33.52032850   49.02001570     566
Ni    37.11281590   31.75565530   48.97452940     567
Ni    38.83756260   29.97322280   49.01491930     568
Ni    40.58993150   29.98375140   47.27056500     569
Ni     0.00672130   31.74433900   47.28327940     570
Ni    40.55859380   29.97576900   50.81089790     571
Ni     0.00527000   29.98046300   49.05556870     572
Ni     1.76623160   29.98255920   47.29485320     573
Ni     3.51788450   31.73732000   47.29702760     574
Ni     1.75620440   31.73869330   49.05889130     575
Ni     3.51799820   29.97595800   49.06755070     576
Ni     5.27482800   33.49452210   47.29806520     577
Ni     7.03151130   35.25550080   47.29533390     578
Ni     5.27241990   35.25617980   49.05891800     579
Ni     7.03457830   33.49527360   49.06148530     580
Ni     8.79183680   33.49580770   47.29479220     581
Ni    10.54644010   35.26125340   47.28431700     582
Ni    10.55526450   35.26285170   50.81398010     583
Ni    10.55385500   33.49833680   49.05468370     584
Ni    12.30119130   33.50152970   47.27807620     585