ITEM: TIMESTEP
0
ITEM: NUMBER OF ATOMS
47
ITEM: BOX BOUNDS xy xz yz pp pp pp
                     0.00000000000000e+00 1.06199999000000e+01 0.00000000000000e+00
0.00000000000000e+00	1.06199999000000e+01	0.00000000000000e+00
0.00000000000000e+00	1.06199999000000e+01	0.00000000000000e+00
ITEM: ATOMS id type x y z DisplacementX DisplacementY DisplacementZ
42 1 3.522e+00 0.000e+00 -3.522e+00 -1.019e-02 4.059e-08 1.019e-02
26 1 1.761e+00 1.772e+00 3.549e+00 -1.796e-02 -3.641e-03 1.436e-02
46 1 -3.549e+00 -1.772e+00 -1.761e+00 -1.436e-02 3.641e-03 1.796e-02
53 1 -3.549e+00 1.772e+00 -1.761e+00 -1.436e-02 -3.642e-03 1.796e-02
21 1 1.761e+00 -1.772e+00 3.549e+00 -1.796e-02 3.641e-03 1.436e-02
56 1 3.529e+00 3.537e+00 7.518e-03 -1.809e-02 -8.864e-04 1.829e-02
97 1 -7.518e-03 -3.537e+00 -3.529e+00 -1.830e-02 8.860e-04 1.809e-02
90 1 -7.518e-03 3.537e+00 -3.529e+00 -1.830e-02 -8.860e-04 1.809e-02
65 1 3.529e+00 -3.537e+00 7.518e-03 -1.809e-02 8.864e-04 1.829e-02
11 1 -3.549e+00 -1.769e+00 1.778e+00 -1.412e-02 1.313e-03 1.580e-02
18 1 -3.549e+00 1.769e+00 1.778e+00 -1.412e-02 -1.313e-03 1.580e-02
19 1 -1.778e+00 -1.769e+00 3.549e+00 -1.580e-02 1.313e-03 1.412e-02
25 1 -1.778e+00 1.769e+00 3.549e+00 -1.580e-02 -1.313e-03 1.412e-02
63 1 -1.778e+00 -3.539e+00 1.778e+00 -1.567e-02 1.780e-03 1.567e-02
55 1 -1.778e+00 3.539e+00 1.778e+00 -1.567e-02 -1.780e-03 1.567e-02
41 1 1.761e+00 -1.761e+00 -3.522e+00 -1.815e-02 -7.453e-03 9.640e-03
50 1 1.761e+00 1.761e+00 -3.522e+00 -1.815e-02 7.453e-03 9.640e-03
43 1 3.522e+00 -1.761e+00 -1.761e+00 -9.640e-03 -7.453e-03 1.815e-02
51 1 3.522e+00 1.761e+00 -1.761e+00 -9.640e-03 7.453e-03 1.815e-02
57 1 1.761e+00 3.537e+00 1.776e+00 -1.811e-02 4.616e-04 1.830e-02
99 1 -1.776e+00 -3.537e+00 -1.761e+00 -1.830e-02 -4.616e-04 1.811e-02
67 1 1.761e+00 -3.537e+00 1.776e+00 -1.811e-02 -4.616e-04 1.830e-02
91 1 -1.776e+00 3.537e+00 -1.761e+00 -1.830e-02 4.618e-04 1.811e-02
16 1 3.529e+00 1.768e+00 1.777e+00 -1.720e-02 3.021e-04 1.736e-02
37 1 -1.777e+00 -1.768e+00 -3.529e+00 -1.736e-02 -3.033e-04 1.720e-02
48 1 -1.777e+00 1.768e+00 -3.529e+00 -1.736e-02 3.026e-04 1.720e-02
7 1 3.529e+00 -1.768e+00 1.777e+00 -1.720e-02 -3.033e-04 1.736e-02
6 1 3.522e+00 0.000e+00 0.000e+00 1.959e-03 4.925e-08 2.568e-02
38 1 0.000e+00 0.000e+00 -3.522e+00 -2.568e-02 0.000e+00 -1.959e-03
103 1 1.761e+00 -3.549e+00 -1.761e+00 -1.840e-02 1.181e-02 1.840e-02
93 1 1.761e+00 3.549e+00 -1.761e+00 -1.840e-02 -1.181e-02 1.840e-02
54 1 -7.518e-03 3.537e+00 7.518e-03 -1.829e-02 1.155e-02 1.829e-02
61 1 -7.518e-03 -3.537e+00 7.518e-03 -1.829e-02 -1.155e-02 1.829e-02
20 1 -1.098e-02 0.000e+00 3.549e+00 -1.503e-02 0.000e+00 2.580e-02
10 1 -3.549e+00 0.000e+00 1.098e-02 -2.580e-02 7.098e-08 1.503e-02
2 1 0.000e+00 0.000e+00 0.000e+00 1.735e+00 1.441e-08 -1.735e+00
15 1 1.761e+00 1.761e+00 0.000e+00 -2.571e-02 -2.342e-04 2.587e-02
39 1 0.000e+00 -1.761e+00 -1.761e+00 -2.587e-02 2.337e-04 2.571e-02
49 1 0.000e+00 1.761e+00 -1.761e+00 -2.587e-02 -2.341e-04 2.571e-02
5 1 1.761e+00 -1.761e+00 0.000e+00 -2.571e-02 2.346e-04 2.587e-02
8 1 1.761e+00 0.000e+00 1.788e+00 -2.518e-02 1.065e-08 -1.429e-03
40 1 -1.788e+00 0.000e+00 -1.761e+00 1.429e-03 3.519e-10 2.518e-02
14 1 -7.518e-03 1.768e+00 1.777e+00 -1.821e-02 -7.877e-03 9.849e-03
1 1 -1.777e+00 -1.768e+00 7.518e-03 -9.849e-03 7.876e-03 1.821e-02
3 1 -7.518e-03 -1.768e+00 1.777e+00 -1.821e-02 7.876e-03 9.849e-03
13 1 -1.777e+00 1.768e+00 7.518e-03 -9.849e-03 -7.877e-03 1.821e-02
4 1 -1.776e+00 0.000e+00 1.776e+00 -1.094e-02 6.088e-08 1.094e-02
ITEM: TIMESTEP
0
ITEM: NUMBER OF ATOMS
47
ITEM: BOX BOUNDS xy xz yz pp pp pp
                     0.00000000000000e+00 1.06199999000000e+01 0.00000000000000e+00
0.00000000000000e+00	1.06199999000000e+01	0.00000000000000e+00
0.00000000000000e+00	1.06199999000000e+01	0.00000000000000e+00
ITEM: ATOMS id type x y z DisplacementX DisplacementY DisplacementZ
50 1 0.000e+00 3.522e+00 -3.522e+00 0.000e+00 -1.019e-02 1.019e-02
20 1 -1.772e+00 1.761e+00 3.549e+00 3.641e-03 -1.796e-02 1.436e-02
102 1 1.772e+00 -3.549e+00 -1.761e+00 -3.642e-03 -1.436e-02 1.796e-02
98 1 -1.772e+00 -3.549e+00 -1.761e+00 3.641e-03 -1.436e-02 1.796e-02
22 1 1.772e+00 1.761e+00 3.549e+00 -3.641e-03 -1.796e-02 1.436e-02
13 1 -3.537e+00 3.529e+00 7.518e-03 8.864e-04 -1.809e-02 1.829e-02
44 1 3.537e+00 -7.518e-03 -3.529e+00 -8.860e-04 -1.830e-02 1.809e-02
37 1 -3.537e+00 -7.518e-03 -3.529e+00 8.860e-04 -1.830e-02 1.809e-02
17 1 3.537e+00 3.529e+00 7.518e-03 -8.864e-04 -1.809e-02 1.829e-02
66 1 1.769e+00 -3.549e+00 1.778e+00 -1.313e-03 -1.412e-02 1.580e-02
62 1 -1.769e+00 -3.549e+00 1.778e+00 1.313e-03 -1.412e-02 1.580e-02
78 1 1.769e+00 -1.778e+00 3.549e+00 -1.313e-03 -1.580e-02 1.412e-02
76 1 -1.769e+00 -1.778e+00 3.549e+00 1.313e-03 -1.580e-02 1.412e-02
71 1 3.539e+00 -1.778e+00 1.778e+00 -1.780e-03 -1.567e-02 1.567e-02
63 1 -3.539e+00 -1.778e+00 1.778e+00 1.780e-03 -1.567e-02 1.567e-02
42 1 1.761e+00 1.761e+00 -3.522e+00 7.453e-03 -1.815e-02 9.640e-03
38 1 -1.761e+00 1.761e+00 -3.522e+00 -7.453e-03 -1.815e-02 9.640e-03
51 1 1.761e+00 3.522e+00 -1.761e+00 7.453e-03 -9.640e-03 1.815e-02
49 1 -1.761e+00 3.522e+00 -1.761e+00 -7.453e-03 -9.640e-03 1.815e-02
4 1 -3.537e+00 1.761e+00 1.776e+00 -4.616e-04 -1.811e-02 1.830e-02
107 1 3.537e+00 -1.776e+00 -1.761e+00 4.618e-04 -1.830e-02 1.811e-02
12 1 3.537e+00 1.761e+00 1.776e+00 4.616e-04 -1.811e-02 1.830e-02
99 1 -3.537e+00 -1.776e+00 -1.761e+00 -4.616e-04 -1.830e-02 1.811e-02
14 1 -1.768e+00 3.529e+00 1.777e+00 -3.033e-04 -1.720e-02 1.736e-02
101 1 1.768e+00 -1.777e+00 -3.529e+00 3.026e-04 -1.736e-02 1.720e-02
97 1 -1.768e+00 -1.777e+00 -3.529e+00 -3.033e-04 -1.736e-02 1.720e-02
16 1 1.768e+00 3.529e+00 1.777e+00 3.021e-04 -1.720e-02 1.736e-02
15 1 0.000e+00 3.522e+00 0.000e+00 0.000e+00 1.959e-03 2.568e-02
41 1 0.000e+00 0.000e+00 -3.522e+00 6.645e-08 -2.568e-02 -1.959e-03
47 1 3.549e+00 1.761e+00 -1.761e+00 -1.181e-02 -1.840e-02 1.840e-02
40 1 -3.549e+00 1.761e+00 -1.761e+00 1.181e-02 -1.840e-02 1.840e-02
1 1 -3.537e+00 -7.518e-03 7.518e-03 -1.155e-02 -1.829e-02 1.829e-02
9 1 3.537e+00 -7.518e-03 7.518e-03 1.155e-02 -1.829e-02 1.829e-02
21 1 8.882e-16 -1.098e-02 3.549e+00 8.980e-08 -1.503e-02 2.580e-02
64 1 0.000e+00 -3.549e+00 1.098e-02 0.000e+00 -2.580e-02 1.503e-02
5 1 0.000e+00 0.000e+00 0.000e+00 0.000e+00 1.735e+00 -1.735e+00
2 1 -1.761e+00 1.761e+00 0.000e+00 2.346e-04 -2.571e-02 2.587e-02
43 1 1.761e+00 9.992e-16 -1.761e+00 -2.340e-04 -2.587e-02 2.571e-02
39 1 -1.761e+00 0.000e+00 -1.761e+00 2.346e-04 -2.587e-02 2.571e-02
6 1 1.761e+00 1.761e+00 0.000e+00 -2.344e-04 -2.571e-02 2.587e-02
8 1 8.882e-16 1.761e+00 1.788e+00 0.000e+00 -2.518e-02 -1.429e-03
103 1 0.000e+00 -1.788e+00 -1.761e+00 0.000e+00 1.429e-03 2.518e-02
3 1 -1.768e+00 -7.518e-03 1.777e+00 7.876e-03 -1.821e-02 9.849e-03
65 1 1.768e+00 -1.777e+00 7.518e-03 -7.878e-03 -9.849e-03 1.821e-02
7 1 1.768e+00 -7.518e-03 1.777e+00 -7.877e-03 -1.821e-02 9.849e-03
61 1 -1.768e+00 -1.777e+00 7.518e-03 7.876e-03 -9.849e-03 1.821e-02
67 1 0.000e+00 -1.776e+00 1.776e+00 0.000e+00 -1.094e-02 1.094e-02
ITEM: TIMESTEP
0
ITEM: NUMBER OF ATOMS
47
ITEM: BOX BOUNDS xy xz yz pp pp pp
                     0.00000000000000e+00 1.06199999000000e+01 0.00000000000000e+00
0.00000000000000e+00	1.06199999000000e+01	0.00000000000000e+00
0.00000000000000e+00	1.06199999000000e+01	0.00000000000000e+00
ITEM: ATOMS id type x y z DisplacementX DisplacementY DisplacementZ
38 1 -3.522e+00 0.000e+00 -3.522e+00 1.019e-02 4.043e-08 1.019e-02
26 1 -1.761e+00 1.772e+00 3.549e+00 1.796e-02 -3.641e-03 1.436e-02
46 1 3.549e+00 -1.772e+00 -1.761e+00 1.436e-02 3.641e-03 1.796e-02
53 1 3.549e+00 1.772e+00 -1.761e+00 1.436e-02 -3.642e-03 1.796e-02
21 1 -1.761e+00 -1.772e+00 3.549e+00 1.796e-02 3.641e-03 1.436e-02
54 1 -3.529e+00 3.537e+00 7.518e-03 1.809e-02 -8.864e-04 1.829e-02
101 1 7.518e-03 -3.537e+00 -3.529e+00 1.829e-02 8.860e-04 1.809e-02
92 1 7.518e-03 3.537e+00 -3.529e+00 1.829e-02 -8.860e-04 1.809e-02
61 1 -3.529e+00 -3.537e+00 7.518e-03 1.809e-02 8.864e-04 1.829e-02
11 1 3.549e+00 -1.769e+00 1.778e+00 1.412e-02 1.313e-03 1.580e-02
18 1 3.549e+00 1.769e+00 1.778e+00 1.412e-02 -1.313e-03 1.580e-02
23 1 1.778e+00 -1.769e+00 3.549e+00 1.580e-02 1.313e-03 1.412e-02
27 1 1.778e+00 1.769e+00 3.549e+00 1.580e-02 -1.313e-03 1.412e-02
71 1 1.778e+00 -3.539e+00 1.778e+00 1.567e-02 1.780e-03 1.567e-02
59 1 1.778e+00 3.539e+00 1.778e+00 1.567e-02 -1.780e-03 1.567e-02
41 1 -1.761e+00 -1.761e+00 -3.522e+00 1.815e-02 -7.453e-03 9.640e-03
50 1 -1.761e+00 1.761e+00 -3.522e+00 1.816e-02 7.453e-03 9.640e-03
39 1 -3.522e+00 -1.761e+00 -1.761e+00 9.641e-03 -7.453e-03 1.815e-02
49 1 -3.522e+00 1.761e+00 -1.761e+00 9.640e-03 7.453e-03 1.815e-02
57 1 -1.761e+00 3.537e+00 1.776e+00 1.811e-02 4.616e-04 1.830e-02
107 1 1.776e+00 -3.537e+00 -1.761e+00 1.830e-02 -4.616e-04 1.811e-02
67 1 -1.761e+00 -3.537e+00 1.776e+00 1.811e-02 -4.616e-04 1.830e-02
95 1 1.776e+00 3.537e+00 -1.761e+00 1.830e-02 4.618e-04 1.811e-02
14 1 -3.529e+00 1.768e+00 1.777e+00 1.720e-02 3.021e-04 1.736e-02
44 1 1.777e+00 -1.768e+00 -3.529e+00 1.736e-02 -3.033e-04 1.720e-02
52 1 1.777e+00 1.768e+00 -3.529e+00 1.736e-02 3.026e-04 1.720e-02
3 1 -3.529e+00 -1.768e+00 1.777e+00 1.720e-02 -3.033e-04 1.736e-02
2 1 -3.522e+00 0.000e+00 0.000e+00 -1.959e-03 4.920e-08 2.568e-02
42 1 -8.882e-16 0.000e+00 -3.522e+00 2.568e-02 0.000e+00 -1.959e-03
103 1 -1.761e+00 -3.549e+00 -1.761e+00 1.840e-02 1.181e-02 1.840e-02
93 1 -1.761e+00 3.549e+00 -1.761e+00 1.840e-02 -1.181e-02 1.840e-02
56 1 7.518e-03 3.537e+00 7.518e-03 1.829e-02 1.155e-02 1.829e-02
65 1 7.518e-03 -3.537e+00 7.518e-03 1.829e-02 -1.155e-02 1.829e-02
22 1 1.098e-02 -8.882e-16 3.549e+00 1.503e-02 0.000e+00 2.580e-02
10 1 3.549e+00 0.000e+00 1.098e-02 2.580e-02 7.072e-08 1.503e-02
6 1 0.000e+00 0.000e+00 0.000e+00 -1.735e+00 1.482e-08 -1.735e+00
15 1 -1.761e+00 1.761e+00 0.000e+00 2.571e-02 -2.342e-04 2.587e-02
43 1 -8.882e-16 -1.761e+00 -1.761e+00 2.587e-02 2.337e-04 2.571e-02
51 1 -8.882e-16 1.761e+00 -1.761e+00 2.587e-02 -2.341e-04 2.571e-02
5 1 -1.761e+00 -1.761e+00 0.000e+00 2.571e-02 2.346e-04 2.587e-02
8 1 -1.761e+00 0.000e+00 1.788e+00 2.518e-02 1.073e-08 -1.429e-03
47 1 1.788e+00 0.000e+00 -1.761e+00 -1.429e-03 3.613e-10 2.518e-02
16 1 7.518e-03 1.768e+00 1.777e+00 1.821e-02 -7.877e-03 9.849e-03
9 1 1.777e+00 -1.768e+00 7.518e-03 9.848e-03 7.876e-03 1.821e-02
7 1 7.518e-03 -1.768e+00 1.777e+00 1.821e-02 7.876e-03 9.849e-03
17 1 1.777e+00 1.768e+00 7.518e-03 9.848e-03 -7.877e-03 1.821e-02
12 1 1.776e+00 -8.882e-16 1.776e+00 1.094e-02 0.000e+00 1.094e-02
ITEM: TIMESTEP
0
ITEM: NUMBER OF ATOMS
47
ITEM: BOX BOUNDS xy xz yz pp pp pp
                     0.00000000000000e+00 1.06199999000000e+01 0.00000000000000e+00
0.00000000000000e+00	1.06199999000000e+01	0.00000000000000e+00
0.00000000000000e+00	1.06199999000000e+01	0.00000000000000e+00
ITEM: ATOMS id type x y z DisplacementX DisplacementY DisplacementZ
41 1 0.000e+00 -3.522e+00 -3.522e+00 1.117e-08 1.019e-02 1.019e-02
20 1 -1.772e+00 -1.761e+00 3.549e+00 3.641e-03 1.796e-02 1.436e-02
102 1 1.772e+00 3.549e+00 -1.761e+00 -3.642e-03 1.436e-02 1.796e-02
98 1 -1.772e+00 3.549e+00 -1.761e+00 3.641e-03 1.436e-02 1.796e-02
22 1 1.772e+00 -1.761e+00 3.549e+00 -3.641e-03 1.796e-02 1.436e-02
1 1 -3.537e+00 -3.529e+00 7.518e-03 8.864e-04 1.809e-02 1.829e-02
52 1 3.537e+00 7.518e-03 -3.529e+00 -8.860e-04 1.829e-02 1.809e-02
48 1 -3.537e+00 7.518e-03 -3.529e+00 8.860e-04 1.829e-02 1.809e-02
9 1 3.537e+00 -3.529e+00 7.518e-03 -8.864e-04 1.809e-02 1.829e-02
66 1 1.769e+00 3.549e+00 1.778e+00 -1.313e-03 1.412e-02 1.580e-02
62 1 -1.769e+00 3.549e+00 1.778e+00 1.313e-03 1.412e-02 1.580e-02
73 1 1.769e+00 1.778e+00 3.549e+00 -1.313e-03 1.580e-02 1.412e-02
72 1 -1.769e+00 1.778e+00 3.549e+00 1.313e-03 1.580e-02 1.412e-02
59 1 3.539e+00 1.778e+00 1.778e+00 -1.780e-03 1.567e-02 1.567e-02
55 1 -3.539e+00 1.778e+00 1.778e+00 1.780e-03 1.567e-02 1.567e-02
42 1 1.761e+00 -1.761e+00 -3.522e+00 7.453e-03 1.815e-02 9.640e-03
38 1 -1.761e+00 -1.761e+00 -3.522e+00 -7.453e-03 1.815e-02 9.640e-03
43 1 1.761e+00 -3.522e+00 -1.761e+00 7.453e-03 9.641e-03 1.815e-02
39 1 -1.761e+00 -3.522e+00 -1.761e+00 -7.453e-03 9.640e-03 1.815e-02
4 1 -3.537e+00 -1.761e+00 1.776e+00 -4.616e-04 1.811e-02 1.830e-02
95 1 3.537e+00 1.776e+00 -1.761e+00 4.618e-04 1.830e-02 1.811e-02
12 1 3.537e+00 -1.761e+00 1.776e+00 4.616e-04 1.811e-02 1.830e-02
91 1 -3.537e+00 1.776e+00 -1.761e+00 -4.616e-04 1.830e-02 1.811e-02
3 1 -1.768e+00 -3.529e+00 1.777e+00 -3.033e-04 1.720e-02 1.736e-02
92 1 1.768e+00 1.777e+00 -3.529e+00 3.026e-04 1.736e-02 1.720e-02
90 1 -1.768e+00 1.777e+00 -3.529e+00 -3.033e-04 1.736e-02 1.720e-02
7 1 1.768e+00 -3.529e+00 1.777e+00 3.020e-04 1.720e-02 1.736e-02
5 1 0.000e+00 -3.522e+00 0.000e+00 0.000e+00 -1.959e-03 2.568e-02
50 1 0.000e+00 0.000e+00 -3.522e+00 2.024e-08 2.568e-02 -1.959e-03
47 1 3.549e+00 -1.761e+00 -1.761e+00 -1.181e-02 1.840e-02 1.840e-02
40 1 -3.549e+00 -1.761e+00 -1.761e+00 1.181e-02 1.840e-02 1.840e-02
13 1 -3.537e+00 7.518e-03 7.518e-03 -1.155e-02 1.829e-02 1.829e-02
17 1 3.537e+00 7.518e-03 7.518e-03 1.155e-02 1.829e-02 1.829e-02
26 1 8.882e-16 1.098e-02 3.549e+00 9.607e-08 1.503e-02 2.580e-02
64 1 0.000e+00 3.549e+00 1.098e-02 0.000e+00 2.580e-02 1.503e-02
15 1 0.000e+00 0.000e+00 0.000e+00 0.000e+00 -1.735e+00 -1.735e+00
2 1 -1.761e+00 -1.761e+00 0.000e+00 2.346e-04 2.571e-02 2.587e-02
51 1 1.761e+00 0.000e+00 -1.761e+00 -2.340e-04 2.587e-02 2.571e-02
49 1 -1.761e+00 0.000e+00 -1.761e+00 2.346e-04 2.587e-02 2.571e-02
6 1 1.761e+00 -1.761e+00 0.000e+00 -2.344e-04 2.571e-02 2.587e-02
8 1 8.882e-16 -1.761e+00 1.788e+00 0.000e+00 2.518e-02 -1.429e-03
93 1 0.000e+00 1.788e+00 -1.761e+00 0.000e+00 -1.429e-03 2.518e-02
14 1 -1.768e+00 7.518e-03 1.777e+00 7.876e-03 1.821e-02 9.849e-03
56 1 1.768e+00 1.777e+00 7.518e-03 -7.878e-03 9.848e-03 1.821e-02
16 1 1.768e+00 7.518e-03 1.777e+00 -7.877e-03 1.821e-02 9.849e-03
54 1 -1.768e+00 1.777e+00 7.518e-03 7.876e-03 9.848e-03 1.821e-02
57 1 8.882e-16 1.776e+00 1.776e+00 0.000e+00 1.094e-02 1.094e-02
ITEM: TIMESTEP
0
ITEM: NUMBER OF ATOMS
47
ITEM: BOX BOUNDS xy xz yz pp pp pp
                     0.00000000000000e+00 1.06199999000000e+01 0.00000000000000e+00
0.00000000000000e+00	1.06199999000000e+01	0.00000000000000e+00
0.00000000000000e+00	1.06199999000000e+01	0.00000000000000e+00
ITEM: ATOMS id type x y z DisplacementX DisplacementY DisplacementZ
6 1 3.522e+00 0.000e+00 3.522e+00 -1.017e-02 7.014e-06 -1.018e-02
53 1 -3.549e+00 1.772e+00 1.761e+00 -1.434e-02 -3.643e-03 -1.800e-02
21 1 1.761e+00 -1.772e+00 -3.549e+00 -1.800e-02 3.640e-03 -1.437e-02
26 1 1.761e+00 1.772e+00 -3.549e+00 -1.796e-02 -3.676e-03 -1.440e-02
46 1 -3.549e+00 -1.772e+00 1.761e+00 -1.439e-02 3.636e-03 -1.795e-02
54 1 -7.518e-03 3.537e+00 3.529e+00 -1.827e-02 -8.819e-04 -1.808e-02
101 1 3.529e+00 -3.537e+00 -7.518e-03 -1.810e-02 8.717e-04 -1.830e-02
92 1 3.529e+00 3.537e+00 -7.518e-03 -1.809e-02 -8.919e-04 -1.828e-02
61 1 -7.518e-03 -3.537e+00 3.529e+00 -1.827e-02 8.750e-04 -1.809e-02
19 1 -1.778e+00 -1.769e+00 -3.549e+00 -1.581e-02 1.284e-03 -1.419e-02
25 1 -1.778e+00 1.769e+00 -3.549e+00 -1.580e-02 -1.271e-03 -1.415e-02
32 1 -3.549e+00 -1.769e+00 -1.778e+00 -1.412e-02 1.322e-03 -1.583e-02
36 1 -3.549e+00 1.769e+00 -1.778e+00 -1.413e-02 -1.312e-03 -1.582e-02
85 1 -1.778e+00 -3.539e+00 -1.778e+00 -1.568e-02 1.793e-03 -1.566e-02
81 1 -1.778e+00 3.539e+00 -1.778e+00 -1.568e-02 -1.797e-03 -1.565e-02
43 1 3.522e+00 -1.761e+00 1.761e+00 -9.625e-03 -7.451e-03 -1.819e-02
51 1 3.522e+00 1.761e+00 1.761e+00 -9.645e-03 7.464e-03 -1.815e-02
5 1 1.761e+00 -1.761e+00 3.522e+00 -1.814e-02 -7.449e-03 -9.649e-03
15 1 1.761e+00 1.761e+00 3.522e+00 -1.814e-02 7.448e-03 -9.642e-03
91 1 -1.776e+00 3.537e+00 1.761e+00 -1.830e-02 4.776e-04 -1.816e-02
87 1 1.761e+00 -3.537e+00 -1.776e+00 -1.812e-02 -4.463e-04 -1.833e-02
99 1 -1.776e+00 -3.537e+00 1.761e+00 -1.829e-02 -4.597e-04 -1.812e-02
82 1 1.761e+00 3.537e+00 -1.776e+00 -1.807e-02 4.551e-04 -1.830e-02
13 1 -1.777e+00 1.768e+00 3.529e+00 -1.736e-02 3.188e-04 -1.719e-02
30 1 3.529e+00 -1.768e+00 -1.777e+00 -1.721e-02 -3.633e-04 -1.732e-02
35 1 3.529e+00 1.768e+00 -1.777e+00 -1.723e-02 3.283e-04 -1.734e-02
1 1 -1.777e+00 -1.768e+00 3.529e+00 -1.735e-02 -3.376e-04 -1.719e-02
2 1 0.000e+00 0.000e+00 3.522e+00 -2.568e-02 -4.768e-06 1.944e-03
42 1 3.522e+00 0.000e+00 0.000e+00 1.941e-03 5.111e-06 -2.567e-02
103 1 1.761e+00 -3.549e+00 1.761e+00 -1.839e-02 1.181e-02 -1.842e-02
93 1 1.761e+00 3.549e+00 1.761e+00 -1.841e-02 -1.183e-02 -1.842e-02
90 1 -7.518e-03 3.537e+00 -7.518e-03 -1.830e-02 1.154e-02 -1.827e-02
97 1 -7.518e-03 -3.537e+00 -7.518e-03 -1.828e-02 -1.154e-02 -1.827e-02
45 1 -3.549e+00 0.000e+00 -1.098e-02 -2.577e-02 -9.537e-06 -1.505e-02
20 1 -1.098e-02 0.000e+00 -3.549e+00 -1.499e-02 -1.526e-05 -2.586e-02
38 1 0.000e+00 0.000e+00 0.000e+00 1.735e+00 1.293e-05 1.735e+00
49 1 0.000e+00 1.761e+00 1.761e+00 -2.589e-02 -2.232e-04 -2.573e-02
41 1 1.761e+00 -1.761e+00 0.000e+00 -2.569e-02 2.527e-04 -2.585e-02
50 1 1.761e+00 1.761e+00 -8.882e-16 -2.572e-02 -2.575e-04 -2.586e-02
39 1 0.000e+00 -1.761e+00 1.761e+00 -2.587e-02 2.480e-04 -2.570e-02
40 1 -1.788e+00 0.000e+00 1.761e+00 1.419e-03 -9.537e-07 -2.518e-02
31 1 1.761e+00 0.000e+00 -1.788e+00 -2.516e-02 -9.537e-07 1.428e-03
48 1 -1.777e+00 1.768e+00 -7.518e-03 -9.823e-03 -7.845e-03 -1.822e-02
28 1 -7.518e-03 -1.768e+00 -1.777e+00 -1.817e-02 7.826e-03 -9.832e-03
37 1 -1.777e+00 -1.768e+00 -7.518e-03 -9.850e-03 7.845e-03 -1.820e-02
34 1 -7.518e-03 1.768e+00 -1.777e+00 -1.817e-02 -7.846e-03 -9.851e-03
29 1 -1.776e+00 0.000e+00 -1.776e+00 -1.099e-02 -1.049e-05 -1.089e-02
ITEM: TIMESTEP
0
ITEM: NUMBER OF ATOMS
47
ITEM: BOX BOUNDS xy xz yz pp pp pp
                     0.00000000000000e+00 1.06199999000000e+01 0.00000000000000e+00
0.00000000000000e+00	1.06199999000000e+01	0.00000000000000e+00
0.00000000000000e+00	1.06199999000000e+01	0.00000000000000e+00
ITEM: ATOMS id type x y z DisplacementX DisplacementY DisplacementZ
51 1 3.522e+00 3.522e+00 0.000e+00 -1.019e-02 -1.019e-02 4.021e-08
10 1 -3.549e+00 1.761e+00 1.772e+00 -1.436e-02 -1.796e-02 -3.641e-03
100 1 1.761e+00 -3.549e+00 -1.772e+00 -1.796e-02 -1.436e-02 3.641e-03
64 1 1.761e+00 -3.549e+00 1.772e+00 -1.796e-02 -1.436e-02 -3.642e-03
45 1 -3.549e+00 1.761e+00 -1.772e+00 -1.436e-02 -1.796e-02 3.641e-03
14 1 -7.518e-03 3.529e+00 3.537e+00 -1.830e-02 -1.809e-02 -8.864e-04
30 1 3.529e+00 -7.518e-03 -3.537e+00 -1.809e-02 -1.830e-02 8.860e-04
7 1 3.529e+00 -7.518e-03 3.537e+00 -1.809e-02 -1.830e-02 -8.860e-04
34 1 -7.518e-03 3.529e+00 -3.537e+00 -1.830e-02 -1.809e-02 8.864e-04
96 1 -1.778e+00 -3.549e+00 -1.769e+00 -1.580e-02 -1.412e-02 1.313e-03
60 1 -1.778e+00 -3.549e+00 1.769e+00 -1.580e-02 -1.412e-02 -1.313e-03
105 1 -3.549e+00 -1.778e+00 -1.769e+00 -1.412e-02 -1.580e-02 1.313e-03
69 1 -3.549e+00 -1.778e+00 1.769e+00 -1.412e-02 -1.580e-02 -1.313e-03
85 1 -1.778e+00 -1.778e+00 -3.539e+00 -1.567e-02 -1.567e-02 1.780e-03
63 1 -1.778e+00 -1.778e+00 3.539e+00 -1.567e-02 -1.567e-02 -1.780e-03
42 1 3.522e+00 1.761e+00 -1.761e+00 -9.640e-03 -1.815e-02 -7.453e-03
6 1 3.522e+00 1.761e+00 1.761e+00 -9.640e-03 -1.815e-02 7.453e-03
50 1 1.761e+00 3.522e+00 -1.761e+00 -1.815e-02 -9.640e-03 -7.453e-03
15 1 1.761e+00 3.522e+00 1.761e+00 -1.815e-02 -9.640e-03 7.453e-03
4 1 -1.776e+00 1.761e+00 3.537e+00 -1.830e-02 -1.811e-02 4.616e-04
87 1 1.761e+00 -1.776e+00 -3.537e+00 -1.811e-02 -1.830e-02 -4.616e-04
29 1 -1.776e+00 1.761e+00 -3.537e+00 -1.830e-02 -1.811e-02 -4.616e-04
67 1 1.761e+00 -1.776e+00 3.537e+00 -1.811e-02 -1.830e-02 4.618e-04
13 1 -1.777e+00 3.529e+00 1.768e+00 -1.736e-02 -1.720e-02 3.022e-04
101 1 3.529e+00 -1.777e+00 -1.768e+00 -1.720e-02 -1.736e-02 -3.033e-04
65 1 3.529e+00 -1.777e+00 1.768e+00 -1.720e-02 -1.736e-02 3.027e-04
48 1 -1.777e+00 3.529e+00 -1.768e+00 -1.736e-02 -1.720e-02 -3.033e-04
49 1 0.000e+00 3.522e+00 0.000e+00 -2.568e-02 1.959e-03 4.907e-08
43 1 3.522e+00 9.992e-16 0.000e+00 1.959e-03 -2.568e-02 0.000e+00
31 1 1.761e+00 1.761e+00 -3.549e+00 -1.840e-02 -1.840e-02 1.181e-02
8 1 1.761e+00 1.761e+00 3.549e+00 -1.840e-02 -1.840e-02 -1.181e-02
3 1 -7.518e-03 -7.518e-03 3.537e+00 -1.829e-02 -1.829e-02 1.155e-02
28 1 -7.518e-03 -7.518e-03 -3.537e+00 -1.829e-02 -1.829e-02 -1.155e-02
46 1 -3.549e+00 -1.098e-02 0.000e+00 -2.580e-02 -1.503e-02 0.000e+00
98 1 -1.098e-02 -3.549e+00 0.000e+00 -1.503e-02 -2.580e-02 7.148e-08
39 1 0.000e+00 0.000e+00 0.000e+00 1.735e+00 1.735e+00 1.443e-08
2 1 0.000e+00 1.761e+00 1.761e+00 -2.587e-02 -2.571e-02 -2.342e-04
41 1 1.761e+00 0.000e+00 -1.761e+00 -2.571e-02 -2.587e-02 2.337e-04
5 1 1.761e+00 0.000e+00 1.761e+00 -2.571e-02 -2.587e-02 -2.341e-04
38 1 0.000e+00 1.761e+00 -1.761e+00 -2.587e-02 -2.571e-02 2.346e-04
40 1 -1.788e+00 1.761e+00 0.000e+00 1.429e-03 -2.518e-02 1.071e-08
103 1 1.761e+00 -1.788e+00 -1.776e-15 -2.518e-02 1.429e-03 0.000e+00
1 1 -1.777e+00 -7.518e-03 1.768e+00 -9.850e-03 -1.821e-02 -7.876e-03
97 1 -7.518e-03 -1.777e+00 -1.768e+00 -1.821e-02 -9.849e-03 7.876e-03
37 1 -1.777e+00 -7.518e-03 -1.768e+00 -9.849e-03 -1.821e-02 7.876e-03
61 1 -7.518e-03 -1.777e+00 1.768e+00 -1.821e-02 -9.849e-03 -7.877e-03
99 1 -1.776e+00 -1.776e+00 0.000e+00 -1.094e-02 -1.094e-02 6.099e-08
ITEM: TIMESTEP
0
ITEM: NUMBER OF ATOMS
47
ITEM: BOX BOUNDS xy xz yz pp pp pp
                     0.00000000000000e+00 1.06199999000000e+01 0.00000000000000e+00
0.00000000000000e+00	1.06199999000000e+01	0.00000000000000e+00
0.00000000000000e+00	1.06199999000000e+01	0.00000000000000e+00
ITEM: ATOMS id type x y z DisplacementX DisplacementY DisplacementZ
15 1 0.000e+00 3.522e+00 3.522e+00 1.897e-05 -1.018e-02 -1.017e-02
102 1 1.772e+00 -3.549e+00 1.761e+00 -3.649e-03 -1.435e-02 -1.795e-02
20 1 -1.772e+00 1.761e+00 -3.549e+00 3.642e-03 -1.795e-02 -1.435e-02
22 1 1.772e+00 1.761e+00 -3.549e+00 -3.643e-03 -1.795e-02 -1.436e-02
98 1 -1.772e+00 -3.549e+00 1.761e+00 3.648e-03 -1.436e-02 -1.795e-02
9 1 3.537e+00 -7.518e-03 3.529e+00 -8.881e-04 -1.829e-02 -1.809e-02
48 1 -3.537e+00 3.529e+00 -7.518e-03 9.069e-04 -1.809e-02 -1.829e-02
52 1 3.537e+00 3.529e+00 -7.518e-03 -8.872e-04 -1.809e-02 -1.828e-02
1 1 -3.537e+00 -7.518e-03 3.529e+00 8.764e-04 -1.829e-02 -1.809e-02
76 1 -1.769e+00 -1.778e+00 -3.549e+00 1.319e-03 -1.580e-02 -1.416e-02
78 1 1.769e+00 -1.778e+00 -3.549e+00 -1.314e-03 -1.580e-02 -1.410e-02
84 1 -1.769e+00 -3.549e+00 -1.778e+00 1.319e-03 -1.411e-02 -1.580e-02
86 1 1.769e+00 -3.549e+00 -1.778e+00 -1.316e-03 -1.412e-02 -1.580e-02
85 1 -3.539e+00 -1.778e+00 -1.778e+00 1.773e-03 -1.567e-02 -1.567e-02
89 1 3.539e+00 -1.778e+00 -1.778e+00 -1.770e-03 -1.567e-02 -1.567e-02
49 1 -1.761e+00 3.522e+00 1.761e+00 -7.461e-03 -9.633e-03 -1.820e-02
51 1 1.761e+00 3.522e+00 1.761e+00 7.460e-03 -9.640e-03 -1.816e-02
2 1 -1.761e+00 1.761e+00 3.522e+00 -7.464e-03 -1.817e-02 -9.629e-03
6 1 1.761e+00 1.761e+00 3.522e+00 7.452e-03 -1.817e-02 -9.639e-03
107 1 3.537e+00 -1.776e+00 1.761e+00 4.616e-04 -1.830e-02 -1.813e-02
29 1 -3.537e+00 1.761e+00 -1.776e+00 -4.611e-04 -1.812e-02 -1.828e-02
99 1 -3.537e+00 -1.776e+00 1.761e+00 -4.582e-04 -1.830e-02 -1.810e-02
33 1 3.537e+00 1.761e+00 -1.776e+00 4.587e-04 -1.812e-02 -1.829e-02
65 1 1.768e+00 -1.777e+00 3.529e+00 3.039e-04 -1.735e-02 -1.721e-02
34 1 -1.768e+00 3.529e+00 -1.777e+00 -3.099e-04 -1.721e-02 -1.735e-02
35 1 1.768e+00 3.529e+00 -1.777e+00 3.215e-04 -1.721e-02 -1.735e-02
61 1 -1.768e+00 -1.777e+00 3.529e+00 -3.042e-04 -1.735e-02 -1.719e-02
5 1 0.000e+00 0.000e+00 3.522e+00 1.301e-05 -2.568e-02 1.953e-03
50 1 0.000e+00 3.522e+00 -8.882e-16 -2.193e-05 1.955e-03 -2.568e-02
40 1 -3.549e+00 1.761e+00 1.761e+00 1.181e-02 -1.840e-02 -1.843e-02
47 1 3.549e+00 1.761e+00 1.761e+00 -1.181e-02 -1.841e-02 -1.839e-02
44 1 3.537e+00 -7.518e-03 -7.518e-03 1.156e-02 -1.829e-02 -1.829e-02
37 1 -3.537e+00 -7.518e-03 -7.518e-03 -1.155e-02 -1.828e-02 -1.828e-02
100 1 8.882e-16 -3.549e+00 -1.098e-02 -1.335e-05 -2.578e-02 -1.504e-02
21 1 8.882e-16 -1.098e-02 -3.549e+00 2.163e-06 -1.504e-02 -2.580e-02
41 1 0.000e+00 0.000e+00 0.000e+00 2.094e-06 1.735e+00 1.735e+00
43 1 1.761e+00 9.992e-16 1.761e+00 -2.453e-04 -2.587e-02 -2.572e-02
38 1 -1.761e+00 1.761e+00 0.000e+00 2.584e-04 -2.570e-02 -2.586e-02
42 1 1.761e+00 1.761e+00 0.000e+00 -2.412e-04 -2.571e-02 -2.587e-02
39 1 -1.761e+00 0.000e+00 1.761e+00 2.365e-04 -2.587e-02 -2.571e-02
103 1 0.000e+00 -1.788e+00 1.761e+00 1.217e-06 1.437e-03 -2.517e-02
31 1 8.882e-16 1.761e+00 -1.788e+00 8.258e-06 -2.518e-02 1.420e-03
101 1 1.768e+00 -1.777e+00 -7.518e-03 -7.863e-03 -9.850e-03 -1.822e-02
28 1 -1.768e+00 -7.518e-03 -1.777e+00 7.871e-03 -1.823e-02 -9.847e-03
97 1 -1.768e+00 -1.777e+00 -7.518e-03 7.864e-03 -9.850e-03 -1.820e-02
30 1 1.768e+00 -7.518e-03 -1.777e+00 -7.873e-03 -1.822e-02 -9.843e-03
87 1 0.000e+00 -1.776e+00 -1.776e+00 5.330e-06 -1.094e-02 -1.093e-02
ITEM: TIMESTEP
0
ITEM: NUMBER OF ATOMS
47
ITEM: BOX BOUNDS xy xz yz pp pp pp
                     0.00000000000000e+00 1.06199999000000e+01 0.00000000000000e+00
0.00000000000000e+00	1.06199999000000e+01	0.00000000000000e+00
0.00000000000000e+00	1.06199999000000e+01	0.00000000000000e+00
ITEM: ATOMS id type x y z DisplacementX DisplacementY DisplacementZ
2 1 -3.522e+00 0.000e+00 3.522e+00 1.017e-02 -9.537e-07 -1.018e-02
53 1 3.549e+00 1.772e+00 1.761e+00 1.436e-02 -3.646e-03 -1.797e-02
21 1 -1.761e+00 -1.772e+00 -3.549e+00 1.796e-02 3.677e-03 -1.439e-02
26 1 -1.761e+00 1.772e+00 -3.549e+00 1.796e-02 -3.675e-03 -1.440e-02
46 1 3.549e+00 -1.772e+00 1.761e+00 1.436e-02 3.648e-03 -1.796e-02
56 1 7.518e-03 3.537e+00 3.529e+00 1.829e-02 -8.733e-04 -1.808e-02
97 1 -3.529e+00 -3.537e+00 -7.518e-03 1.808e-02 8.817e-04 -1.829e-02
90 1 -3.529e+00 3.537e+00 -7.518e-03 1.809e-02 -8.838e-04 -1.829e-02
65 1 7.518e-03 -3.537e+00 3.529e+00 1.828e-02 8.674e-04 -1.808e-02
23 1 1.778e+00 -1.769e+00 -3.549e+00 1.581e-02 1.289e-03 -1.419e-02
27 1 1.778e+00 1.769e+00 -3.549e+00 1.582e-02 -1.286e-03 -1.416e-02
32 1 3.549e+00 -1.769e+00 -1.778e+00 1.414e-02 1.310e-03 -1.582e-02
36 1 3.549e+00 1.769e+00 -1.778e+00 1.413e-02 -1.312e-03 -1.582e-02
89 1 1.778e+00 -3.539e+00 -1.778e+00 1.568e-02 1.770e-03 -1.566e-02
83 1 1.778e+00 3.539e+00 -1.778e+00 1.568e-02 -1.785e-03 -1.565e-02
39 1 -3.522e+00 -1.761e+00 1.761e+00 9.635e-03 -7.471e-03 -1.820e-02
49 1 -3.522e+00 1.761e+00 1.761e+00 9.641e-03 7.465e-03 -1.815e-02
5 1 -1.761e+00 -1.761e+00 3.522e+00 1.813e-02 -7.457e-03 -9.644e-03
15 1 -1.761e+00 1.761e+00 3.522e+00 1.814e-02 7.457e-03 -9.644e-03
95 1 1.776e+00 3.537e+00 1.761e+00 1.830e-02 4.599e-04 -1.815e-02
87 1 -1.761e+00 -3.537e+00 -1.776e+00 1.809e-02 -4.663e-04 -1.832e-02
107 1 1.776e+00 -3.537e+00 1.761e+00 1.830e-02 -4.597e-04 -1.812e-02
82 1 -1.761e+00 3.537e+00 -1.776e+00 1.809e-02 4.566e-04 -1.832e-02
17 1 1.777e+00 1.768e+00 3.529e+00 1.736e-02 3.440e-04 -1.719e-02
28 1 -3.529e+00 -1.768e+00 -1.777e+00 1.722e-02 -3.328e-04 -1.734e-02
34 1 -3.529e+00 1.768e+00 -1.777e+00 1.722e-02 3.275e-04 -1.735e-02
9 1 1.777e+00 -1.768e+00 3.529e+00 1.735e-02 -3.357e-04 -1.719e-02
6 1 8.882e-16 0.000e+00 3.522e+00 2.567e-02 5.978e-06 1.948e-03
38 1 -3.522e+00 0.000e+00 0.000e+00 -1.939e-03 -2.861e-06 -2.566e-02
103 1 -1.761e+00 -3.549e+00 1.761e+00 1.840e-02 1.180e-02 -1.843e-02
93 1 -1.761e+00 3.549e+00 1.761e+00 1.840e-02 -1.180e-02 -1.840e-02
92 1 7.518e-03 3.537e+00 -7.518e-03 1.828e-02 1.155e-02 -1.828e-02
101 1 7.518e-03 -3.537e+00 -7.518e-03 1.828e-02 -1.155e-02 -1.828e-02
45 1 3.549e+00 0.000e+00 -1.098e-02 2.577e-02 -2.861e-06 -1.504e-02
22 1 1.098e-02 -8.882e-16 -3.549e+00 1.498e-02 9.537e-07 -2.587e-02
42 1 0.000e+00 0.000e+00 0.000e+00 -1.735e+00 -2.861e-06 1.735e+00
51 1 0.000e+00 1.761e+00 1.761e+00 2.589e-02 -2.360e-04 -2.572e-02
41 1 -1.761e+00 -1.761e+00 0.000e+00 2.572e-02 2.565e-04 -2.584e-02
50 1 -1.761e+00 1.761e+00 -8.882e-16 2.571e-02 -2.517e-04 -2.584e-02
43 1 0.000e+00 -1.761e+00 1.761e+00 2.589e-02 2.346e-04 -2.571e-02
47 1 1.788e+00 0.000e+00 1.761e+00 -1.404e-03 -9.537e-07 -2.517e-02
31 1 -1.761e+00 0.000e+00 -1.788e+00 2.516e-02 6.838e-06 1.409e-03
52 1 1.777e+00 1.768e+00 -7.518e-03 9.837e-03 -7.868e-03 -1.823e-02
30 1 7.518e-03 -1.768e+00 -1.777e+00 1.816e-02 7.832e-03 -9.834e-03
44 1 1.777e+00 -1.768e+00 -7.518e-03 9.841e-03 7.856e-03 -1.823e-02
35 1 7.518e-03 1.768e+00 -1.777e+00 1.817e-02 -7.844e-03 -9.839e-03
33 1 1.776e+00 0.000e+00 -1.776e+00 1.098e-02 1.455e-05 -1.090e-02
ITEM: TIMESTEP
0
ITEM: NUMBER OF ATOMS
47
ITEM: BOX BOUNDS xy xz yz pp pp pp
                     0.00000000000000e+00 1.06199999000000e+01 0.00000000000000e+00
0.00000000000000e+00	1.06199999000000e+01	0.00000000000000e+00
0.00000000000000e+00	1.06199999000000e+01	0.00000000000000e+00
ITEM: ATOMS id type x y z DisplacementX DisplacementY DisplacementZ
49 1 -3.522e+00 3.522e+00 0.000e+00 1.019e-02 -1.019e-02 0.000e+00
45 1 3.549e+00 1.761e+00 -1.772e+00 1.436e-02 -1.796e-02 3.641e-03
64 1 -1.761e+00 -3.549e+00 1.772e+00 1.796e-02 -1.436e-02 -3.642e-03
100 1 -1.761e+00 -3.549e+00 -1.772e+00 1.796e-02 -1.436e-02 3.641e-03
10 1 3.549e+00 1.761e+00 1.772e+00 1.436e-02 -1.796e-02 -3.641e-03
35 1 7.518e-03 3.529e+00 -3.537e+00 1.829e-02 -1.809e-02 8.864e-04
3 1 -3.529e+00 -7.518e-03 3.537e+00 1.809e-02 -1.830e-02 -8.860e-04
28 1 -3.529e+00 -7.518e-03 -3.537e+00 1.809e-02 -1.830e-02 8.860e-04
16 1 7.518e-03 3.529e+00 3.537e+00 1.829e-02 -1.809e-02 -8.867e-04
68 1 1.778e+00 -3.549e+00 1.769e+00 1.580e-02 -1.412e-02 -1.313e-03
104 1 1.778e+00 -3.549e+00 -1.769e+00 1.580e-02 -1.412e-02 1.313e-03
69 1 3.549e+00 -1.778e+00 1.769e+00 1.412e-02 -1.580e-02 -1.313e-03
105 1 3.549e+00 -1.778e+00 -1.769e+00 1.412e-02 -1.580e-02 1.313e-03
71 1 1.778e+00 -1.778e+00 3.539e+00 1.567e-02 -1.567e-02 -1.780e-03
89 1 1.778e+00 -1.778e+00 -3.539e+00 1.567e-02 -1.567e-02 1.780e-03
2 1 -3.522e+00 1.761e+00 1.761e+00 9.640e-03 -1.815e-02 7.453e-03
38 1 -3.522e+00 1.761e+00 -1.761e+00 9.640e-03 -1.815e-02 -7.453e-03
15 1 -1.761e+00 3.522e+00 1.761e+00 1.815e-02 -9.640e-03 7.453e-03
50 1 -1.761e+00 3.522e+00 -1.761e+00 1.815e-02 -9.640e-03 -7.453e-03