ITEM: TIMESTEP
0
ITEM: NUMBER OF ATOMS
66
ITEM: BOX BOUNDS xy xz yz pp pp pp
                     0.00000000000000e+00 1.06199999000000e+01 0.00000000000000e+00
0.00000000000000e+00	1.06199999000000e+01	0.00000000000000e+00
0.00000000000000e+00	1.06199999000000e+01	0.00000000000000e+00
ITEM: ATOMS id type x y z ux uy uz
94 1 0.000e+00 3.522e+00 3.522e+00 -4.768e-05 -1.042e-02 -1.046e-02
78 1 -3.539e+00 -3.549e+00 -8.546e-03 2.615e-03 -1.346e-02 -1.688e-02
2 1 3.539e+00 -8.546e-03 -3.549e+00 -2.525e-03 -1.695e-02 -1.339e-02
76 1 3.539e+00 -3.549e+00 -8.546e-03 -2.574e-03 -1.335e-02 -1.686e-02
6 1 -3.539e+00 -8.546e-03 -3.549e+00 2.635e-03 -1.693e-02 -1.344e-02
69 1 0.000e+00 -3.549e+00 -3.549e+00 -9.251e-05 -1.356e-02 -1.338e-02
105 1 0.000e+00 -3.549e+00 3.532e+00 1.301e-04 -1.286e-02 -2.185e-02
58 1 0.000e+00 3.532e+00 -3.549e+00 8.911e-05 -2.179e-02 -1.300e-02
41 1 -3.537e+00 -7.518e-03 3.529e+00 5.307e-04 -1.827e-02 -1.824e-02
72 1 3.537e+00 3.529e+00 -7.518e-03 -6.099e-04 -1.812e-02 -1.816e-02
73 1 -3.537e+00 3.529e+00 -7.518e-03 7.381e-04 -1.828e-02 -1.823e-02
37 1 3.537e+00 -7.518e-03 3.529e+00 -6.711e-04 -1.807e-02 -1.817e-02
52 1 -1.761e+00 1.761e+00 3.522e+00 -7.546e-03 -1.835e-02 -1.020e-02
48 1 1.761e+00 1.761e+00 3.522e+00 7.528e-03 -1.826e-02 -1.018e-02
81 1 1.761e+00 3.522e+00 1.761e+00 7.506e-03 -1.012e-02 -1.844e-02
83 1 -1.761e+00 3.522e+00 1.761e+00 -7.461e-03 -1.004e-02 -1.842e-02
7 1 -3.539e+00 -1.778e+00 -1.778e+00 1.578e-03 -1.559e-02 -1.549e-02
3 1 3.539e+00 -1.778e+00 -1.778e+00 -1.377e-03 -1.568e-02 -1.551e-02
71 1 -1.769e+00 -3.549e+00 -1.778e+00 1.096e-03 -1.401e-02 -1.557e-02
63 1 1.769e+00 -3.549e+00 -1.778e+00 -9.739e-04 -1.402e-02 -1.553e-02
1 1 1.769e+00 -1.778e+00 -3.549e+00 -1.068e-03 -1.579e-02 -1.391e-02
9 1 -1.769e+00 -1.778e+00 -3.549e+00 1.008e-03 -1.557e-02 -1.391e-02
44 1 -1.768e+00 -1.777e+00 3.529e+00 -1.831e-04 -1.732e-02 -1.761e-02
55 1 1.768e+00 3.529e+00 -1.777e+00 1.913e-04 -1.742e-02 -1.741e-02
59 1 -1.768e+00 3.529e+00 -1.777e+00 -2.317e-04 -1.763e-02 -1.735e-02
36 1 1.768e+00 -1.777e+00 3.529e+00 2.085e-04 -1.703e-02 -1.751e-02
30 1 -3.537e+00 -1.776e+00 1.761e+00 -9.675e-04 -1.810e-02 -1.839e-02
16 1 -3.537e+00 1.761e+00 -1.776e+00 -1.060e-03 -1.852e-02 -1.812e-02
14 1 3.537e+00 1.761e+00 -1.776e+00 8.698e-04 -1.840e-02 -1.803e-02
28 1 3.537e+00 -1.776e+00 1.761e+00 9.532e-04 -1.814e-02 -1.825e-02
89 1 -1.772e+00 -3.549e+00 1.761e+00 3.549e-03 -1.395e-02 -1.826e-02
17 1 -1.772e+00 1.761e+00 -3.549e+00 3.585e-03 -1.819e-02 -1.411e-02
13 1 1.772e+00 1.761e+00 -3.549e+00 -3.431e-03 -1.814e-02 -1.409e-02
85 1 1.772e+00 -3.549e+00 1.761e+00 -3.645e-03 -1.391e-02 -1.803e-02
34 1 3.549e+00 1.761e+00 1.761e+00 -1.148e-02 -1.817e-02 -1.809e-02
35 1 -3.549e+00 1.761e+00 1.761e+00 1.165e-02 -1.804e-02 -1.819e-02
88 1 0.000e+00 5.310e+00 1.761e+00 -4.101e-05 -2.601e-02 -1.506e-02
53 1 0.000e+00 1.761e+00 5.310e+00 -7.153e-05 -1.511e-02 -2.608e-02
31 1 -5.310e+00 -1.098e-02 1.761e+00 4.959e-05 -1.455e-02 -1.462e-02
26 1 -5.310e+00 1.761e+00 -1.098e-02 2.337e-05 -1.454e-02 -1.469e-02
46 1 0.000e+00 -1.776e+00 5.297e+00 2.337e-06 -2.180e-02 -1.333e-02
70 1 0.000e+00 5.297e+00 -1.776e+00 2.908e-05 -1.331e-02 -2.165e-02
21 1 -5.310e+00 -1.778e+00 -8.546e-03 6.247e-05 -1.904e-02 -1.697e-02
8 1 -5.310e+00 -8.546e-03 -1.778e+00 6.104e-05 -1.719e-02 -1.914e-02
79 1 -1.768e+00 5.298e+00 -7.518e-03 -3.217e-03 -1.416e-02 -1.859e-02
47 1 -1.768e+00 -7.518e-03 5.298e+00 -3.389e-03 -1.858e-02 -1.412e-02
39 1 1.768e+00 -7.518e-03 5.298e+00 3.247e-03 -1.847e-02 -1.413e-02
75 1 1.768e+00 5.298e+00 -7.518e-03 3.332e-03 -1.394e-02 -1.834e-02
24 1 0.000e+00 0.000e+00 0.000e+00 2.665e-05 1.734e+00 1.734e+00
45 1 0.000e+00 0.000e+00 3.522e+00 -1.087e-04 -2.590e-02 1.500e-03
74 1 0.000e+00 3.522e+00 0.000e+00 1.024e-04 1.583e-03 -2.599e-02
33 1 -1.761e+00 0.000e+00 1.761e+00 -1.955e-04 -2.601e-02 -2.592e-02
25 1 1.761e+00 1.761e+00 0.000e+00 5.233e-05 -2.583e-02 -2.624e-02
27 1 -1.761e+00 1.761e+00 0.000e+00 -4.768e-05 -2.599e-02 -2.606e-02
29 1 1.761e+00 0.000e+00 1.761e+00 1.004e-04 -2.597e-02 -2.601e-02
20 1 3.537e+00 -7.518e-03 -7.518e-03 1.197e-02 -1.795e-02 -1.792e-02
22 1 -3.537e+00 -7.518e-03 -7.518e-03 -1.184e-02 -1.794e-02 -1.796e-02
10 1 0.000e+00 -1.098e-02 -3.549e+00 1.217e-04 -1.483e-02 -2.555e-02
80 1 0.000e+00 -3.549e+00 -1.098e-02 -1.049e-05 -2.551e-02 -1.477e-02
11 1 0.000e+00 -1.776e+00 -1.776e+00 1.890e-05 -1.071e-02 -1.057e-02
23 1 -1.768e+00 -1.777e+00 -7.518e-03 7.259e-03 -9.710e-03 -1.839e-02
19 1 1.768e+00 -1.777e+00 -7.518e-03 -7.261e-03 -9.696e-03 -1.819e-02
4 1 1.768e+00 -7.518e-03 -1.777e+00 -7.307e-03 -1.837e-02 -9.897e-03
12 1 -1.768e+00 -7.518e-03 -1.777e+00 7.334e-03 -1.827e-02 -9.783e-03
32 1 0.000e+00 -1.788e+00 1.761e+00 -1.249e-04 1.913e-03 -2.620e-02
18 1 1.776e-15 1.761e+00 -1.788e+00 -1.793e-04 -2.607e-02 1.796e-03
ITEM: TIMESTEP
0
ITEM: NUMBER OF ATOMS
66
ITEM: BOX BOUNDS xy xz yz pp pp pp
                     0.00000000000000e+00 1.06199999000000e+01 0.00000000000000e+00
0.00000000000000e+00	1.06199999000000e+01	0.00000000000000e+00
0.00000000000000e+00	1.06199999000000e+01	0.00000000000000e+00
ITEM: ATOMS id type x y z ux uy uz
52 1 -3.522e+00 0.000e+00 3.522e+00 1.022e-02 0.000e+00 -1.022e-02
1 1 8.546e-03 -3.539e+00 -3.549e+00 1.716e-02 3.046e-03 -1.321e-02
77 1 3.549e+00 3.539e+00 -8.546e-03 1.321e-02 -3.046e-03 -1.715e-02
60 1 8.546e-03 3.539e+00 -3.549e+00 1.716e-02 -3.046e-03 -1.321e-02
21 1 3.549e+00 -3.539e+00 -8.546e-03 1.321e-02 3.045e-03 -1.715e-02
15 1 3.549e+00 8.882e-16 -3.549e+00 1.401e-02 9.841e-08 -1.401e-02
17 1 -3.532e+00 0.000e+00 -3.549e+00 2.114e-02 0.000e+00 -1.344e-02
50 1 3.549e+00 0.000e+00 3.532e+00 1.344e-02 4.410e-08 -2.114e-02
23 1 -3.529e+00 -3.537e+00 -7.518e-03 1.812e-02 8.893e-04 -1.830e-02
96 1 7.518e-03 3.537e+00 3.529e+00 1.830e-02 -8.895e-04 -1.812e-02
36 1 7.518e-03 -3.537e+00 3.529e+00 1.830e-02 8.893e-04 -1.812e-02
79 1 -3.529e+00 3.537e+00 -7.518e-03 1.812e-02 -8.888e-04 -1.830e-02
33 1 -3.522e+00 -1.761e+00 1.761e+00 9.659e-03 -7.462e-03 -1.815e-02
83 1 -3.522e+00 1.761e+00 1.761e+00 9.659e-03 7.462e-03 -1.815e-02
94 1 -1.761e+00 1.761e+00 3.522e+00 1.815e-02 7.462e-03 -9.659e-03
45 1 -1.761e+00 -1.761e+00 3.522e+00 1.815e-02 -7.462e-03 -9.660e-03
3 1 1.778e+00 -3.539e+00 -1.778e+00 1.563e-02 1.745e-03 -1.563e-02
62 1 1.778e+00 3.539e+00 -1.778e+00 1.563e-02 -1.746e-03 -1.563e-02
2 1 1.778e+00 -1.769e+00 -3.549e+00 1.582e-02 1.323e-03 -1.411e-02
54 1 1.778e+00 1.769e+00 -3.549e+00 1.582e-02 -1.323e-03 -1.411e-02
57 1 3.549e+00 1.769e+00 -1.778e+00 1.411e-02 -1.323e-03 -1.582e-02
8 1 3.549e+00 -1.769e+00 -1.778e+00 1.411e-02 1.323e-03 -1.582e-02
12 1 -3.529e+00 -1.768e+00 -1.777e+00 1.717e-02 -2.699e-04 -1.732e-02
90 1 1.777e+00 1.768e+00 3.529e+00 1.732e-02 2.687e-04 -1.717e-02
37 1 1.777e+00 -1.768e+00 3.529e+00 1.732e-02 -2.689e-04 -1.717e-02
59 1 -3.529e+00 1.768e+00 -1.777e+00 1.717e-02 2.689e-04 -1.732e-02
11 1 -1.761e+00 -3.537e+00 -1.776e+00 1.812e-02 -4.468e-04 -1.831e-02
28 1 1.776e+00 -3.537e+00 1.761e+00 1.831e-02 -4.468e-04 -1.812e-02
84 1 1.776e+00 3.537e+00 1.761e+00 1.831e-02 4.470e-04 -1.812e-02
70 1 -1.761e+00 3.537e+00 -1.776e+00 1.812e-02 4.473e-04 -1.831e-02
10 1 -1.761e+00 -1.772e+00 -3.549e+00 1.796e-02 3.612e-03 -1.434e-02
31 1 3.549e+00 -1.772e+00 1.761e+00 1.434e-02 3.612e-03 -1.796e-02
82 1 3.549e+00 1.772e+00 1.761e+00 1.434e-02 -3.612e-03 -1.796e-02
58 1 -1.761e+00 1.772e+00 -3.549e+00 1.796e-02 -3.612e-03 -1.434e-02
88 1 -1.761e+00 3.549e+00 1.761e+00 1.841e-02 -1.185e-02 -1.841e-02
32 1 -1.761e+00 -3.549e+00 1.761e+00 1.841e-02 1.185e-02 -1.841e-02
53 1 -1.761e+00 0.000e+00 5.310e+00 1.468e-02 0.000e+00 -2.566e-02
35 1 -5.310e+00 0.000e+00 1.761e+00 2.566e-02 0.000e+00 -1.468e-02
80 1 -1.761e+00 -5.310e+00 -1.098e-02 1.463e-02 0.000e+00 -1.516e-02
85 1 1.098e-02 5.310e+00 1.761e+00 1.516e-02 0.000e+00 -1.463e-02
16 1 -5.297e+00 0.000e+00 -1.776e+00 1.362e-02 1.291e-07 -2.202e-02
49 1 1.776e+00 0.000e+00 5.297e+00 2.202e-02 1.399e-07 -1.362e-02
63 1 8.546e-03 5.310e+00 -1.778e+00 1.689e-02 0.000e+00 -1.900e-02
76 1 1.778e+00 5.310e+00 -8.546e-03 1.900e-02 0.000e+00 -1.689e-02
39 1 7.518e-03 -1.768e+00 5.298e+00 1.839e-02 -3.162e-03 -1.398e-02
22 1 -5.298e+00 -1.768e+00 -7.518e-03 1.398e-02 -3.163e-03 -1.839e-02
73 1 -5.298e+00 1.768e+00 -7.518e-03 1.398e-02 3.162e-03 -1.839e-02
91 1 7.518e-03 1.768e+00 5.298e+00 1.839e-02 3.162e-03 -1.398e-02
25 1 0.000e+00 0.000e+00 0.000e+00 -1.735e+00 0.000e+00 1.735e+00
27 1 -3.522e+00 8.882e-16 0.000e+00 -1.966e-03 1.226e-07 -2.563e-02
48 1 -9.992e-16 0.000e+00 3.522e+00 2.563e-02 2.037e-08 1.966e-03
24 1 -1.761e+00 -1.761e+00 0.000e+00 2.572e-02 2.537e-04 -2.587e-02
81 1 0.000e+00 1.761e+00 1.761e+00 2.587e-02 -2.540e-04 -2.572e-02
29 1 -9.992e-16 -1.761e+00 1.761e+00 2.587e-02 2.546e-04 -2.572e-02
74 1 -1.761e+00 1.761e+00 0.000e+00 2.572e-02 -2.538e-04 -2.587e-02
75 1 7.518e-03 3.537e+00 -7.518e-03 1.824e-02 1.156e-02 -1.824e-02
19 1 7.518e-03 -3.537e+00 -7.518e-03 1.824e-02 -1.156e-02 -1.824e-02
26 1 3.549e+00 0.000e+00 -1.098e-02 2.582e-02 7.810e-08 -1.497e-02
13 1 1.098e-02 0.000e+00 -3.549e+00 1.497e-02 0.000e+00 -2.582e-02
14 1 1.776e+00 0.000e+00 -1.776e+00 1.099e-02 2.142e-08 -1.099e-02
4 1 7.518e-03 -1.768e+00 -1.777e+00 1.821e-02 7.873e-03 -9.873e-03
55 1 7.518e-03 1.768e+00 -1.777e+00 1.821e-02 -7.873e-03 -9.873e-03
72 1 1.777e+00 1.768e+00 -7.518e-03 9.873e-03 -7.873e-03 -1.822e-02
20 1 1.777e+00 -1.768e+00 -7.518e-03 9.874e-03 7.873e-03 -1.822e-02
18 1 -1.761e+00 0.000e+00 -1.788e+00 2.517e-02 2.065e-08 1.452e-03
34 1 1.788e+00 0.000e+00 1.761e+00 -1.451e-03 0.000e+00 -2.517e-02
ITEM: TIMESTEP
0
ITEM: NUMBER OF ATOMS
66
ITEM: BOX BOUNDS xy xz yz pp pp pp
                     0.00000000000000e+00 1.06199999000000e+01 0.00000000000000e+00
0.00000000000000e+00	1.06199999000000e+01	0.00000000000000e+00
0.00000000000000e+00	1.06199999000000e+01	0.00000000000000e+00
ITEM: ATOMS id type x y z ux uy uz
48 1 3.522e+00 -8.882e-16 3.522e+00 -1.047e-02 -3.529e-05 -1.045e-02
77 1 -3.549e+00 3.539e+00 -8.546e-03 -1.319e-02 -3.064e-03 -1.727e-02
9 1 -8.546e-03 -3.539e+00 -3.549e+00 -1.729e-02 2.988e-03 -1.311e-02
21 1 -3.549e+00 -3.539e+00 -8.546e-03 -1.313e-02 2.973e-03 -1.723e-02
68 1 -8.546e-03 3.539e+00 -3.549e+00 -1.725e-02 -3.052e-03 -1.322e-02
15 1 -3.549e+00 0.000e+00 -3.549e+00 -1.386e-02 -3.910e-05 -1.390e-02
50 1 -3.549e+00 -8.882e-16 3.532e+00 -1.340e-02 2.384e-05 -2.113e-02
13 1 3.532e+00 -8.882e-16 -3.549e+00 -2.121e-02 -2.384e-05 -1.332e-02
104 1 -7.518e-03 3.537e+00 3.529e+00 -1.831e-02 -8.934e-04 -1.807e-02
19 1 3.529e+00 -3.537e+00 -7.518e-03 -1.801e-02 8.802e-04 -1.834e-02
75 1 3.529e+00 3.537e+00 -7.518e-03 -1.806e-02 -8.454e-04 -1.829e-02
44 1 -7.518e-03 -3.537e+00 3.529e+00 -1.831e-02 8.993e-04 -1.805e-02
94 1 1.761e+00 1.761e+00 3.522e+00 -1.824e-02 7.384e-03 -9.736e-03
45 1 1.761e+00 -1.761e+00 3.522e+00 -1.826e-02 -7.402e-03 -9.699e-03
29 1 3.522e+00 -1.761e+00 1.761e+00 -9.720e-03 -7.453e-03 -1.819e-02
81 1 3.522e+00 1.761e+00 1.761e+00 -9.695e-03 7.404e-03 -1.819e-02
66 1 -1.778e+00 3.539e+00 -1.778e+00 -1.561e-02 -1.748e-03 -1.565e-02
7 1 -1.778e+00 -3.539e+00 -1.778e+00 -1.563e-02 1.813e-03 -1.561e-02
57 1 -3.549e+00 1.769e+00 -1.778e+00 -1.411e-02 -1.288e-03 -1.572e-02
8 1 -3.549e+00 -1.769e+00 -1.778e+00 -1.411e-02 1.258e-03 -1.582e-02
6 1 -1.778e+00 -1.769e+00 -3.549e+00 -1.572e-02 1.312e-03 -1.406e-02
56 1 -1.778e+00 1.769e+00 -3.549e+00 -1.578e-02 -1.348e-03 -1.406e-02
92 1 -1.777e+00 1.768e+00 3.529e+00 -1.737e-02 1.885e-04 -1.718e-02
4 1 3.529e+00 -1.768e+00 -1.777e+00 -1.719e-02 -8.583e-05 -1.740e-02
55 1 3.529e+00 1.768e+00 -1.777e+00 -1.718e-02 1.639e-04 -1.732e-02
41 1 -1.777e+00 -1.768e+00 3.529e+00 -1.728e-02 -2.108e-04 -1.718e-02
86 1 -1.776e+00 3.537e+00 1.761e+00 -1.831e-02 4.246e-04 -1.814e-02
70 1 1.761e+00 3.537e+00 -1.776e+00 -1.813e-02 4.718e-04 -1.838e-02
11 1 1.761e+00 -3.537e+00 -1.776e+00 -1.809e-02 -4.187e-04 -1.831e-02
30 1 -1.776e+00 -3.537e+00 1.761e+00 -1.833e-02 -5.188e-04 -1.809e-02
82 1 -3.549e+00 1.772e+00 1.761e+00 -1.439e-02 -3.620e-03 -1.812e-02
58 1 1.761e+00 1.772e+00 -3.549e+00 -1.810e-02 -3.608e-03 -1.431e-02
10 1 1.761e+00 -1.772e+00 -3.549e+00 -1.800e-02 3.686e-03 -1.423e-02
31 1 -3.549e+00 -1.772e+00 1.761e+00 -1.428e-02 3.635e-03 -1.786e-02
32 1 1.761e+00 -3.549e+00 1.761e+00 -1.841e-02 1.178e-02 -1.840e-02
88 1 1.761e+00 3.549e+00 1.761e+00 -1.839e-02 -1.169e-02 -1.824e-02
34 1 5.310e+00 -8.882e-16 1.761e+00 -2.556e-02 4.673e-05 -1.460e-02
53 1 1.761e+00 -8.882e-16 5.310e+00 -1.472e-02 8.869e-05 -2.554e-02
89 1 -1.098e-02 5.310e+00 1.761e+00 -1.512e-02 1.955e-05 -1.465e-02
80 1 1.761e+00 -5.310e+00 -1.098e-02 -1.474e-02 3.576e-05 -1.518e-02
51 1 -1.776e+00 -8.882e-16 5.297e+00 -2.192e-02 -8.583e-06 -1.352e-02
14 1 5.297e+00 -8.882e-16 -1.776e+00 -1.351e-02 3.529e-05 -2.196e-02
78 1 -1.778e+00 5.310e+00 -8.546e-03 -1.899e-02 -1.383e-05 -1.697e-02
71 1 -8.546e-03 -5.310e+00 -1.778e+00 -1.688e-02 -4.387e-05 -1.900e-02
72 1 5.298e+00 1.768e+00 -7.518e-03 -1.395e-02 3.203e-03 -1.840e-02
95 1 -7.518e-03 1.768e+00 5.298e+00 -1.841e-02 3.167e-03 -1.401e-02
47 1 -7.518e-03 -1.768e+00 5.298e+00 -1.841e-02 -3.128e-03 -1.399e-02
20 1 5.298e+00 -1.768e+00 -7.518e-03 -1.399e-02 -3.200e-03 -1.834e-02
27 1 0.000e+00 0.000e+00 0.000e+00 1.735e+00 -6.008e-05 1.735e+00
52 1 0.000e+00 -8.882e-16 3.522e+00 -2.551e-02 3.433e-05 1.914e-03
25 1 3.522e+00 -8.882e-16 0.000e+00 1.949e-03 2.003e-05 -2.559e-02
83 1 0.000e+00 1.761e+00 1.761e+00 -2.589e-02 -8.655e-05 -2.569e-02
24 1 1.761e+00 -1.761e+00 0.000e+00 -2.568e-02 4.292e-05 -2.589e-02
74 1 1.761e+00 1.761e+00 0.000e+00 -2.567e-02 -3.338e-05 -2.585e-02
33 1 -8.882e-16 -1.761e+00 1.761e+00 -2.594e-02 4.292e-05 -2.570e-02
23 1 -7.518e-03 -3.537e+00 -7.518e-03 -1.838e-02 -1.158e-02 -1.836e-02
79 1 -7.518e-03 3.537e+00 -7.518e-03 -1.830e-02 1.158e-02 -1.831e-02
17 1 -1.098e-02 -8.882e-16 -3.549e+00 -1.485e-02 1.240e-05 -2.576e-02
26 1 -3.549e+00 -8.882e-16 -1.098e-02 -2.590e-02 4.387e-05 -1.492e-02
16 1 -1.776e+00 -8.882e-16 -1.776e+00 -1.097e-02 -1.431e-05 -1.091e-02
73 1 -1.777e+00 1.768e+00 -7.518e-03 -9.902e-03 -7.909e-03 -1.819e-02
22 1 -1.777e+00 -1.768e+00 -7.518e-03 -9.834e-03 7.898e-03 -1.817e-02
12 1 -7.518e-03 -1.768e+00 -1.777e+00 -1.816e-02 7.964e-03 -9.920e-03
59 1 -7.518e-03 1.768e+00 -1.777e+00 -1.816e-02 -7.841e-03 -9.843e-03
35 1 -1.788e+00 -8.882e-16 1.761e+00 1.532e-03 3.052e-05 -2.520e-02
18 1 1.761e+00 -8.882e-16 -1.788e+00 -2.527e-02 -7.343e-05 1.481e-03
ITEM: TIMESTEP
0
ITEM: NUMBER OF ATOMS
66
ITEM: BOX BOUNDS xy xz yz pp pp pp
                     0.00000000000000e+00 1.06199999000000e+01 0.00000000000000e+00
0.00000000000000e+00	1.06199999000000e+01	0.00000000000000e+00
0.00000000000000e+00	1.06199999000000e+01	0.00000000000000e+00
ITEM: ATOMS id type x y z ux uy uz
83 1 -3.522e+00 3.522e+00 -8.882e-16 1.056e-02 -1.051e-02 -1.621e-05
99 1 8.546e-03 -3.549e+00 3.539e+00 1.708e-02 -1.329e-02 -2.981e-03
8 1 3.549e+00 -8.546e-03 -3.539e+00 1.323e-02 -1.719e-02 3.063e-03
63 1 8.546e-03 -3.549e+00 -3.539e+00 1.727e-02 -1.324e-02 2.985e-03
43 1 3.549e+00 -8.546e-03 3.539e+00 1.326e-02 -1.728e-02 -3.028e-03
87 1 3.549e+00 -3.549e+00 0.000e+00 1.371e-02 -1.383e-02 -1.431e-05
89 1 -3.532e+00 -3.549e+00 -8.882e-16 2.106e-02 -1.327e-02 8.202e-05
82 1 3.549e+00 3.532e+00 0.000e+00 1.333e-02 -2.111e-02 3.094e-05
47 1 -3.529e+00 -7.518e-03 3.537e+00 1.792e-02 -1.827e-02 -7.753e-04
55 1 7.518e-03 3.529e+00 -3.537e+00 1.832e-02 -1.811e-02 7.863e-04
91 1 7.518e-03 3.529e+00 3.537e+00 1.836e-02 -1.795e-02 -7.339e-04
12 1 -3.529e+00 -7.518e-03 -3.537e+00 1.799e-02 -1.834e-02 7.563e-04
52 1 -3.522e+00 1.761e+00 1.761e+00 9.837e-03 -1.847e-02 7.366e-03
27 1 -3.522e+00 1.761e+00 -1.761e+00 9.822e-03 -1.844e-02 -7.446e-03
74 1 -1.761e+00 3.522e+00 -1.761e+00 1.833e-02 -9.771e-03 -7.353e-03
94 1 -1.761e+00 3.522e+00 1.761e+00 1.839e-02 -9.775e-03 7.508e-03
38 1 1.778e+00 -1.778e+00 3.539e+00 1.565e-02 -1.573e-02 -1.811e-03
3 1 1.778e+00 -1.778e+00 -3.539e+00 1.569e-02 -1.562e-02 1.730e-03
97 1 1.778e+00 -3.549e+00 1.769e+00 1.565e-02 -1.413e-02 -1.384e-03
76 1 1.778e+00 -3.549e+00 -1.769e+00 1.577e-02 -1.411e-02 1.238e-03
21 1 3.549e+00 -1.778e+00 -1.769e+00 1.408e-02 -1.563e-02 1.326e-03
40 1 3.549e+00 -1.778e+00 1.769e+00 1.412e-02 -1.568e-02 -1.319e-03
44 1 -3.529e+00 -1.777e+00 1.768e+00 1.709e-02 -1.730e-02 2.798e-04
72 1 1.777e+00 3.529e+00 -1.768e+00 1.723e-02 -1.716e-02 -2.117e-04
90 1 1.777e+00 3.529e+00 1.768e+00 1.729e-02 -1.712e-02 1.659e-04
23 1 -3.529e+00 -1.777e+00 -1.768e+00 1.705e-02 -1.737e-02 -3.595e-04
46 1 -1.761e+00 -1.776e+00 3.537e+00 1.799e-02 -1.845e-02 7.513e-04
49 1 1.776e+00 1.761e+00 3.537e+00 1.853e-02 -1.798e-02 7.257e-04
14 1 1.776e+00 1.761e+00 -3.537e+00 1.836e-02 -1.804e-02 -6.070e-04
11 1 -1.761e+00 -1.776e+00 -3.537e+00 1.807e-02 -1.842e-02 -7.138e-04
105 1 -1.761e+00 -3.549e+00 1.772e+00 1.799e-02 -1.425e-02 -3.618e-03
50 1 3.549e+00 1.761e+00 1.772e+00 1.414e-02 -1.802e-02 -3.633e-03
26 1 3.549e+00 1.761e+00 -1.772e+00 1.434e-02 -1.798e-02 3.582e-03
80 1 -1.761e+00 -3.549e+00 -1.772e+00 1.816e-02 -1.417e-02 3.573e-03
18 1 -1.761e+00 1.761e+00 -3.549e+00 1.841e-02 -1.841e-02 1.162e-02
53 1 -1.761e+00 1.761e+00 3.549e+00 1.841e-02 -1.835e-02 -1.157e-02
88 1 -1.761e+00 5.310e+00 0.000e+00 1.468e-02 -2.555e-02 -4.101e-05
35 1 -5.310e+00 1.761e+00 0.000e+00 2.567e-02 -1.464e-02 -1.049e-05
10 1 -1.761e+00 -1.098e-02 5.310e+00 1.474e-02 -1.511e-02 -2.146e-05
13 1 1.098e-02 1.761e+00 5.310e+00 1.529e-02 -1.470e-02 -7.343e-05
30 1 -5.297e+00 -1.776e+00 0.000e+00 1.345e-02 -2.178e-02 0.000e+00
84 1 1.776e+00 5.297e+00 0.000e+00 2.179e-02 -1.357e-02 -2.289e-05
1 1 8.546e-03 -1.778e+00 5.310e+00 1.702e-02 -1.915e-02 2.480e-05
2 1 1.778e+00 -8.546e-03 5.310e+00 1.915e-02 -1.708e-02 3.290e-05
96 1 7.518e-03 5.298e+00 1.768e+00 1.828e-02 -1.396e-02 3.234e-03
41 1 -5.298e+00 -7.518e-03 1.768e+00 1.396e-02 -1.810e-02 3.214e-03
22 1 -5.298e+00 -7.518e-03 -1.768e+00 1.402e-02 -1.822e-02 -3.212e-03
75 1 7.518e-03 5.298e+00 -1.768e+00 1.828e-02 -1.408e-02 -3.153e-03
29 1 0.000e+00 0.000e+00 0.000e+00 -1.735e+00 1.735e+00 6.520e-05
33 1 -3.522e+00 0.000e+00 -8.882e-16 -1.875e-03 -2.588e-02 -3.433e-05
81 1 9.992e-16 3.522e+00 0.000e+00 2.568e-02 1.782e-03 1.261e-04
45 1 -1.761e+00 0.000e+00 1.761e+00 2.589e-02 -2.583e-02 2.429e-04
25 1 9.992e-16 1.761e+00 -1.761e+00 2.557e-02 -2.588e-02 -8.678e-05
48 1 0.000e+00 1.761e+00 1.761e+00 2.582e-02 -2.578e-02 3.220e-04
24 1 -1.761e+00 0.000e+00 -1.761e+00 2.572e-02 -2.593e-02 -1.860e-04
4 1 7.518e-03 -7.518e-03 -3.537e+00 1.838e-02 -1.829e-02 -1.179e-02
39 1 7.518e-03 -7.518e-03 3.537e+00 1.840e-02 -1.837e-02 1.180e-02
31 1 3.549e+00 -1.098e-02 0.000e+00 2.581e-02 -1.485e-02 4.192e-05
85 1 1.098e-02 -3.549e+00 0.000e+00 1.490e-02 -2.582e-02 -4.482e-05
28 1 1.776e+00 -1.776e+00 0.000e+00 1.085e-02 -1.079e-02 3.657e-05
36 1 7.518e-03 -1.777e+00 1.768e+00 1.818e-02 -9.925e-03 -7.771e-03
19 1 7.518e-03 -1.777e+00 -1.768e+00 1.817e-02 -9.850e-03 7.773e-03
20 1 1.777e+00 -7.518e-03 -1.768e+00 9.817e-03 -1.819e-02 7.724e-03
37 1 1.777e+00 -7.518e-03 1.768e+00 9.840e-03 -1.817e-02 -7.694e-03
32 1 -1.761e+00 -1.788e+00 0.000e+00 2.533e-02 1.789e-03 -5.150e-05
34 1 1.788e+00 1.761e+00 0.000e+00 -2.028e-03 -2.545e-02 1.341e-04
ITEM: TIMESTEP
0
ITEM: NUMBER OF ATOMS
66
ITEM: BOX BOUNDS xy xz yz pp pp pp
                     0.00000000000000e+00 1.06199999000000e+01 0.00000000000000e+00
0.00000000000000e+00	1.06199999000000e+01	0.00000000000000e+00
0.00000000000000e+00	1.06199999000000e+01	0.00000000000000e+00
ITEM: ATOMS id type x y z ux uy uz
81 1 3.522e+00 3.522e+00 8.882e-16 -1.044e-02 -1.043e-02 3.656e-05
107 1 -8.546e-03 -3.549e+00 3.539e+00 -1.723e-02 -1.315e-02 -2.997e-03
8 1 -3.549e+00 -8.546e-03 -3.539e+00 -1.324e-02 -1.719e-02 3.048e-03
71 1 -8.546e-03 -3.549e+00 -3.539e+00 -1.721e-02 -1.324e-02 3.048e-03
43 1 -3.549e+00 -8.546e-03 3.539e+00 -1.311e-02 -1.723e-02 -3.040e-03
87 1 -3.549e+00 -3.549e+00 8.882e-16 -1.390e-02 -1.390e-02 4.821e-05
85 1 3.532e+00 -3.549e+00 8.882e-16 -2.104e-02 -1.342e-02 -4.101e-05
82 1 -3.549e+00 3.532e+00 8.882e-16 -1.336e-02 -2.122e-02 5.518e-05
39 1 3.529e+00 -7.518e-03 3.537e+00 -1.808e-02 -1.833e-02 -8.874e-04
59 1 -7.518e-03 3.529e+00 -3.537e+00 -1.831e-02 -1.799e-02 8.593e-04
95 1 -7.518e-03 3.529e+00 3.537e+00 -1.838e-02 -1.800e-02 -8.414e-04
4 1 3.529e+00 -7.518e-03 -3.537e+00 -1.806e-02 -1.834e-02 8.407e-04
48 1 3.522e+00 1.761e+00 1.761e+00 -9.771e-03 -1.820e-02 7.422e-03
25 1 3.522e+00 1.761e+00 -1.761e+00 -9.701e-03 -1.826e-02 -7.395e-03
74 1 1.761e+00 3.522e+00 -1.761e+00 -1.811e-02 -9.687e-03 -7.442e-03
94 1 1.761e+00 3.522e+00 1.761e+00 -1.826e-02 -9.707e-03 7.448e-03
42 1 -1.778e+00 -1.778e+00 3.539e+00 -1.562e-02 -1.566e-02 -1.831e-03
7 1 -1.778e+00 -1.778e+00 -3.539e+00 -1.567e-02 -1.567e-02 1.728e-03
101 1 -1.778e+00 -3.549e+00 1.769e+00 -1.585e-02 -1.405e-02 -1.226e-03
78 1 -1.778e+00 -3.549e+00 -1.769e+00 -1.566e-02 -1.414e-02 1.265e-03
21 1 -3.549e+00 -1.778e+00 -1.769e+00 -1.403e-02 -1.581e-02 1.280e-03
40 1 -3.549e+00 -1.778e+00 1.769e+00 -1.409e-02 -1.577e-02 -1.304e-03
36 1 3.529e+00 -1.777e+00 1.768e+00 -1.707e-02 -1.733e-02 2.102e-04
73 1 -1.777e+00 3.529e+00 -1.768e+00 -1.744e-02 -1.715e-02 -1.755e-04
92 1 -1.777e+00 3.529e+00 1.768e+00 -1.732e-02 -1.721e-02 1.006e-04
19 1 3.529e+00 -1.777e+00 -1.768e+00 -1.720e-02 -1.734e-02 -1.993e-04
46 1 1.761e+00 -1.776e+00 3.537e+00 -1.806e-02 -1.834e-02 5.202e-04
51 1 -1.776e+00 1.761e+00 3.537e+00 -1.831e-02 -1.808e-02 4.416e-04
16 1 -1.776e+00 1.761e+00 -3.537e+00 -1.852e-02 -1.807e-02 -4.497e-04
11 1 1.761e+00 -1.776e+00 -3.537e+00 -1.815e-02 -1.833e-02 -4.311e-04
105 1 1.761e+00 -3.549e+00 1.772e+00 -1.786e-02 -1.431e-02 -3.667e-03
50 1 -3.549e+00 1.761e+00 1.772e+00 -1.419e-02 -1.796e-02 -3.725e-03
26 1 -3.549e+00 1.761e+00 -1.772e+00 -1.433e-02 -1.802e-02 3.603e-03
80 1 1.761e+00 -3.549e+00 -1.772e+00 -1.811e-02 -1.435e-02 3.611e-03
18 1 1.761e+00 1.761e+00 -3.549e+00 -1.824e-02 -1.841e-02 1.167e-02
53 1 1.761e+00 1.761e+00 3.549e+00 -1.844e-02 -1.837e-02 -1.173e-02
88 1 1.761e+00 5.310e+00 8.882e-16 -1.459e-02 -2.559e-02 -5.722e-06
34 1 5.310e+00 1.761e+00 8.882e-16 -2.554e-02 -1.466e-02 -1.526e-05
10 1 1.761e+00 -1.098e-02 -5.310e+00 -1.465e-02 -1.510e-02 -4.768e-07
17 1 -1.098e-02 1.761e+00 -5.310e+00 -1.513e-02 -1.468e-02 -1.764e-05
28 1 5.297e+00 -1.776e+00 8.882e-16 -1.351e-02 -2.192e-02 -2.003e-05
86 1 -1.776e+00 5.297e+00 0.000e+00 -2.195e-02 -1.353e-02 2.074e-05
9 1 -8.546e-03 -1.778e+00 -5.310e+00 -1.699e-02 -1.899e-02 -1.240e-05
6 1 -1.778e+00 -8.546e-03 -5.310e+00 -1.908e-02 -1.688e-02 5.484e-05
104 1 -7.518e-03 5.298e+00 1.768e+00 -1.838e-02 -1.395e-02 3.237e-03
37 1 5.298e+00 -7.518e-03 1.768e+00 -1.400e-02 -1.841e-02 3.151e-03
20 1 5.298e+00 -7.518e-03 -1.768e+00 -1.398e-02 -1.844e-02 -3.132e-03
79 1 -7.518e-03 5.298e+00 -1.768e+00 -1.838e-02 -1.401e-02 -3.142e-03
33 1 0.000e+00 0.000e+00 0.000e+00 1.735e+00 1.735e+00 3.157e-05
29 1 3.522e+00 0.000e+00 8.882e-16 1.876e-03 -2.554e-02 -4.768e-06
83 1 8.882e-16 3.522e+00 0.000e+00 -2.559e-02 1.965e-03 -4.482e-05
45 1 1.761e+00 0.000e+00 1.761e+00 -2.570e-02 -2.593e-02 -2.646e-05
27 1 8.882e-16 1.761e+00 -1.761e+00 -2.583e-02 -2.561e-02 3.815e-06
52 1 8.882e-16 1.761e+00 1.761e+00 -2.584e-02 -2.573e-02 -5.281e-05
24 1 1.761e+00 0.000e+00 -1.761e+00 -2.571e-02 -2.588e-02 8.869e-05
12 1 -7.518e-03 -7.518e-03 -3.537e+00 -1.830e-02 -1.837e-02 -1.160e-02
47 1 -7.518e-03 -7.518e-03 3.537e+00 -1.837e-02 -1.838e-02 1.164e-02
31 1 -3.549e+00 -1.098e-02 8.882e-16 -2.579e-02 -1.485e-02 3.958e-05
89 1 -1.098e-02 -3.549e+00 0.000e+00 -1.489e-02 -2.585e-02 -1.621e-05
30 1 -1.776e+00 -1.776e+00 8.882e-16 -1.097e-02 -1.098e-02 -1.907e-06
44 1 -7.518e-03 -1.777e+00 1.768e+00 -1.822e-02 -9.864e-03 -7.871e-03
23 1 -7.518e-03 -1.777e+00 -1.768e+00 -1.822e-02 -9.890e-03 7.927e-03
22 1 -1.777e+00 -7.518e-03 -1.768e+00 -9.907e-03 -1.818e-02 7.807e-03
41 1 -1.777e+00 -7.518e-03 1.768e+00 -9.868e-03 -1.816e-02 -7.947e-03
32 1 1.761e+00 -1.788e+00 8.882e-16 -2.517e-02 1.545e-03 -1.144e-05
35 1 -1.788e+00 1.761e+00 8.882e-16 1.543e-03 -2.527e-02 2.503e-05
ITEM: TIMESTEP
0
ITEM: NUMBER OF ATOMS
66
ITEM: BOX BOUNDS xy xz yz pp pp pp
                     0.00000000000000e+00 1.06199999000000e+01 0.00000000000000e+00
0.00000000000000e+00	1.06199999000000e+01	0.00000000000000e+00
0.00000000000000e+00	1.06199999000000e+01	0.00000000000000e+00
ITEM: ATOMS id type x y z ux uy uz
74 1 0.000e+00 3.522e+00 -3.522e+00 2.990e-05 -1.035e-02 1.033e-02
101 1 -3.539e+00 -3.549e+00 8.546e-03 3.039e-03 -1.324e-02 1.721e-02
2 1 3.539e+00 -8.546e-03 3.549e+00 -3.082e-03 -1.715e-02 1.326e-02
97 1 3.539e+00 -3.549e+00 8.546e-03 -2.984e-03 -1.319e-02 1.701e-02
6 1 -3.539e+00 -8.546e-03 3.549e+00 3.099e-03 -1.712e-02 1.323e-02
69 1 0.000e+00 -3.549e+00 3.549e+00 -1.717e-05 -1.399e-02 1.404e-02
80 1 0.000e+00 -3.549e+00 -3.532e+00 7.588e-06 -1.335e-02 2.115e-02
58 1 0.000e+00 3.532e+00 3.549e+00 -6.866e-05 -2.120e-02 1.338e-02
22 1 -3.537e+00 -7.518e-03 -3.529e+00 7.777e-04 -1.833e-02 1.807e-02
90 1 3.537e+00 3.529e+00 7.518e-03 -8.187e-04 -1.807e-02 1.834e-02
92 1 -3.537e+00 3.529e+00 7.518e-03 8.430e-04 -1.807e-02 1.819e-02
20 1 3.537e+00 -7.518e-03 -3.529e+00 -8.216e-04 -1.827e-02 1.805e-02
27 1 -1.761e+00 1.761e+00 -3.522e+00 -7.443e-03 -1.828e-02 9.766e-03
25 1 1.761e+00 1.761e+00 -3.522e+00 7.511e-03 -1.833e-02 9.736e-03
81 1 1.761e+00 3.522e+00 -1.761e+00 7.549e-03 -9.737e-03 1.825e-02
83 1 -1.761e+00 3.522e+00 -1.761e+00 -7.352e-03 -9.824e-03 1.833e-02
42 1 -3.539e+00 -1.778e+00 1.778e+00 1.686e-03 -1.561e-02 1.570e-02
38 1 3.539e+00 -1.778e+00 1.778e+00 -1.751e-03 -1.561e-02 1.562e-02
107 1 -1.769e+00 -3.549e+00 1.778e+00 1.332e-03 -1.414e-02 1.586e-02
99 1 1.769e+00 -3.549e+00 1.778e+00 -1.371e-03 -1.410e-02 1.579e-02
1 1 1.769e+00 -1.778e+00 3.549e+00 -1.365e-03 -1.575e-02 1.416e-02
9 1 -1.769e+00 -1.778e+00 3.549e+00 1.371e-03 -1.578e-02 1.414e-02
23 1 -1.768e+00 -1.777e+00 -3.529e+00 -3.233e-04 -1.734e-02 1.712e-02
91 1 1.768e+00 3.529e+00 1.777e+00 3.109e-04 -1.709e-02 1.733e-02
95 1 -1.768e+00 3.529e+00 1.777e+00 -2.518e-04 -1.714e-02 1.727e-02
19 1 1.768e+00 -1.777e+00 -3.529e+00 2.991e-04 -1.729e-02 1.719e-02
30 1 -3.537e+00 -1.776e+00 -1.761e+00 -5.636e-04 -1.838e-02 1.806e-02
51 1 -3.537e+00 1.761e+00 1.776e+00 -6.266e-04 -1.812e-02 1.841e-02
49 1 3.537e+00 1.761e+00 1.776e+00 5.758e-04 -1.812e-02 1.847e-02
28 1 3.537e+00 -1.776e+00 -1.761e+00 6.075e-04 -1.839e-02 1.806e-02
89 1 -1.772e+00 -3.549e+00 -1.761e+00 3.604e-03 -1.427e-02 1.795e-02
17 1 -1.772e+00 1.761e+00 3.549e+00 3.620e-03 -1.795e-02 1.427e-02
13 1 1.772e+00 1.761e+00 3.549e+00 -3.674e-03 -1.798e-02 1.429e-02
85 1 1.772e+00 -3.549e+00 -1.761e+00 -3.680e-03 -1.427e-02 1.790e-02
34 1 3.549e+00 1.761e+00 -1.761e+00 -1.172e-02 -1.839e-02 1.842e-02
35 1 -3.549e+00 1.761e+00 -1.761e+00 1.179e-02 -1.839e-02 1.839e-02
88 1 0.000e+00 5.310e+00 -1.761e+00 -8.583e-06 -2.570e-02 1.467e-02
18 1 1.776e-15 1.761e+00 -5.310e+00 -5.341e-05 -1.473e-02 2.568e-02
31 1 -5.310e+00 -1.098e-02 -1.761e+00 -3.910e-05 -1.509e-02 1.458e-02
50 1 -5.310e+00 1.761e+00 1.098e-02 -5.913e-05 -1.459e-02 1.516e-02
11 1 0.000e+00 -1.776e+00 -5.297e+00 3.361e-05 -2.196e-02 1.356e-02
106 1 0.000e+00 5.297e+00 1.776e+00 5.597e-05 -1.360e-02 2.194e-02
40 1 -5.310e+00 -1.778e+00 8.546e-03 -4.292e-06 -1.907e-02 1.691e-02
43 1 -5.310e+00 -8.546e-03 1.778e+00 -2.384e-06 -1.694e-02 1.908e-02
104 1 -1.768e+00 5.298e+00 7.518e-03 -3.123e-03 -1.398e-02 1.837e-02
12 1 -1.768e+00 -7.518e-03 -5.298e+00 -3.151e-03 -1.832e-02 1.399e-02
4 1 1.768e+00 -7.518e-03 -5.298e+00 3.078e-03 -1.833e-02 1.396e-02
96 1 1.768e+00 5.298e+00 7.518e-03 3.139e-03 -1.397e-02 1.835e-02
45 1 0.000e+00 0.000e+00 0.000e+00 -1.097e-04 1.735e+00 -1.735e+00
24 1 0.000e+00 0.000e+00 -3.522e+00 2.462e-05 -2.571e-02 -1.911e-03
94 1 0.000e+00 3.522e+00 0.000e+00 1.322e-05 1.863e-03 2.563e-02
33 1 -1.761e+00 0.000e+00 -1.761e+00 1.202e-04 -2.587e-02 2.573e-02
48 1 1.761e+00 1.761e+00 0.000e+00 -1.122e-04 -2.575e-02 2.583e-02
52 1 -1.761e+00 1.761e+00 0.000e+00 3.061e-04 -2.584e-02 2.567e-02
29 1 1.761e+00 0.000e+00 -1.761e+00 -1.211e-04 -2.581e-02 2.581e-02
37 1 3.537e+00 -7.518e-03 7.518e-03 1.174e-02 -1.826e-02 1.834e-02
41 1 -3.537e+00 -7.518e-03 7.518e-03 -1.175e-02 -1.833e-02 1.823e-02
10 1 0.000e+00 -1.098e-02 3.549e+00 -4.196e-05 -1.484e-02 2.580e-02
105 1 0.000e+00 -3.549e+00 1.098e-02 -2.193e-05 -2.582e-02 1.496e-02
46 1 0.000e+00 -1.776e+00 1.776e+00 4.613e-05 -1.092e-02 1.090e-02
44 1 -1.768e+00 -1.777e+00 7.518e-03 7.755e-03 -9.864e-03 1.818e-02
36 1 1.768e+00 -1.777e+00 7.518e-03 -7.844e-03 -9.840e-03 1.815e-02
39 1 1.768e+00 -7.518e-03 1.777e+00 -7.855e-03 -1.826e-02 9.847e-03
47 1 -1.768e+00 -7.518e-03 1.777e+00 7.877e-03 -1.828e-02 9.907e-03
32 1 0.000e+00 -1.788e+00 -1.761e+00 -6.294e-05 1.598e-03 2.528e-02
53 1 0.000e+00 1.761e+00 1.788e+00 3.805e-05 -2.518e-02 -1.610e-03
ITEM: TIMESTEP
0
ITEM: NUMBER OF ATOMS
66
ITEM: BOX BOUNDS xy xz yz pp pp pp
                     0.00000000000000e+00 1.06199999000000e+01 0.00000000000000e+00
0.00000000000000e+00	1.06199999000000e+01	0.00000000000000e+00
0.00000000000000e+00	1.06199999000000e+01	0.00000000000000e+00
ITEM: ATOMS id type x y z ux uy uz
27 1 -3.522e+00 8.882e-16 -3.522e+00 1.036e-02 3.102e-05 1.036e-02
1 1 8.546e-03 -3.539e+00 3.549e+00 1.716e-02 3.054e-03 1.328e-02
100 1 3.549e+00 3.539e+00 8.546e-03 1.322e-02 -3.102e-03 1.712e-02
60 1 8.546e-03 3.539e+00 3.549e+00 1.712e-02 -3.064e-03 1.325e-02
40 1 3.549e+00 -3.539e+00 8.546e-03 1.324e-02 3.046e-03 1.715e-02
15 1 3.549e+00 8.882e-16 3.549e+00 1.400e-02 6.542e-05 1.402e-02
17 1 -3.532e+00 0.000e+00 3.549e+00 2.115e-02 -7.629e-06 1.335e-02
26 1 3.549e+00 0.000e+00 -3.532e+00 1.338e-02 2.403e-05 2.113e-02
44 1 -3.529e+00 -3.537e+00 7.518e-03 1.807e-02 8.001e-04 1.830e-02
75 1 7.518e-03 3.537e+00 -3.529e+00 1.828e-02 -8.435e-04 1.809e-02