# LAMMPS data file written by OVITO
99 atoms
491 bonds
1 atom types
1 bond types
-0.5 0.5 xlo xhi
-0.5 0.5 ylo yhi
-0.5 0.5 zlo zhi

Atoms # bond

1 1 1 3.000000e-01 9.000000e-01 0.000000e+00
2 1 1 2.000000e-01 4.000000e-01 0.000000e+00
3 1 1 1.000000e-01 7.000000e-01 0.000000e+00
4 1 1 8.000000e-01 5.000000e-01 0.000000e+00
5 1 1 4.000000e-01 5.000000e-01 0.000000e+00
6 1 1 9.000000e-01 0.000000e+00 0.000000e+00
7 1 1 1.000000e-01 9.000000e-01 0.000000e+00
8 1 1 5.000000e-01 0.000000e+00 0.000000e+00
9 1 1 6.000000e-01 5.000000e-01 0.000000e+00
10 1 1 2.000000e-01 9.000000e-01 0.000000e+00
11 1 1 8.000000e-01 8.000000e-01 0.000000e+00
12 1 1 8.000000e-01 0.000000e+00 0.000000e+00
13 1 1 7.000000e-01 1.000000e-01 0.000000e+00
14 1 1 9.000000e-01 9.000000e-01 0.000000e+00
15 1 1 2.000000e-01 2.000000e-01 0.000000e+00
16 1 1 9.000000e-01 5.000000e-01 0.000000e+00
17 1 1 6.000000e-01 7.000000e-01 0.000000e+00
18 1 1 4.000000e-01 3.000000e-01 0.000000e+00
19 1 1 2.000000e-01 6.000000e-01 0.000000e+00
20 1 1 8.000000e-01 2.000000e-01 0.000000e+00
21 1 1 7.000000e-01 3.000000e-01 0.000000e+00
22 1 1 8.000000e-01 7.000000e-01 0.000000e+00
23 1 1 3.000000e-01 8.000000e-01 0.000000e+00
24 1 1 9.000000e-01 1.000000e-01 0.000000e+00
25 1 1 5.000000e-01 6.000000e-01 0.000000e+00
26 1 1 9.000000e-01 7.000000e-01 0.000000e+00
27 1 1 1.000000e-01 4.000000e-01 0.000000e+00
28 1 1 0.000000e+00 9.000000e-01 0.000000e+00
29 1 1 9.000000e-01 4.000000e-01 0.000000e+00
30 1 1 8.000000e-01 1.000000e-01 0.000000e+00
31 1 1 5.000000e-01 2.000000e-01 0.000000e+00
32 1 1 7.000000e-01 0.000000e+00 0.000000e+00
33 1 1 1.000000e-01 3.000000e-01 0.000000e+00
34 1 1 0.000000e+00 0.000000e+00 0.000000e+00
35 1 1 2.000000e-01 1.000000e-01 0.000000e+00
36 1 1 5.000000e-01 7.000000e-01 0.000000e+00
37 1 1 4.000000e-01 4.000000e-01 0.000000e+00
38 1 1 7.000000e-01 4.000000e-01 0.000000e+00
39 1 1 8.000000e-01 4.000000e-01 0.000000e+00
40 1 1 6.000000e-01 2.000000e-01 0.000000e+00
41 1 1 7.000000e-01 8.000000e-01 0.000000e+00
42 1 1 0.000000e+00 2.000000e-01 0.000000e+00
43 1 1 5.000000e-01 1.000000e-01 0.000000e+00
44 1 1 4.000000e-01 6.000000e-01 0.000000e+00
45 1 1 8.000000e-01 9.000000e-01 0.000000e+00
46 1 1 5.000000e-01 4.000000e-01 0.000000e+00
47 1 1 0.000000e+00 3.000000e-01 0.000000e+00
48 1 1 2.000000e-01 8.000000e-01 0.000000e+00
49 1 1 8.000000e-01 3.000000e-01 0.000000e+00
50 1 1 9.000000e-01 3.000000e-01 0.000000e+00
51 1 1 1.000000e-01 0.000000e+00 0.000000e+00
52 1 1 2.000000e-01 0.000000e+00 0.000000e+00
53 1 1 3.000000e-01 5.000000e-01 0.000000e+00
54 1 1 7.000000e-01 2.000000e-01 0.000000e+00
55 1 1 9.000000e-01 6.000000e-01 0.000000e+00
56 1 1 3.000000e-01 7.000000e-01 0.000000e+00
57 1 1 4.000000e-01 8.000000e-01 0.000000e+00
58 1 1 1.000000e-01 6.000000e-01 0.000000e+00
59 1 1 9.000000e-01 2.000000e-01 0.000000e+00
60 1 1 0.000000e+00 4.000000e-01 0.000000e+00
61 1 1 7.000000e-01 6.000000e-01 0.000000e+00
62 1 1 1.000000e-01 5.000000e-01 0.000000e+00
63 1 1 0.000000e+00 7.000000e-01 0.000000e+00
64 1 1 5.000000e-01 5.000000e-01 0.000000e+00
65 1 1 6.000000e-01 0.000000e+00 0.000000e+00
66 1 1 1.000000e-01 2.000000e-01 0.000000e+00
67 1 1 6.000000e-01 8.000000e-01 0.000000e+00
68 1 1 7.000000e-01 5.000000e-01 0.000000e+00
69 1 1 3.000000e-01 3.000000e-01 0.000000e+00
70 1 1 4.000000e-01 2.000000e-01 0.000000e+00
71 1 1 4.000000e-01 0.000000e+00 0.000000e+00
72 1 1 5.000000e-01 8.000000e-01 0.000000e+00
73 1 1 0.000000e+00 1.000000e-01 0.000000e+00
74 1 1 4.000000e-01 9.000000e-01 0.000000e+00
75 1 1 7.000000e-01 9.000000e-01 0.000000e+00
76 1 1 3.000000e-01 1.000000e-01 0.000000e+00
77 1 1 3.000000e-01 6.000000e-01 0.000000e+00
78 1 1 6.000000e-01 1.000000e-01 0.000000e+00
79 1 1 2.000000e-01 3.000000e-01 0.000000e+00
80 1 1 2.000000e-01 7.000000e-01 0.000000e+00
81 1 1 3.000000e-01 4.000000e-01 0.000000e+00
82 1 1 6.000000e-01 3.000000e-01 0.000000e+00
83 1 1 4.000000e-01 7.000000e-01 0.000000e+00
84 1 1 6.000000e-01 9.000000e-01 0.000000e+00
85 1 1 4.000000e-01 1.000000e-01 0.000000e+00
86 1 1 0.000000e+00 6.000000e-01 0.000000e+00
87 1 1 3.000000e-01 2.000000e-01 0.000000e+00
88 1 1 9.000000e-01 8.000000e-01 0.000000e+00
89 1 1 0.000000e+00 8.000000e-01 0.000000e+00
90 1 1 7.000000e-01 7.000000e-01 0.000000e+00
91 1 1 6.000000e-01 6.000000e-01 0.000000e+00
92 1 1 5.000000e-01 3.000000e-01 0.000000e+00
93 1 1 6.000000e-01 4.000000e-01 0.000000e+00
94 1 1 3.000000e-01 0.000000e+00 0.000000e+00
95 1 1 1.000000e-01 1.000000e-01 0.000000e+00
96 1 1 0.000000e+00 5.000000e-01 0.000000e+00
97 1 1 1.000000e-01 8.000000e-01 0.000000e+00
98 1 1 5.000000e-01 9.000000e-01 0.000000e+00
99 1 1 2.000000e-01 5.000000e-01 0.000000e+00

Bonds

1 1 1 1
2 1 1 10
3 1 1 23
4 1 1 74
5 1 1 94
6 1 2 2
7 1 2 27
8 1 2 79
9 1 2 81
10 1 2 99
11 1 3 3
12 1 3 58
13 1 3 63
14 1 3 80
15 1 3 97
16 1 4 4
17 1 4 16
18 1 4 39
19 1 4 68
20 1 5 5
21 1 5 37
22 1 5 44
23 1 5 53
24 1 5 64
25 1 6 6
26 1 6 12
27 1 6 14
28 1 6 24
29 1 6 34
30 1 7 7
31 1 7 10
32 1 7 28
33 1 7 51
34 1 7 97
35 1 8 8
36 1 8 43
37 1 8 65
38 1 8 71
39 1 8 98
40 1 9 9
41 1 9 64
42 1 9 68
43 1 9 91
44 1 9 93
45 1 10 1
46 1 10 7
47 1 10 10
48 1 10 48
49 1 10 52
50 1 11 11
51 1 11 22
52 1 11 41
53 1 11 45
54 1 11 88
55 1 12 6
56 1 12 12
57 1 12 30
58 1 12 32
59 1 12 45
60 1 13 13
61 1 13 30
62 1 13 32
63 1 13 54
64 1 13 78
65 1 14 6
66 1 14 14
67 1 14 28
68 1 14 45
69 1 14 88
70 1 15 15
71 1 15 35
72 1 15 66
73 1 15 79
74 1 15 87
75 1 16 4
76 1 16 16
77 1 16 29
78 1 16 55
79 1 16 96
80 1 17 17
81 1 17 36
82 1 17 67
83 1 17 90
84 1 17 91
85 1 18 18
86 1 18 37
87 1 18 69
88 1 18 70
89 1 18 92
90 1 19 19
91 1 19 58
92 1 19 77
93 1 19 80
94 1 19 99
95 1 20 20
96 1 20 30
97 1 20 49
98 1 20 54
99 1 20 59
100 1 21 21
101 1 21 38
102 1 21 49
103 1 21 54
104 1 21 82
105 1 22 11
106 1 22 22
107 1 22 26
108 1 22 90
109 1 23 1
110 1 23 23
111 1 23 48
112 1 23 56
113 1 23 57
114 1 24 6
115 1 24 24
116 1 24 30
117 1 24 59
118 1 24 73
119 1 25 25
120 1 25 36
121 1 25 44
122 1 25 64
123 1 25 91
124 1 26 22
125 1 26 26
126 1 26 55
127 1 26 63
128 1 26 88
129 1 27 2
130 1 27 27
131 1 27 33
132 1 27 60
133 1 27 62
134 1 28 7
135 1 28 14
136 1 28 28
137 1 28 34
138 1 28 89
139 1 29 16
140 1 29 29
141 1 29 39
142 1 29 50
143 1 29 60
144 1 30 12
145 1 30 13
146 1 30 20
147 1 30 24
148 1 30 30
149 1 31 31
150 1 31 40
151 1 31 43
152 1 31 70
153 1 31 92
154 1 32 12
155 1 32 13
156 1 32 32
157 1 32 65
158 1 32 75
159 1 33 27
160 1 33 33
161 1 33 47
162 1 33 66
163 1 33 79
164 1 34 6
165 1 34 28
166 1 34 34
167 1 34 51
168 1 34 73
169 1 35 15
170 1 35 35
171 1 35 52
172 1 35 76
173 1 35 95
174 1 36 17
175 1 36 25
176 1 36 36
177 1 36 72
178 1 36 83
179 1 37 5
180 1 37 18
181 1 37 37
182 1 37 46
183 1 37 81
184 1 38 21
185 1 38 38
186 1 38 39
187 1 38 68
188 1 38 93
189 1 39 4
190 1 39 29
191 1 39 38
192 1 39 39
193 1 39 49
194 1 40 31
195 1 40 40
196 1 40 54
197 1 40 78
198 1 40 82
199 1 41 11
200 1 41 41
201 1 41 67
202 1 41 75
203 1 41 90
204 1 42 42
205 1 42 47
206 1 42 59
207 1 42 66
208 1 42 73
209 1 43 8
210 1 43 31
211 1 43 43
212 1 43 78
213 1 43 85
214 1 44 5
215 1 44 25
216 1 44 44
217 1 44 77
218 1 44 83
219 1 45 11
220 1 45 12
221 1 45 14
222 1 45 45
223 1 45 75
224 1 46 37
225 1 46 46
226 1 46 64
227 1 46 92
228 1 46 93
229 1 47 33
230 1 47 42
231 1 47 47
232 1 47 50
233 1 47 60
234 1 48 10
235 1 48 23
236 1 48 48
237 1 48 80
238 1 48 97
239 1 49 20
240 1 49 21
241 1 49 39
242 1 49 49
243 1 49 50
244 1 50 29
245 1 50 47
246 1 50 49
247 1 50 50
248 1 50 59
249 1 51 7
250 1 51 34
251 1 51 51
252 1 51 52
253 1 51 95
254 1 52 10
255 1 52 35
256 1 52 51
257 1 52 52
258 1 52 94
259 1 53 5
260 1 53 53
261 1 53 77
262 1 53 81
263 1 53 99
264 1 54 13
265 1 54 20
266 1 54 21
267 1 54 40
268 1 54 54
269 1 55 16
270 1 55 26
271 1 55 55
272 1 55 86
273 1 56 23
274 1 56 56
275 1 56 77
276 1 56 80
277 1 56 83
278 1 57 23
279 1 57 57
280 1 57 72
281 1 57 74
282 1 57 83
283 1 58 3
284 1 58 19
285 1 58 58
286 1 58 62
287 1 58 86
288 1 59 20
289 1 59 24
290 1 59 42
291 1 59 50
292 1 59 59
293 1 60 27
294 1 60 29
295 1 60 47
296 1 60 60
297 1 60 96
298 1 61 61
299 1 61 68
300 1 61 90
301 1 61 91
302 1 62 27
303 1 62 58
304 1 62 62
305 1 62 96
306 1 62 99
307 1 63 3
308 1 63 26
309 1 63 63
310 1 63 86
311 1 63 89
312 1 64 5
313 1 64 9
314 1 64 25
315 1 64 46
316 1 64 64
317 1 65 8
318 1 65 32
319 1 65 65
320 1 65 78
321 1 65 84
322 1 66 15
323 1 66 33
324 1 66 42
325 1 66 66
326 1 66 95
327 1 67 17
328 1 67 41
329 1 67 67
330 1 67 72
331 1 67 84
332 1 68 4
333 1 68 9
334 1 68 38
335 1 68 61
336 1 68 68
337 1 69 18
338 1 69 69
339 1 69 79
340 1 69 81
341 1 69 87
342 1 70 18
343 1 70 31
344 1 70 70
345 1 70 85
346 1 70 87
347 1 71 8
348 1 71 71
349 1 71 74
350 1 71 85
351 1 71 94
352 1 72 36
353 1 72 57
354 1 72 67
355 1 72 72
356 1 72 98
357 1 73 24
358 1 73 34
359 1 73 42
360 1 73 73
361 1 73 95
362 1 74 1
363 1 74 57
364 1 74 71
365 1 74 74
366 1 74 98
367 1 75 32
368 1 75 41
369 1 75 45
370 1 75 75
371 1 75 84
372 1 76 35
373 1 76 76
374 1 76 85
375 1 76 87
376 1 76 94
377 1 77 19
378 1 77 44
379 1 77 53
380 1 77 56
381 1 77 77
382 1 78 13
383 1 78 40
384 1 78 43
385 1 78 65
386 1 78 78
387 1 79 2
388 1 79 15
389 1 79 33
390 1 79 69
391 1 79 79
392 1 80 3
393 1 80 19
394 1 80 48
395 1 80 56
396 1 80 80
397 1 81 2
398 1 81 37
399 1 81 53
400 1 81 69
401 1 81 81
402 1 82 21
403 1 82 40
404 1 82 82
405 1 82 92
406 1 82 93
407 1 83 36
408 1 83 44
409 1 83 56
410 1 83 57
411 1 83 83
412 1 84 65
413 1 84 67
414 1 84 75
415 1 84 84
416 1 84 98
417 1 85 43
418 1 85 70
419 1 85 71
420 1 85 76
421 1 85 85
422 1 86 55
423 1 86 58
424 1 86 63
425 1 86 86
426 1 86 96
427 1 87 15
428 1 87 69
429 1 87 70
430 1 87 76
431 1 87 87
432 1 88 11
433 1 88 14
434 1 88 26
435 1 88 88
436 1 88 89
437 1 89 28
438 1 89 63
439 1 89 88
440 1 89 89
441 1 89 97
442 1 90 17
443 1 90 22
444 1 90 41
445 1 90 61
446 1 90 90
447 1 91 9
448 1 91 17
449 1 91 25
450 1 91 61
451 1 91 91
452 1 92 18
453 1 92 31
454 1 92 46
455 1 92 82
456 1 92 92
457 1 93 9
458 1 93 38
459 1 93 46
460 1 93 82
461 1 93 93
462 1 94 1
463 1 94 52
464 1 94 71
465 1 94 76
466 1 94 94
467 1 95 35
468 1 95 51
469 1 95 66
470 1 95 73
471 1 95 95
472 1 96 16
473 1 96 60
474 1 96 62
475 1 96 86
476 1 96 96
477 1 97 3
478 1 97 7
479 1 97 48
480 1 97 89
481 1 97 97
482 1 98 8
483 1 98 72
484 1 98 74
485 1 98 84
486 1 98 98
487 1 99 2
488 1 99 19
489 1 99 53
490 1 99 62
491 1 99 99
