# LAMMPS data file written by OVITO
99 atoms
491 bonds
1 atom types
1 bond types
-0.5 0.5 xlo xhi
-0.5 0.5 ylo yhi
-0.5 0.5 zlo zhi

Atoms # bond

1 1 1 4.000000e-01 8.000000e-01 0.000000e+00
2 1 1 3.000000e-01 2.000000e-01 0.000000e+00
3 1 1 2.000000e-01 6.000000e-01 0.000000e+00
4 1 1 9.000000e-01 7.000000e-01 0.000000e+00
5 1 1 2.000000e-01 7.000000e-01 0.000000e+00
6 1 1 2.000000e-01 3.000000e-01 0.000000e+00
7 1 1 8.000000e-01 4.000000e-01 0.000000e+00
8 1 1 3.000000e-01 5.000000e-01 0.000000e+00
9 1 1 2.000000e-01 1.000000e-01 0.000000e+00
10 1 1 1.000000e-01 3.000000e-01 0.000000e+00
11 1 1 1.000000e-01 6.000000e-01 0.000000e+00
12 1 1 7.000000e-01 8.000000e-01 0.000000e+00
13 1 1 6.000000e-01 9.000000e-01 0.000000e+00
14 1 1 5.000000e-01 5.000000e-01 0.000000e+00
15 1 1 1.000000e-01 4.000000e-01 0.000000e+00
16 1 1 5.000000e-01 6.000000e-01 0.000000e+00
17 1 1 0.000000e+00 9.000000e-01 0.000000e+00
18 1 1 9.000000e-01 1.000000e-01 0.000000e+00
19 1 1 1.000000e-01 0.000000e+00 0.000000e+00
20 1 1 3.000000e-01 8.000000e-01 0.000000e+00
21 1 1 5.000000e-01 4.000000e-01 0.000000e+00
22 1 1 7.000000e-01 1.000000e-01 0.000000e+00
23 1 1 9.000000e-01 5.000000e-01 0.000000e+00
24 1 1 4.000000e-01 7.000000e-01 0.000000e+00
25 1 1 7.000000e-01 9.000000e-01 0.000000e+00
26 1 1 4.000000e-01 2.000000e-01 0.000000e+00
27 1 1 3.000000e-01 1.000000e-01 0.000000e+00
28 1 1 8.000000e-01 6.000000e-01 0.000000e+00
29 1 1 5.000000e-01 1.000000e-01 0.000000e+00
30 1 1 9.000000e-01 9.000000e-01 0.000000e+00
31 1 1 1.000000e-01 8.000000e-01 0.000000e+00
32 1 1 7.000000e-01 0.000000e+00 0.000000e+00
33 1 1 3.000000e-01 6.000000e-01 0.000000e+00
34 1 1 3.000000e-01 3.000000e-01 0.000000e+00
35 1 1 0.000000e+00 2.000000e-01 0.000000e+00
36 1 1 6.000000e-01 3.000000e-01 0.000000e+00
37 1 1 1.000000e-01 5.000000e-01 0.000000e+00
38 1 1 5.000000e-01 3.000000e-01 0.000000e+00
39 1 1 4.000000e-01 5.000000e-01 0.000000e+00
40 1 1 8.000000e-01 0.000000e+00 0.000000e+00
41 1 1 7.000000e-01 7.000000e-01 0.000000e+00
42 1 1 9.000000e-01 8.000000e-01 0.000000e+00
43 1 1 4.000000e-01 3.000000e-01 0.000000e+00
44 1 1 0.000000e+00 3.000000e-01 0.000000e+00
45 1 1 4.000000e-01 4.000000e-01 0.000000e+00
46 1 1 2.000000e-01 5.000000e-01 0.000000e+00
47 1 1 7.000000e-01 3.000000e-01 0.000000e+00
48 1 1 9.000000e-01 0.000000e+00 0.000000e+00
49 1 1 3.000000e-01 0.000000e+00 0.000000e+00
50 1 1 4.000000e-01 9.000000e-01 0.000000e+00
51 1 1 5.000000e-01 7.000000e-01 0.000000e+00
52 1 1 5.000000e-01 9.000000e-01 0.000000e+00
53 1 1 0.000000e+00 6.000000e-01 0.000000e+00
54 1 1 0.000000e+00 1.000000e-01 0.000000e+00
55 1 1 0.000000e+00 5.000000e-01 0.000000e+00
56 1 1 5.000000e-01 8.000000e-01 0.000000e+00
57 1 1 7.000000e-01 4.000000e-01 0.000000e+00
58 1 1 0.000000e+00 8.000000e-01 0.000000e+00
59 1 1 3.000000e-01 9.000000e-01 0.000000e+00
60 1 1 6.000000e-01 8.000000e-01 0.000000e+00
61 1 1 3.000000e-01 7.000000e-01 0.000000e+00
62 1 1 2.000000e-01 0.000000e+00 0.000000e+00
63 1 1 9.000000e-01 2.000000e-01 0.000000e+00
64 1 1 9.000000e-01 4.000000e-01 0.000000e+00
65 1 1 2.000000e-01 9.000000e-01 0.000000e+00
66 1 1 7.000000e-01 6.000000e-01 0.000000e+00
67 1 1 9.000000e-01 3.000000e-01 0.000000e+00
68 1 1 8.000000e-01 2.000000e-01 0.000000e+00
69 1 1 5.000000e-01 0.000000e+00 0.000000e+00
70 1 1 4.000000e-01 0.000000e+00 0.000000e+00
71 1 1 2.000000e-01 2.000000e-01 0.000000e+00
72 1 1 2.000000e-01 4.000000e-01 0.000000e+00
73 1 1 1.000000e-01 9.000000e-01 0.000000e+00
74 1 1 8.000000e-01 3.000000e-01 0.000000e+00
75 1 1 9.000000e-01 6.000000e-01 0.000000e+00
76 1 1 6.000000e-01 1.000000e-01 0.000000e+00
77 1 1 2.000000e-01 8.000000e-01 0.000000e+00
78 1 1 6.000000e-01 6.000000e-01 0.000000e+00
79 1 1 3.000000e-01 4.000000e-01 0.000000e+00
80 1 1 8.000000e-01 5.000000e-01 0.000000e+00
81 1 1 0.000000e+00 7.000000e-01 0.000000e+00
82 1 1 1.000000e-01 1.000000e-01 0.000000e+00
83 1 1 6.000000e-01 2.000000e-01 0.000000e+00
84 1 1 6.000000e-01 5.000000e-01 0.000000e+00
85 1 1 6.000000e-01 4.000000e-01 0.000000e+00
86 1 1 8.000000e-01 9.000000e-01 0.000000e+00
87 1 1 1.000000e-01 2.000000e-01 0.000000e+00
88 1 1 7.000000e-01 5.000000e-01 0.000000e+00
89 1 1 4.000000e-01 6.000000e-01 0.000000e+00
90 1 1 6.000000e-01 0.000000e+00 0.000000e+00
91 1 1 5.000000e-01 2.000000e-01 0.000000e+00
92 1 1 4.000000e-01 1.000000e-01 0.000000e+00
93 1 1 6.000000e-01 7.000000e-01 0.000000e+00
94 1 1 7.000000e-01 2.000000e-01 0.000000e+00
95 1 1 1.000000e-01 7.000000e-01 0.000000e+00
96 1 1 8.000000e-01 1.000000e-01 0.000000e+00
97 1 1 0.000000e+00 4.000000e-01 0.000000e+00
98 1 1 0.000000e+00 0.000000e+00 0.000000e+00
99 1 1 8.000000e-01 8.000000e-01 0.000000e+00

Bonds

1 1 1 1
2 1 1 20
3 1 1 24
4 1 1 50
5 1 1 56
6 1 2 2
7 1 2 26
8 1 2 27
9 1 2 34
10 1 2 71
11 1 3 3
12 1 3 5
13 1 3 11
14 1 3 33
15 1 3 46
16 1 4 4
17 1 4 42
18 1 4 75
19 1 4 81
20 1 5 3
21 1 5 5
22 1 5 61
23 1 5 77
24 1 5 95
25 1 6 6
26 1 6 10
27 1 6 34
28 1 6 71
29 1 6 72
30 1 7 7
31 1 7 57
32 1 7 64
33 1 7 74
34 1 7 80
35 1 8 8
36 1 8 33
37 1 8 39
38 1 8 46
39 1 8 79
40 1 9 9
41 1 9 27
42 1 9 62
43 1 9 71
44 1 9 82
45 1 10 6
46 1 10 10
47 1 10 15
48 1 10 44
49 1 10 87
50 1 11 3
51 1 11 11
52 1 11 37
53 1 11 53
54 1 11 95
55 1 12 12
56 1 12 25
57 1 12 41
58 1 12 60
59 1 12 99
60 1 13 13
61 1 13 25
62 1 13 52
63 1 13 60
64 1 13 90
65 1 14 14
66 1 14 16
67 1 14 21
68 1 14 39
69 1 14 84
70 1 15 10
71 1 15 15
72 1 15 37
73 1 15 72
74 1 15 97
75 1 16 14
76 1 16 16
77 1 16 51
78 1 16 78
79 1 16 89
80 1 17 17
81 1 17 30
82 1 17 58
83 1 17 73
84 1 17 98
85 1 18 18
86 1 18 48
87 1 18 54
88 1 18 63
89 1 18 96
90 1 19 19
91 1 19 62
92 1 19 73
93 1 19 82
94 1 19 98
95 1 20 1
96 1 20 20
97 1 20 59
98 1 20 61
99 1 20 77
100 1 21 14
101 1 21 21
102 1 21 38
103 1 21 45
104 1 21 85
105 1 22 22
106 1 22 32
107 1 22 76
108 1 22 94
109 1 22 96
110 1 23 23
111 1 23 55
112 1 23 64
113 1 23 75
114 1 23 80
115 1 24 1
116 1 24 24
117 1 24 51
118 1 24 61
119 1 24 89
120 1 25 12
121 1 25 13
122 1 25 25
123 1 25 32
124 1 25 86
125 1 26 2
126 1 26 26
127 1 26 43
128 1 26 91
129 1 26 92
130 1 27 2
131 1 27 9
132 1 27 27
133 1 27 49
134 1 27 92
135 1 28 28
136 1 28 66
137 1 28 75
138 1 28 80
139 1 29 29
140 1 29 69
141 1 29 76
142 1 29 91
143 1 29 92
144 1 30 17
145 1 30 30
146 1 30 42
147 1 30 48
148 1 30 86
149 1 31 31
150 1 31 58
151 1 31 73
152 1 31 77
153 1 31 95
154 1 32 22
155 1 32 25
156 1 32 32
157 1 32 40
158 1 32 90
159 1 33 3
160 1 33 8
161 1 33 33
162 1 33 61
163 1 33 89
164 1 34 2
165 1 34 6
166 1 34 34
167 1 34 43
168 1 34 79
169 1 35 35
170 1 35 44
171 1 35 54
172 1 35 63
173 1 35 87
174 1 36 36
175 1 36 38
176 1 36 47
177 1 36 83
178 1 36 85
179 1 37 11
180 1 37 15
181 1 37 37
182 1 37 46
183 1 37 55
184 1 38 21
185 1 38 36
186 1 38 38
187 1 38 43
188 1 38 91
189 1 39 8
190 1 39 14
191 1 39 39
192 1 39 45
193 1 39 89
194 1 40 32
195 1 40 40
196 1 40 48
197 1 40 86
198 1 40 96
199 1 41 12
200 1 41 41
201 1 41 66
202 1 41 93
203 1 42 4
204 1 42 30
205 1 42 42
206 1 42 58
207 1 42 99
208 1 43 26
209 1 43 34
210 1 43 38
211 1 43 43
212 1 43 45
213 1 44 10
214 1 44 35
215 1 44 44
216 1 44 67
217 1 44 97
218 1 45 21
219 1 45 39
220 1 45 43
221 1 45 45
222 1 45 79
223 1 46 3
224 1 46 8
225 1 46 37
226 1 46 46
227 1 46 72
228 1 47 36
229 1 47 47
230 1 47 57
231 1 47 74
232 1 47 94
233 1 48 18
234 1 48 30
235 1 48 40
236 1 48 48
237 1 48 98
238 1 49 27
239 1 49 49
240 1 49 59
241 1 49 62
242 1 49 70
243 1 50 1
244 1 50 50
245 1 50 52
246 1 50 59
247 1 50 70
248 1 51 16
249 1 51 24
250 1 51 51
251 1 51 56
252 1 51 93
253 1 52 13
254 1 52 50
255 1 52 52
256 1 52 56
257 1 52 69
258 1 53 11
259 1 53 53
260 1 53 55
261 1 53 75
262 1 53 81
263 1 54 18
264 1 54 35
265 1 54 54
266 1 54 82
267 1 54 98
268 1 55 23
269 1 55 37
270 1 55 53
271 1 55 55
272 1 55 97
273 1 56 1
274 1 56 51
275 1 56 52
276 1 56 56
277 1 56 60
278 1 57 7
279 1 57 47
280 1 57 57
281 1 57 85
282 1 57 88
283 1 58 17
284 1 58 31
285 1 58 42
286 1 58 58
287 1 58 81
288 1 59 20
289 1 59 49
290 1 59 50
291 1 59 59
292 1 59 65
293 1 60 12
294 1 60 13
295 1 60 56
296 1 60 60
297 1 60 93
298 1 61 5
299 1 61 20
300 1 61 24
301 1 61 33
302 1 61 61
303 1 62 9
304 1 62 19
305 1 62 49
306 1 62 62
307 1 62 65
308 1 63 18
309 1 63 35
310 1 63 63
311 1 63 67
312 1 63 68
313 1 64 7
314 1 64 23
315 1 64 64
316 1 64 67
317 1 64 97
318 1 65 59
319 1 65 62
320 1 65 65
321 1 65 73
322 1 65 77
323 1 66 28
324 1 66 41
325 1 66 66
326 1 66 78
327 1 66 88
328 1 67 44
329 1 67 63
330 1 67 64
331 1 67 67
332 1 67 74
333 1 68 63
334 1 68 68
335 1 68 74
336 1 68 94
337 1 68 96
338 1 69 29
339 1 69 52
340 1 69 69
341 1 69 70
342 1 69 90
343 1 70 49
344 1 70 50
345 1 70 69
346 1 70 70
347 1 70 92
348 1 71 2
349 1 71 6
350 1 71 9
351 1 71 71
352 1 71 87
353 1 72 6
354 1 72 15
355 1 72 46
356 1 72 72
357 1 72 79
358 1 73 17
359 1 73 19
360 1 73 31
361 1 73 65
362 1 73 73
363 1 74 7
364 1 74 47
365 1 74 67
366 1 74 68
367 1 74 74
368 1 75 4
369 1 75 23
370 1 75 28
371 1 75 53
372 1 75 75
373 1 76 22
374 1 76 29
375 1 76 76
376 1 76 83
377 1 76 90
378 1 77 5
379 1 77 20
380 1 77 31
381 1 77 65
382 1 77 77
383 1 78 16
384 1 78 66
385 1 78 78
386 1 78 84
387 1 78 93
388 1 79 8
389 1 79 34
390 1 79 45
391 1 79 72
392 1 79 79
393 1 80 7
394 1 80 23
395 1 80 28
396 1 80 80
397 1 80 88
398 1 81 4
399 1 81 53
400 1 81 58
401 1 81 81
402 1 81 95
403 1 82 9
404 1 82 19
405 1 82 54
406 1 82 82
407 1 82 87
408 1 83 36
409 1 83 76
410 1 83 83
411 1 83 91
412 1 83 94
413 1 84 14
414 1 84 78
415 1 84 84
416 1 84 85
417 1 84 88
418 1 85 21
419 1 85 36
420 1 85 57
421 1 85 84
422 1 85 85
423 1 86 25
424 1 86 30
425 1 86 40
426 1 86 86
427 1 86 99
428 1 87 10
429 1 87 35
430 1 87 71
431 1 87 82
432 1 87 87
433 1 88 57
434 1 88 66
435 1 88 80
436 1 88 84
437 1 88 88
438 1 89 16
439 1 89 24
440 1 89 33
441 1 89 39
442 1 89 89
443 1 90 13
444 1 90 32
445 1 90 69
446 1 90 76
447 1 90 90
448 1 91 26
449 1 91 29
450 1 91 38
451 1 91 83
452 1 91 91
453 1 92 26
454 1 92 27
455 1 92 29
456 1 92 70
457 1 92 92
458 1 93 41
459 1 93 51
460 1 93 60
461 1 93 78
462 1 93 93
463 1 94 22
464 1 94 47
465 1 94 68
466 1 94 83
467 1 94 94
468 1 95 5
469 1 95 11
470 1 95 31
471 1 95 81
472 1 95 95
473 1 96 18
474 1 96 22
475 1 96 40
476 1 96 68
477 1 96 96
478 1 97 15
479 1 97 44
480 1 97 55
481 1 97 64
482 1 97 97
483 1 98 17
484 1 98 19
485 1 98 48
486 1 98 54
487 1 98 98
488 1 99 12
489 1 99 42
490 1 99 86
491 1 99 99
