# LAMMPS data file written by OVITO
66 atoms
4356 bonds
1 atom types
1 bond types
0 33.64 xlo xhi
0 33.64 ylo yhi
0 33.64 zlo zhi

Atoms # bond

94 1 1 0.000000e+00 3.521501e+00 3.521501e+00
78 1 1 -3.539244e+00 -3.549249e+00 -8.546071e-03
2 1 1 3.539244e+00 -8.546071e-03 -3.549249e+00
76 1 1 3.539244e+00 -3.549249e+00 -8.546071e-03
6 1 1 -3.539244e+00 -8.546071e-03 -3.549249e+00
69 1 1 0.000000e+00 -3.549249e+00 -3.549249e+00
105 1 1 0.000000e+00 -3.549249e+00 3.532477e+00
58 1 1 0.000000e+00 3.532477e+00 -3.549249e+00
41 1 1 -3.537471e+00 -7.517624e-03 3.529019e+00
72 1 1 3.537471e+00 3.529019e+00 -7.517624e-03
73 1 1 -3.537471e+00 3.529019e+00 -7.517624e-03
37 1 1 3.537471e+00 -7.517624e-03 3.529019e+00
52 1 1 -1.760751e+00 1.760751e+00 3.521501e+00
48 1 1 1.760751e+00 1.760751e+00 3.521501e+00
81 1 1 1.760751e+00 3.521501e+00 1.760751e+00
83 1 1 -1.760751e+00 3.521501e+00 1.760751e+00
7 1 1 -3.539065e+00 -1.778314e+00 -1.778314e+00
3 1 1 3.539065e+00 -1.778314e+00 -1.778314e+00
71 1 1 -1.769297e+00 -3.549249e+00 -1.778494e+00
63 1 1 1.769297e+00 -3.549249e+00 -1.778494e+00
1 1 1 1.769297e+00 -1.778494e+00 -3.549249e+00
9 1 1 -1.769297e+00 -1.778494e+00 -3.549249e+00
44 1 1 -1.768268e+00 -1.776720e+00 3.529019e+00
55 1 1 1.768268e+00 3.529019e+00 -1.776720e+00
59 1 1 -1.768268e+00 3.529019e+00 -1.776720e+00
36 1 1 1.768268e+00 -1.776720e+00 3.529019e+00
30 1 1 -3.536694e+00 -1.775943e+00 1.760751e+00
16 1 1 -3.536694e+00 1.760751e+00 -1.775943e+00
14 1 1 3.536694e+00 1.760751e+00 -1.775943e+00
28 1 1 3.536694e+00 -1.775943e+00 1.760751e+00
89 1 1 -1.771726e+00 -3.549249e+00 1.760751e+00
17 1 1 -1.771726e+00 1.760751e+00 -3.549249e+00
13 1 1 1.771726e+00 1.760751e+00 -3.549249e+00
85 1 1 1.771726e+00 -3.549249e+00 1.760751e+00
34 1 1 3.549160e+00 1.760751e+00 1.760751e+00
35 1 1 -3.549160e+00 1.760751e+00 1.760751e+00
88 1 1 0.000000e+00 5.309910e+00 1.760751e+00
53 1 1 0.000000e+00 1.760751e+00 5.309910e+00
31 1 1 -5.310000e+00 -1.097568e-02 1.760751e+00
26 1 1 -5.310000e+00 1.760751e+00 -1.097568e-02
46 1 1 0.000000e+00 -1.775943e+00 5.297445e+00
70 1 1 0.000000e+00 5.297445e+00 -1.775943e+00
21 1 1 -5.310000e+00 -1.778494e+00 -8.546071e-03
8 1 1 -5.310000e+00 -8.546071e-03 -1.778494e+00
79 1 1 -1.768268e+00 5.298221e+00 -7.517624e-03
47 1 1 -1.768268e+00 -7.517624e-03 5.298221e+00
39 1 1 1.768268e+00 -7.517624e-03 5.298221e+00
75 1 1 1.768268e+00 5.298221e+00 -7.517624e-03
24 1 1 0.000000e+00 0.000000e+00 0.000000e+00
45 1 1 0.000000e+00 0.000000e+00 3.521501e+00
74 1 1 0.000000e+00 3.521501e+00 0.000000e+00
33 1 1 -1.760751e+00 0.000000e+00 1.760751e+00
25 1 1 1.760751e+00 1.760751e+00 0.000000e+00
27 1 1 -1.760751e+00 1.760751e+00 0.000000e+00
29 1 1 1.760751e+00 0.000000e+00 1.760751e+00
20 1 1 3.537471e+00 -7.517624e-03 -7.517624e-03
22 1 1 -3.537471e+00 -7.517624e-03 -7.517624e-03
10 1 1 0.000000e+00 -1.097568e-02 -3.549249e+00
80 1 1 0.000000e+00 -3.549249e+00 -1.097568e-02
11 1 1 0.000000e+00 -1.775943e+00 -1.775943e+00
23 1 1 -1.768268e+00 -1.776720e+00 -7.517624e-03
19 1 1 1.768268e+00 -1.776720e+00 -7.517624e-03
4 1 1 1.768268e+00 -7.517624e-03 -1.776720e+00
12 1 1 -1.768268e+00 -7.517624e-03 -1.776720e+00
32 1 1 0.000000e+00 -1.788409e+00 1.760751e+00
18 1 1 1.776357e-15 1.760751e+00 -1.788409e+00

Bonds

1 1 1 1
2 1 1 2
3 1 1 3
4 1 1 4
5 1 1 5
6 1 1 6
7 1 1 7
8 1 1 8
9 1 1 9
10 1 1 10
11 1 1 11
12 1 1 12
13 1 1 13
14 1 1 14
15 1 1 15
16 1 1 16
17 1 1 17
18 1 1 18
19 1 1 19
20 1 1 20
21 1 1 21
22 1 1 22
23 1 1 23
24 1 1 24
25 1 1 25
26 1 1 26
27 1 1 27
28 1 1 28
29 1 1 29
30 1 1 30
31 1 1 31
32 1 1 32
33 1 1 33
34 1 1 34
35 1 1 35
36 1 1 36
37 1 1 37
38 1 1 38
39 1 1 39
40 1 1 40
41 1 1 41
42 1 1 42
43 1 1 43
44 1 1 44
45 1 1 45
46 1 1 46
47 1 1 47
48 1 1 48
49 1 1 49
50 1 1 50
51 1 1 51
52 1 1 52
53 1 1 53
54 1 1 54
55 1 1 55
56 1 1 56
57 1 1 57
58 1 1 58
59 1 1 59
60 1 1 60
61 1 1 61
62 1 1 62
63 1 1 63
64 1 1 64
65 1 1 65
66 1 1 66
67 1 2 1
68 1 2 2
69 1 2 3
70 1 2 4
71 1 2 5
72 1 2 6
73 1 2 7
74 1 2 8
75 1 2 9
76 1 2 10
77 1 2 11
78 1 2 12
79 1 2 13
80 1 2 14
81 1 2 15
82 1 2 16
83 1 2 17
84 1 2 18
85 1 2 19
86 1 2 20
87 1 2 21
88 1 2 22
89 1 2 23
90 1 2 24
91 1 2 25
92 1 2 26
93 1 2 27
94 1 2 28
95 1 2 29
96 1 2 30
97 1 2 31
98 1 2 32
99 1 2 33
100 1 2 34
101 1 2 35
102 1 2 36
103 1 2 37
104 1 2 38
105 1 2 39
106 1 2 40
107 1 2 41
108 1 2 42
109 1 2 43
110 1 2 44
111 1 2 45
112 1 2 46
113 1 2 47
114 1 2 48
115 1 2 49
116 1 2 50
117 1 2 51
118 1 2 52
119 1 2 53
120 1 2 54
121 1 2 55
122 1 2 56
123 1 2 57
124 1 2 58
125 1 2 59
126 1 2 60
127 1 2 61
128 1 2 62
129 1 2 63
130 1 2 64
131 1 2 65
132 1 2 66
133 1 3 1
134 1 3 2
135 1 3 3
136 1 3 4
137 1 3 5
138 1 3 6
139 1 3 7
140 1 3 8
141 1 3 9
142 1 3 10
143 1 3 11
144 1 3 12
145 1 3 13
146 1 3 14
147 1 3 15
148 1 3 16
149 1 3 17
150 1 3 18
151 1 3 19
152 1 3 20
153 1 3 21
154 1 3 22
155 1 3 23
156 1 3 24
157 1 3 25
158 1 3 26
159 1 3 27
160 1 3 28
161 1 3 29
162 1 3 30
163 1 3 31
164 1 3 32
165 1 3 33
166 1 3 34
167 1 3 35
168 1 3 36
169 1 3 37
170 1 3 38
171 1 3 39
172 1 3 40
173 1 3 41
174 1 3 42
175 1 3 43
176 1 3 44
177 1 3 45
178 1 3 46
179 1 3 47
180 1 3 48
181 1 3 49
182 1 3 50
183 1 3 51
184 1 3 52
185 1 3 53
186 1 3 54
187 1 3 55
188 1 3 56
189 1 3 57
190 1 3 58
191 1 3 59
192 1 3 60
193 1 3 61
194 1 3 62
195 1 3 63
196 1 3 64
197 1 3 65
198 1 3 66
199 1 4 1
200 1 4 2
201 1 4 3
202 1 4 4
203 1 4 5
204 1 4 6
205 1 4 7
206 1 4 8
207 1 4 9
208 1 4 10
209 1 4 11
210 1 4 12
211 1 4 13
212 1 4 14
213 1 4 15
214 1 4 16
215 1 4 17
216 1 4 18
217 1 4 19
218 1 4 20
219 1 4 21
220 1 4 22
221 1 4 23
222 1 4 24
223 1 4 25
224 1 4 26
225 1 4 27
226 1 4 28
227 1 4 29
228 1 4 30
229 1 4 31
230 1 4 32
231 1 4 33
232 1 4 34
233 1 4 35
234 1 4 36
235 1 4 37
236 1 4 38
237 1 4 39
238 1 4 40
239 1 4 41
240 1 4 42
241 1 4 43
242 1 4 44
243 1 4 45
244 1 4 46
245 1 4 47
246 1 4 48
247 1 4 49
248 1 4 50
249 1 4 51
250 1 4 52
251 1 4 53
252 1 4 54
253 1 4 55
254 1 4 56
255 1 4 57
256 1 4 58
257 1 4 59
258 1 4 60
259 1 4 61
260 1 4 62
261 1 4 63
262 1 4 64
263 1 4 65
264 1 4 66
265 1 5 1
266 1 5 2
267 1 5 3
268 1 5 4
269 1 5 5
270 1 5 6
271 1 5 7
272 1 5 8
273 1 5 9
274 1 5 10
275 1 5 11
276 1 5 12
277 1 5 13
278 1 5 14
279 1 5 15
280 1 5 16
281 1 5 17
282 1 5 18
283 1 5 19
284 1 5 20
285 1 5 21
286 1 5 22
287 1 5 23
288 1 5 24
289 1 5 25
290 1 5 26
291 1 5 27
292 1 5 28
293 1 5 29
294 1 5 30
295 1 5 31
296 1 5 32
297 1 5 33
298 1 5 34
299 1 5 35
300 1 5 36
301 1 5 37
302 1 5 38
303 1 5 39
304 1 5 40
305 1 5 41
306 1 5 42
307 1 5 43
308 1 5 44
309 1 5 45
310 1 5 46
311 1 5 47
312 1 5 48
313 1 5 49
314 1 5 50
315 1 5 51
316 1 5 52
317 1 5 53
318 1 5 54
319 1 5 55
320 1 5 56
321 1 5 57
322 1 5 58
323 1 5 59
324 1 5 60
325 1 5 61
326 1 5 62
327 1 5 63
328 1 5 64
329 1 5 65
330 1 5 66
331 1 6 1
332 1 6 2
333 1 6 3
334 1 6 4
335 1 6 5
336 1 6 6
337 1 6 7
338 1 6 8
339 1 6 9
340 1 6 10
341 1 6 11
342 1 6 12
343 1 6 13
344 1 6 14
345 1 6 15
346 1 6 16
347 1 6 17
348 1 6 18
349 1 6 19
350 1 6 20
351 1 6 21
352 1 6 22
353 1 6 23
354 1 6 24
355 1 6 25
356 1 6 26
357 1 6 27
358 1 6 28
359 1 6 29
360 1 6 30
361 1 6 31
362 1 6 32
363 1 6 33
364 1 6 34
365 1 6 35
366 1 6 36
367 1 6 37
368 1 6 38
369 1 6 39
370 1 6 40
371 1 6 41
372 1 6 42
373 1 6 43
374 1 6 44
375 1 6 45
376 1 6 46
377 1 6 47
378 1 6 48
379 1 6 49
380 1 6 50
381 1 6 51
382 1 6 52
383 1 6 53
384 1 6 54
385 1 6 55
386 1 6 56
387 1 6 57
388 1 6 58
389 1 6 59
390 1 6 60
391 1 6 61
392 1 6 62
393 1 6 63
394 1 6 64
395 1 6 65
396 1 6 66
397 1 7 1
398 1 7 2
399 1 7 3
400 1 7 4
401 1 7 5
402 1 7 6
403 1 7 7
404 1 7 8
405 1 7 9
406 1 7 10
407 1 7 11
408 1 7 12
409 1 7 13
410 1 7 14
411 1 7 15
412 1 7 16
413 1 7 17
414 1 7 18
415 1 7 19
416 1 7 20
417 1 7 21
418 1 7 22
419 1 7 23
420 1 7 24
421 1 7 25
422 1 7 26
423 1 7 27
424 1 7 28
425 1 7 29
426 1 7 30
427 1 7 31
428 1 7 32
429 1 7 33
430 1 7 34
431 1 7 35
432 1 7 36
433 1 7 37
434 1 7 38
435 1 7 39
436 1 7 40
437 1 7 41
438 1 7 42
439 1 7 43
440 1 7 44
441 1 7 45
442 1 7 46
443 1 7 47
444 1 7 48
445 1 7 49
446 1 7 50
447 1 7 51
448 1 7 52
449 1 7 53
450 1 7 54
451 1 7 55
452 1 7 56
453 1 7 57
454 1 7 58
455 1 7 59
456 1 7 60
457 1 7 61
458 1 7 62
459 1 7 63
460 1 7 64
461 1 7 65
462 1 7 66
463 1 8 1
464 1 8 2
465 1 8 3
466 1 8 4
467 1 8 5
468 1 8 6
469 1 8 7
470 1 8 8
471 1 8 9
472 1 8 10
473 1 8 11
474 1 8 12
475 1 8 13
476 1 8 14
477 1 8 15
478 1 8 16
479 1 8 17
480 1 8 18
481 1 8 19
482 1 8 20
483 1 8 21
484 1 8 22
485 1 8 23
486 1 8 24
487 1 8 25
488 1 8 26
489 1 8 27
490 1 8 28
491 1 8 29
492 1 8 30
493 1 8 31
494 1 8 32
495 1 8 33
496 1 8 34
497 1 8 35
498 1 8 36
499 1 8 37
500 1 8 38
501 1 8 39
502 1 8 40
503 1 8 41
504 1 8 42
505 1 8 43
506 1 8 44
507 1 8 45
508 1 8 46
509 1 8 47
510 1 8 48
511 1 8 49
512 1 8 50
513 1 8 51
514 1 8 52
515 1 8 53
516 1 8 54
517 1 8 55
518 1 8 56
519 1 8 57
520 1 8 58
521 1 8 59
522 1 8 60
523 1 8 61
524 1 8 62
525 1 8 63
526 1 8 64
527 1 8 65
528 1 8 66
529 1 9 1
530 1 9 2
531 1 9 3
532 1 9 4
533 1 9 5
534 1 9 6
535 1 9 7
536 1 9 8
537 1 9 9
538 1 9 10
539 1 9 11
540 1 9 12
541 1 9 13
542 1 9 14
543 1 9 15
544 1 9 16
545 1 9 17
546 1 9 18
547 1 9 19
548 1 9 20
549 1 9 21
550 1 9 22
551 1 9 23
552 1 9 24
553 1 9 25
554 1 9 26
555 1 9 27
556 1 9 28
557 1 9 29
558 1 9 30
559 1 9 31
560 1 9 32
561 1 9 33
562 1 9 34
563 1 9 35
564 1 9 36
565 1 9 37
566 1 9 38
567 1 9 39
568 1 9 40
569 1 9 41
570 1 9 42
571 1 9 43
572 1 9 44
573 1 9 45
574 1 9 46
575 1 9 47
576 1 9 48
577 1 9 49
578 1 9 50
579 1 9 51
580 1 9 52
581 1 9 53
582 1 9 54
583 1 9 55
584 1 9 56
585 1 9 57
586 1 9 58
587 1 9 59
588 1 9 60
589 1 9 61
590 1 9 62
591 1 9 63
592 1 9 64
593 1 9 65
594 1 9 66
595 1 10 1
596 1 10 2
597 1 10 3
598 1 10 4
599 1 10 5
600 1 10 6
601 1 10 7
602 1 10 8
603 1 10 9
604 1 10 10
605 1 10 11
606 1 10 12
607 1 10 13
608 1 10 14
609 1 10 15
610 1 10 16
611 1 10 17
612 1 10 18
613 1 10 19
614 1 10 20
615 1 10 21
616 1 10 22
617 1 10 23
618 1 10 24
619 1 10 25
620 1 10 26
621 1 10 27
622 1 10 28
623 1 10 29
624 1 10 30
625 1 10 31
626 1 10 32
627 1 10 33
628 1 10 34
629 1 10 35
630 1 10 36
631 1 10 37
632 1 10 38
633 1 10 39
634 1 10 40
635 1 10 41
636 1 10 42
637 1 10 43
638 1 10 44
639 1 10 45
640 1 10 46
641 1 10 47
642 1 10 48
643 1 10 49
644 1 10 50
645 1 10 51
646 1 10 52
647 1 10 53
648 1 10 54
649 1 10 55
650 1 10 56
651 1 10 57
652 1 10 58
653 1 10 59
654 1 10 60
655 1 10 61
656 1 10 62
657 1 10 63
658 1 10 64
659 1 10 65
660 1 10 66
661 1 11 1
662 1 11 2
663 1 11 3
664 1 11 4
665 1 11 5
666 1 11 6
667 1 11 7
668 1 11 8
669 1 11 9
670 1 11 10
671 1 11 11
672 1 11 12
673 1 11 13
674 1 11 14
675 1 11 15
676 1 11 16
677 1 11 17
678 1 11 18
679 1 11 19
680 1 11 20
681 1 11 21
682 1 11 22
683 1 11 23
684 1 11 24
685 1 11 25
686 1 11 26
687 1 11 27
688 1 11 28
689 1 11 29
690 1 11 30
691 1 11 31
692 1 11 32
693 1 11 33
694 1 11 34
695 1 11 35
696 1 11 36
697 1 11 37
698 1 11 38
699 1 11 39
700 1 11 40
701 1 11 41
702 1 11 42
703 1 11 43
704 1 11 44
705 1 11 45
706 1 11 46
707 1 11 47
708 1 11 48
709 1 11 49
710 1 11 50
711 1 11 51
712 1 11 52
713 1 11 53
714 1 11 54
715 1 11 55
716 1 11 56
717 1 11 57
718 1 11 58
719 1 11 59
720 1 11 60
721 1 11 61
722 1 11 62
723 1 11 63
724 1 11 64
725 1 11 65
726 1 11 66
727 1 12 1
728 1 12 2
729 1 12 3
730 1 12 4
731 1 12 5
732 1 12 6
733 1 12 7
734 1 12 8
735 1 12 9
736 1 12 10
737 1 12 11
738 1 12 12
739 1 12 13
740 1 12 14
741 1 12 15
742 1 12 16
743 1 12 17
744 1 12 18
745 1 12 19
746 1 12 20
747 1 12 21
748 1 12 22
749 1 12 23
750 1 12 24
751 1 12 25
752 1 12 26
753 1 12 27
754 1 12 28
755 1 12 29
756 1 12 30
757 1 12 31
758 1 12 32
759 1 12 33
760 1 12 34
761 1 12 35
762 1 12 36
763 1 12 37
764 1 12 38
765 1 12 39
766 1 12 40
767 1 12 41
768 1 12 42
769 1 12 43
770 1 12 44
771 1 12 45
772 1 12 46
773 1 12 47
774 1 12 48
775 1 12 49
776 1 12 50
777 1 12 51
778 1 12 52
779 1 12 53
780 1 12 54
781 1 12 55
782 1 12 56
783 1 12 57
784 1 12 58
785 1 12 59
786 1 12 60
787 1 12 61
788 1 12 62
789 1 12 63
790 1 12 64
791 1 12 65
792 1 12 66
793 1 13 1
794 1 13 2
795 1 13 3
796 1 13 4
797 1 13 5
798 1 13 6
799 1 13 7
800 1 13 8
801 1 13 9
802 1 13 10
803 1 13 11
804 1 13 12
805 1 13 13
806 1 13 14
807 1 13 15
808 1 13 16
809 1 13 17
810 1 13 18
811 1 13 19
812 1 13 20
813 1 13 21
814 1 13 22
815 1 13 23
816 1 13 24
817 1 13 25
818 1 13 26
819 1 13 27
820 1 13 28
821 1 13 29
822 1 13 30
823 1 13 31
824 1 13 32
825 1 13 33
826 1 13 34
827 1 13 35
828 1 13 36
829 1 13 37
830 1 13 38
831 1 13 39
832 1 13 40
833 1 13 41
834 1 13 42
835 1 13 43
836 1 13 44
837 1 13 45
838 1 13 46
839 1 13 47
840 1 13 48
841 1 13 49
842 1 13 50
843 1 13 51
844 1 13 52
845 1 13 53
846 1 13 54
847 1 13 55
848 1 13 56
849 1 13 57
850 1 13 58
851 1 13 59
852 1 13 60
853 1 13 61
854 1 13 62
855 1 13 63
856 1 13 64
857 1 13 65
858 1 13 66
859 1 14 1
860 1 14 2
861 1 14 3
862 1 14 4
863 1 14 5
864 1 14 6
865 1 14 7
866 1 14 8
867 1 14 9
868 1 14 10
869 1 14 11
870 1 14 12
871 1 14 13
872 1 14 14
873 1 14 15
874 1 14 16
875 1 14 17
876 1 14 18
877 1 14 19
878 1 14 20
879 1 14 21
880 1 14 22
881 1 14 23
882 1 14 24
883 1 14 25
884 1 14 26
885 1 14 27
886 1 14 28
887 1 14 29
888 1 14 30
889 1 14 31
890 1 14 32
891 1 14 33
892 1 14 34
893 1 14 35
894 1 14 36
895 1 14 37
896 1 14 38
897 1 14 39
898 1 14 40
899 1 14 41
900 1 14 42
901 1 14 43
902 1 14 44
903 1 14 45
904 1 14 46
905 1 14 47
906 1 14 48
907 1 14 49
908 1 14 50
909 1 14 51
910 1 14 52
911 1 14 53
912 1 14 54
913 1 14 55
914 1 14 56
915 1 14 57
916 1 14 58
917 1 14 59
918 1 14 60
919 1 14 61
920 1 14 62
921 1 14 63
922 1 14 64
923 1 14 65
924 1 14 66
925 1 15 1
926 1 15 2
927 1 15 3
928 1 15 4
929 1 15 5
930 1 15 6
931 1 15 7
932 1 15 8
933 1 15 9
934 1 15 10
935 1 15 11
936 1 15 12
937 1 15 13
938 1 15 14
939 1 15 15
940 1 15 16
941 1 15 17
942 1 15 18
943 1 15 19
944 1 15 20
945 1 15 21
946 1 15 22
947 1 15 23
948 1 15 24
949 1 15 25
950 1 15 26
951 1 15 27
952 1 15 28
953 1 15 29
954 1 15 30
955 1 15 31
956 1 15 32
957 1 15 33
958 1 15 34
959 1 15 35
960 1 15 36
961 1 15 37
962 1 15 38
963 1 15 39
964 1 15 40
965 1 15 41
966 1 15 42
967 1 15 43
968 1 15 44
969 1 15 45
970 1 15 46
971 1 15 47
972 1 15 48
973 1 15 49
974 1 15 50
975 1 15 51
976 1 15 52
977 1 15 53
978 1 15 54
979 1 15 55
980 1 15 56
981 1 15 57
982 1 15 58
983 1 15 59
984 1 15 60
985 1 15 61
986 1 15 62
987 1 15 63
988 1 15 64
989 1 15 65
990 1 15 66
991 1 16 1
992 1 16 2
993 1 16 3
994 1 16 4
995 1 16 5
996 1 16 6
997 1 16 7
998 1 16 8
999 1 16 9
1000 1 16 10
1001 1 16 11
1002 1 16 12
1003 1 16 13
1004 1 16 14
1005 1 16 15
1006 1 16 16
1007 1 16 17
1008 1 16 18
1009 1 16 19
1010 1 16 20
1011 1 16 21
1012 1 16 22
1013 1 16 23
1014 1 16 24
1015 1 16 25
1016 1 16 26
1017 1 16 27
1018 1 16 28
1019 1 16 29
1020 1 16 30
1021 1 16 31
1022 1 16 32
1023 1 16 33
1024 1 16 34
1025 1 16 35
1026 1 16 36
1027 1 16 37
1028 1 16 38
1029 1 16 39
1030 1 16 40
1031 1 16 41
1032 1 16 42
1033 1 16 43
1034 1 16 44
1035 1 16 45
1036 1 16 46
1037 1 16 47
1038 1 16 48
1039 1 16 49
1040 1 16 50
1041 1 16 51
1042 1 16 52
1043 1 16 53
1044 1 16 54
1045 1 16 55
1046 1 16 56
1047 1 16 57
1048 1 16 58
1049 1 16 59
1050 1 16 60
1051 1 16 61
1052 1 16 62
1053 1 16 63
1054 1 16 64
1055 1 16 65
1056 1 16 66
1057 1 17 1
1058 1 17 2
1059 1 17 3
1060 1 17 4
1061 1 17 5
1062 1 17 6
1063 1 17 7
1064 1 17 8
1065 1 17 9
1066 1 17 10
1067 1 17 11
1068 1 17 12
1069 1 17 13
1070 1 17 14
1071 1 17 15
1072 1 17 16
1073 1 17 17
1074 1 17 18
1075 1 17 19
1076 1 17 20
1077 1 17 21
1078 1 17 22
1079 1 17 23
1080 1 17 24
1081 1 17 25
1082 1 17 26
1083 1 17 27
1084 1 17 28
1085 1 17 29
1086 1 17 30
1087 1 17 31
1088 1 17 32
1089 1 17 33
1090 1 17 34
1091 1 17 35
1092 1 17 36
1093 1 17 37
1094 1 17 38
1095 1 17 39
1096 1 17 40
1097 1 17 41
1098 1 17 42
1099 1 17 43
1100 1 17 44
1101 1 17 45
1102 1 17 46
1103 1 17 47
1104 1 17 48
1105 1 17 49
1106 1 17 50
1107 1 17 51
1108 1 17 52
1109 1 17 53
1110 1 17 54
1111 1 17 55
1112 1 17 56
1113 1 17 57
1114 1 17 58
1115 1 17 59
1116 1 17 60
1117 1 17 61
1118 1 17 62
1119 1 17 63
1120 1 17 64
1121 1 17 65
1122 1 17 66
1123 1 18 1
1124 1 18 2
1125 1 18 3
1126 1 18 4
1127 1 18 5
1128 1 18 6
1129 1 18 7
1130 1 18 8
1131 1 18 9
1132 1 18 10
1133 1 18 11
1134 1 18 12
1135 1 18 13
1136 1 18 14
1137 1 18 15
1138 1 18 16
1139 1 18 17
1140 1 18 18
1141 1 18 19
1142 1 18 20
1143 1 18 21
1144 1 18 22
1145 1 18 23
1146 1 18 24
1147 1 18 25
1148 1 18 26
1149 1 18 27
1150 1 18 28
1151 1 18 29
1152 1 18 30
1153 1 18 31
1154 1 18 32
1155 1 18 33
1156 1 18 34
1157 1 18 35
1158 1 18 36
1159 1 18 37
1160 1 18 38
1161 1 18 39
1162 1 18 40
1163 1 18 41
1164 1 18 42
1165 1 18 43
1166 1 18 44
1167 1 18 45
1168 1 18 46
1169 1 18 47
1170 1 18 48
1171 1 18 49
1172 1 18 50
1173 1 18 51
1174 1 18 52
1175 1 18 53
1176 1 18 54
1177 1 18 55
1178 1 18 56
1179 1 18 57
1180 1 18 58
1181 1 18 59
1182 1 18 60
1183 1 18 61
1184 1 18 62
1185 1 18 63
1186 1 18 64
1187 1 18 65
1188 1 18 66
1189 1 19 1
1190 1 19 2
1191 1 19 3
1192 1 19 4
1193 1 19 5
1194 1 19 6
1195 1 19 7
1196 1 19 8
1197 1 19 9
1198 1 19 10
1199 1 19 11
1200 1 19 12
1201 1 19 13
1202 1 19 14
1203 1 19 15
1204 1 19 16
1205 1 19 17
1206 1 19 18
1207 1 19 19
1208 1 19 20
1209 1 19 21
1210 1 19 22
1211 1 19 23
1212 1 19 24
1213 1 19 25
1214 1 19 26
1215 1 19 27
1216 1 19 28
1217 1 19 29
1218 1 19 30
1219 1 19 31
1220 1 19 32
1221 1 19 33
1222 1 19 34
1223 1 19 35
1224 1 19 36
1225 1 19 37
1226 1 19 38
1227 1 19 39
1228 1 19 40
1229 1 19 41
1230 1 19 42
1231 1 19 43
1232 1 19 44
1233 1 19 45
1234 1 19 46
1235 1 19 47
1236 1 19 48
1237 1 19 49
1238 1 19 50
1239 1 19 51
1240 1 19 52
1241 1 19 53
1242 1 19 54
1243 1 19 55
1244 1 19 56
1245 1 19 57
1246 1 19 58
1247 1 19 59
1248 1 19 60
1249 1 19 61
1250 1 19 62
1251 1 19 63
1252 1 19 64
1253 1 19 65
1254 1 19 66
1255 1 20 1
1256 1 20 2
1257 1 20 3
1258 1 20 4
1259 1 20 5
1260 1 20 6
1261 1 20 7
1262 1 20 8
1263 1 20 9
1264 1 20 10
1265 1 20 11
1266 1 20 12
1267 1 20 13
1268 1 20 14
1269 1 20 15
1270 1 20 16
1271 1 20 17
1272 1 20 18
1273 1 20 19
1274 1 20 20
1275 1 20 21
1276 1 20 22
1277 1 20 23
1278 1 20 24
1279 1 20 25
1280 1 20 26
1281 1 20 27
1282 1 20 28
1283 1 20 29
1284 1 20 30
1285 1 20 31
1286 1 20 32
1287 1 20 33
1288 1 20 34
1289 1 20 35
1290 1 20 36
1291 1 20 37
1292 1 20 38
1293 1 20 39
1294 1 20 40
1295 1 20 41
1296 1 20 42
1297 1 20 43
1298 1 20 44
1299 1 20 45
1300 1 20 46
1301 1 20 47
1302 1 20 48
1303 1 20 49
1304 1 20 50
1305 1 20 51
1306 1 20 52
1307 1 20 53
1308 1 20 54
1309 1 20 55
1310 1 20 56
1311 1 20 57
1312 1 20 58
1313 1 20 59
1314 1 20 60
1315 1 20 61
1316 1 20 62
1317 1 20 63
1318 1 20 64
1319 1 20 65
1320 1 20 66
1321 1 21 1
1322 1 21 2
1323 1 21 3
1324 1 21 4
1325 1 21 5
1326 1 21 6
1327 1 21 7
1328 1 21 8
1329 1 21 9
1330 1 21 10
1331 1 21 11
1332 1 21 12
1333 1 21 13
1334 1 21 14
1335 1 21 15
1336 1 21 16
1337 1 21 17
1338 1 21 18
1339 1 21 19
1340 1 21 20
1341 1 21 21
1342 1 21 22
1343 1 21 23
1344 1 21 24
1345 1 21 25
1346 1 21 26
1347 1 21 27
1348 1 21 28
1349 1 21 29
1350 1 21 30
1351 1 21 31
1352 1 21 32
1353 1 21 33
1354 1 21 34
1355 1 21 35
1356 1 21 36
1357 1 21 37
1358 1 21 38
1359 1 21 39
1360 1 21 40
1361 1 21 41
1362 1 21 42
1363 1 21 43
1364 1 21 44
1365 1 21 45
1366 1 21 46
1367 1 21 47
1368 1 21 48
1369 1 21 49
1370 1 21 50
1371 1 21 51
1372 1 21 52
1373 1 21 53
1374 1 21 54
1375 1 21 55
1376 1 21 56
1377 1 21 57
1378 1 21 58
1379 1 21 59
1380 1 21 60
1381 1 21 61
1382 1 21 62
1383 1 21 63
1384 1 21 64
1385 1 21 65
1386 1 21 66
1387 1 22 1
1388 1 22 2
1389 1 22 3
1390 1 22 4
1391 1 22 5
1392 1 22 6
1393 1 22 7
1394 1 22 8
1395 1 22 9
1396 1 22 10
1397 1 22 11
1398 1 22 12
1399 1 22 13
1400 1 22 14
1401 1 22 15
1402 1 22 16
1403 1 22 17
1404 1 22 18
1405 1 22 19
1406 1 22 20
1407 1 22 21
1408 1 22 22
1409 1 22 23
1410 1 22 24
1411 1 22 25
1412 1 22 26
1413 1 22 27
1414 1 22 28
1415 1 22 29
1416 1 22 30
1417 1 22 31
1418 1 22 32
1419 1 22 33
1420 1 22 34
1421 1 22 35
1422 1 22 36
1423 1 22 37
1424 1 22 38
1425 1 22 39
1426 1 22 40
1427 1 22 41
1428 1 22 42
1429 1 22 43
1430 1 22 44
1431 1 22 45
1432 1 22 46
1433 1 22 47
1434 1 22 48
1435 1 22 49
1436 1 22 50
1437 1 22 51
1438 1 22 52
1439 1 22 53
1440 1 22 54
1441 1 22 55
1442 1 22 56
1443 1 22 57
1444 1 22 58
1445 1 22 59
1446 1 22 60
1447 1 22 61
1448 1 22 62
1449 1 22 63
1450 1 22 64
1451 1 22 65
1452 1 22 66
1453 1 23 1
1454 1 23 2
1455 1 23 3
1456 1 23 4
1457 1 23 5
1458 1 23 6
1459 1 23 7
1460 1 23 8
1461 1 23 9
1462 1 23 10
1463 1 23 11
1464 1 23 12
1465 1 23 13
1466 1 23 14
1467 1 23 15
1468 1 23 16
1469 1 23 17
1470 1 23 18
1471 1 23 19
1472 1 23 20
1473 1 23 21
1474 1 23 22
1475 1 23 23
1476 1 23 24
1477 1 23 25
1478 1 23 26
1479 1 23 27
1480 1 23 28
1481 1 23 29
1482 1 23 30
1483 1 23 31
1484 1 23 32
1485 1 23 33
1486 1 23 34
1487 1 23 35
1488 1 23 36
1489 1 23 37
1490 1 23 38
1491 1 23 39
1492 1 23 40
1493 1 23 41
1494 1 23 42
1495 1 23 43
1496 1 23 44
1497 1 23 45
1498 1 23 46
1499 1 23 47
1500 1 23 48
1501 1 23 49
1502 1 23 50
1503 1 23 51
1504 1 23 52
1505 1 23 53
1506 1 23 54
1507 1 23 55
1508 1 23 56
1509 1 23 57
1510 1 23 58
1511 1 23 59
1512 1 23 60
1513 1 23 61
1514 1 23 62
1515 1 23 63
1516 1 23 64
1517 1 23 65
1518 1 23 66
1519 1 24 1
1520 1 24 2
1521 1 24 3
1522 1 24 4
1523 1 24 5
1524 1 24 6
1525 1 24 7
1526 1 24 8
1527 1 24 9
1528 1 24 10
1529 1 24 11
1530 1 24 12
1531 1 24 13
1532 1 24 14
1533 1 24 15
1534 1 24 16
1535 1 24 17
1536 1 24 18
1537 1 24 19
1538 1 24 20
1539 1 24 21
1540 1 24 22
1541 1 24 23
1542 1 24 24
1543 1 24 25
1544 1 24 26
1545 1 24 27
1546 1 24 28
1547 1 24 29
1548 1 24 30
1549 1 24 31
1550 1 24 32
1551 1 24 33
1552 1 24 34
1553 1 24 35
1554 1 24 36
1555 1 24 37
1556 1 24 38
1557 1 24 39
1558 1 24 40
1559 1 24 41
1560 1 24 42
1561 1 24 43
1562 1 24 44
1563 1 24 45
1564 1 24 46
1565 1 24 47
1566 1 24 48
1567 1 24 49
1568 1 24 50
1569 1 24 51
1570 1 24 52
1571 1 24 53
1572 1 24 54
1573 1 24 55
1574 1 24 56
1575 1 24 57
1576 1 24 58
1577 1 24 59
1578 1 24 60
1579 1 24 61
1580 1 24 62
1581 1 24 63
1582 1 24 64
1583 1 24 65
1584 1 24 66
1585 1 25 1
1586 1 25 2
1587 1 25 3
1588 1 25 4
1589 1 25 5
1590 1 25 6
1591 1 25 7
1592 1 25 8
1593 1 25 9
1594 1 25 10
1595 1 25 11
1596 1 25 12
1597 1 25 13
1598 1 25 14
1599 1 25 15
1600 1 25 16
1601 1 25 17
1602 1 25 18
1603 1 25 19
1604 1 25 20
1605 1 25 21
1606 1 25 22
1607 1 25 23
1608 1 25 24
1609 1 25 25
1610 1 25 26
1611 1 25 27
1612 1 25 28
1613 1 25 29
1614 1 25 30
1615 1 25 31
1616 1 25 32
1617 1 25 33
1618 1 25 34
1619 1 25 35
1620 1 25 36
1621 1 25 37
1622 1 25 38
1623 1 25 39
1624 1 25 40
1625 1 25 41
1626 1 25 42
1627 1 25 43
1628 1 25 44
1629 1 25 45
1630 1 25 46
1631 1 25 47
1632 1 25 48
1633 1 25 49
1634 1 25 50
1635 1 25 51
1636 1 25 52
1637 1 25 53
1638 1 25 54
1639 1 25 55
1640 1 25 56
1641 1 25 57
1642 1 25 58
1643 1 25 59
1644 1 25 60
1645 1 25 61
1646 1 25 62
1647 1 25 63
1648 1 25 64
1649 1 25 65
1650 1 25 66
1651 1 26 1
1652 1 26 2
1653 1 26 3
1654 1 26 4
1655 1 26 5
1656 1 26 6
1657 1 26 7
1658 1 26 8
1659 1 26 9
1660 1 26 10
1661 1 26 11
1662 1 26 12
1663 1 26 13
1664 1 26 14
1665 1 26 15
1666 1 26 16
1667 1 26 17
1668 1 26 18
1669 1 26 19
1670 1 26 20
1671 1 26 21
1672 1 26 22
1673 1 26 23
1674 1 26 24
1675 1 26 25
1676 1 26 26
1677 1 26 27
1678 1 26 28
1679 1 26 29
1680 1 26 30
1681 1 26 31
1682 1 26 32
1683 1 26 33
1684 1 26 34
1685 1 26 35
1686 1 26 36
1687 1 26 37
1688 1 26 38
1689 1 26 39
1690 1 26 40
1691 1 26 41
1692 1 26 42
1693 1 26 43
1694 1 26 44
1695 1 26 45
1696 1 26 46
1697 1 26 47
1698 1 26 48
1699 1 26 49
1700 1 26 50
1701 1 26 51
1702 1 26 52
1703 1 26 53
1704 1 26 54
1705 1 26 55
1706 1 26 56
1707 1 26 57
1708 1 26 58
1709 1 26 59
1710 1 26 60
1711 1 26 61
1712 1 26 62
1713 1 26 63
1714 1 26 64
1715 1 26 65
1716 1 26 66
1717 1 27 1
1718 1 27 2
1719 1 27 3
1720 1 27 4
1721 1 27 5
1722 1 27 6
1723 1 27 7
1724 1 27 8
1725 1 27 9
1726 1 27 10
1727 1 27 11
1728 1 27 12
1729 1 27 13
1730 1 27 14
1731 1 27 15
1732 1 27 16
1733 1 27 17
1734 1 27 18
1735 1 27 19
1736 1 27 20
1737 1 27 21
1738 1 27 22
1739 1 27 23
1740 1 27 24
1741 1 27 25
1742 1 27 26
1743 1 27 27
1744 1 27 28
1745 1 27 29
1746 1 27 30
1747 1 27 31
1748 1 27 32
1749 1 27 33
1750 1 27 34
1751 1 27 35
1752 1 27 36
1753 1 27 37
1754 1 27 38
1755 1 27 39
1756 1 27 40
1757 1 27 41
1758 1 27 42
1759 1 27 43
1760 1 27 44
1761 1 27 45
1762 1 27 46
1763 1 27 47
1764 1 27 48
1765 1 27 49
1766 1 27 50
1767 1 27 51
1768 1 27 52
1769 1 27 53
1770 1 27 54
1771 1 27 55
1772 1 27 56
1773 1 27 57
1774 1 27 58
1775 1 27 59
1776 1 27 60
1777 1 27 61
1778 1 27 62
1779 1 27 63
1780 1 27 64
1781 1 27 65
1782 1 27 66
1783 1 28 1
1784 1 28 2
1785 1 28 3
1786 1 28 4
1787 1 28 5
1788 1 28 6
1789 1 28 7
1790 1 28 8
1791 1 28 9
1792 1 28 10
1793 1 28 11
1794 1 28 12
1795 1 28 13
1796 1 28 14
1797 1 28 15
1798 1 28 16
1799 1 28 17
1800 1 28 18
1801 1 28 19
1802 1 28 20
1803 1 28 21
1804 1 28 22
1805 1 28 23
1806 1 28 24
1807 1 28 25
1808 1 28 26
1809 1 28 27
1810 1 28 28
1811 1 28 29
1812 1 28 30
1813 1 28 31
1814 1 28 32
1815 1 28 33
1816 1 28 34
1817 1 28 35
1818 1 28 36
1819 1 28 37
1820 1 28 38
1821 1 28 39
1822 1 28 40
1823 1 28 41
1824 1 28 42
1825 1 28 43
1826 1 28 44
1827 1 28 45
1828 1 28 46
1829 1 28 47
1830 1 28 48
1831 1 28 49
1832 1 28 50
1833 1 28 51
1834 1 28 52
1835 1 28 53
1836 1 28 54
1837 1 28 55
1838 1 28 56
1839 1 28 57
1840 1 28 58
1841 1 28 59
1842 1 28 60
1843 1 28 61
1844 1 28 62
1845 1 28 63
1846 1 28 64
1847 1 28 65
1848 1 28 66
1849 1 29 1
1850 1 29 2
1851 1 29 3
1852 1 29 4
1853 1 29 5
1854 1 29 6
1855 1 29 7
1856 1 29 8
1857 1 29 9
1858 1 29 10
1859 1 29 11
1860 1 29 12
1861 1 29 13
1862 1 29 14
1863 1 29 15
1864 1 29 16
1865 1 29 17
1866 1 29 18
1867 1 29 19
1868 1 29 20
1869 1 29 21
1870 1 29 22
1871 1 29 23
1872 1 29 24
1873 1 29 25
1874 1 29 26
1875 1 29 27
1876 1 29 28
1877 1 29 29
1878 1 29 30
1879 1 29 31
1880 1 29 32
1881 1 29 33
1882 1 29 34
1883 1 29 35
1884 1 29 36
1885 1 29 37
1886 1 29 38
1887 1 29 39
1888 1 29 40
1889 1 29 41
1890 1 29 42
1891 1 29 43
1892 1 29 44
1893 1 29 45
1894 1 29 46
1895 1 29 47
1896 1 29 48
1897 1 29 49
1898 1 29 50
1899 1 29 51
1900 1 29 52
1901 1 29 53
1902 1 29 54
1903 1 29 55
1904 1 29 56
1905 1 29 57
1906 1 29 58
1907 1 29 59
1908 1 29 60
1909 1 29 61
1910 1 29 62
1911 1 29 63
1912 1 29 64
1913 1 29 65
1914 1 29 66
1915 1 30 1
1916 1 30 2
1917 1 30 3
1918 1 30 4
1919 1 30 5
1920 1 30 6
1921 1 30 7
1922 1 30 8
1923 1 30 9
1924 1 30 10
1925 1 30 11
1926 1 30 12
1927 1 30 13
1928 1 30 14
1929 1 30 15
1930 1 30 16
1931 1 30 17
1932 1 30 18
1933 1 30 19
1934 1 30 20
1935 1 30 21
1936 1 30 22
1937 1 30 23
1938 1 30 24
1939 1 30 25
1940 1 30 26
1941 1 30 27
1942 1 30 28
1943 1 30 29
1944 1 30 30
1945 1 30 31
1946 1 30 32
1947 1 30 33
1948 1 30 34
1949 1 30 35
1950 1 30 36
1951 1 30 37
1952 1 30 38
1953 1 30 39
1954 1 30 40
1955 1 30 41
1956 1 30 42
1957 1 30 43
1958 1 30 44
1959 1 30 45
1960 1 30 46
1961 1 30 47
1962 1 30 48
1963 1 30 49
1964 1 30 50
1965 1 30 51
1966 1 30 52
1967 1 30 53
1968 1 30 54
1969 1 30 55
1970 1 30 56
1971 1 30 57
1972 1 30 58
1973 1 30 59
1974 1 30 60
1975 1 30 61
1976 1 30 62
1977 1 30 63
1978 1 30 64
1979 1 30 65
1980 1 30 66
1981 1 31 1
1982 1 31 2
1983 1 31 3
1984 1 31 4
1985 1 31 5
1986 1 31 6
1987 1 31 7
1988 1 31 8
1989 1 31 9
1990 1 31 10
1991 1 31 11
1992 1 31 12
1993 1 31 13
1994 1 31 14
1995 1 31 15
1996 1 31 16
1997 1 31 17
1998 1 31 18
1999 1 31 19
2000 1 31 20
2001 1 31 21
2002 1 31 22
2003 1 31 23
2004 1 31 24
2005 1 31 25
2006 1 31 26
2007 1 31 27
2008 1 31 28
2009 1 31 29
2010 1 31 30
2011 1 31 31
2012 1 31 32
2013 1 31 33
2014 1 31 34
2015 1 31 35
2016 1 31 36
2017 1 31 37
2018 1 31 38
2019 1 31 39
2020 1 31 40
2021 1 31 41
2022 1 31 42
2023 1 31 43
2024 1 31 44
2025 1 31 45
2026 1 31 46
2027 1 31 47
2028 1 31 48
2029 1 31 49
2030 1 31 50
2031 1 31 51
2032 1 31 52
2033 1 31 53
2034 1 31 54
2035 1 31 55
2036 1 31 56
2037 1 31 57
2038 1 31 58
2039 1 31 59
2040 1 31 60
2041 1 31 61
2042 1 31 62
2043 1 31 63
2044 1 31 64
2045 1 31 65
2046 1 31 66
2047 1 32 1
2048 1 32 2
2049 1 32 3
2050 1 32 4
2051 1 32 5
2052 1 32 6
2053 1 32 7
2054 1 32 8
2055 1 32 9
2056 1 32 10
2057 1 32 11
2058 1 32 12
2059 1 32 13
2060 1 32 14
2061 1 32 15
2062 1 32 16
2063 1 32 17
2064 1 32 18
2065 1 32 19
2066 1 32 20
2067 1 32 21
2068 1 32 22
2069 1 32 23
2070 1 32 24
2071 1 32 25
2072 1 32 26
2073 1 32 27
2074 1 32 28
2075 1 32 29
2076 1 32 30
2077 1 32 31
2078 1 32 32
2079 1 32 33
2080 1 32 34
2081 1 32 35
2082 1 32 36
2083 1 32 37
2084 1 32 38
2085 1 32 39
2086 1 32 40
2087 1 32 41
2088 1 32 42
2089 1 32 43
2090 1 32 44
2091 1 32 45
2092 1 32 46
2093 1 32 47
2094 1 32 48
2095 1 32 49
2096 1 32 50
2097 1 32 51
2098 1 32 52
2099 1 32 53
2100 1 32 54
2101 1 32 55
2102 1 32 56
2103 1 32 57
2104 1 32 58
2105 1 32 59
2106 1 32 60
2107 1 32 61
2108 1 32 62
2109 1 32 63
2110 1 32 64
2111 1 32 65
2112 1 32 66
2113 1 33 1
2114 1 33 2
2115 1 33 3
2116 1 33 4
2117 1 33 5
2118 1 33 6
2119 1 33 7
2120 1 33 8
2121 1 33 9
2122 1 33 10
2123 1 33 11
2124 1 33 12
2125 1 33 13
2126 1 33 14
2127 1 33 15
2128 1 33 16
2129 1 33 17
2130 1 33 18
2131 1 33 19
2132 1 33 20
2133 1 33 21
2134 1 33 22
2135 1 33 23
2136 1 33 24
2137 1 33 25
2138 1 33 26
2139 1 33 27
2140 1 33 28
2141 1 33 29
2142 1 33 30
2143 1 33 31
2144 1 33 32
2145 1 33 33
2146 1 33 34
2147 1 33 35
2148 1 33 36
2149 1 33 37
2150 1 33 38
2151 1 33 39
2152 1 33 40
2153 1 33 41
2154 1 33 42
2155 1 33 43
2156 1 33 44
2157 1 33 45
2158 1 33 46
2159 1 33 47
2160 1 33 48
2161 1 33 49
2162 1 33 50
2163 1 33 51
2164 1 33 52
2165 1 33 53
2166 1 33 54
2167 1 33 55
2168 1 33 56
2169 1 33 57
2170 1 33 58
2171 1 33 59
2172 1 33 60
2173 1 33 61
2174 1 33 62
2175 1 33 63
2176 1 33 64
2177 1 33 65
2178 1 33 66
2179 1 34 1
2180 1 34 2
2181 1 34 3
2182 1 34 4
2183 1 34 5
2184 1 34 6
2185 1 34 7
2186 1 34 8
2187 1 34 9
2188 1 34 10
2189 1 34 11
2190 1 34 12
2191 1 34 13
2192 1 34 14
2193 1 34 15
2194 1 34 16
2195 1 34 17
2196 1 34 18
2197 1 34 19
2198 1 34 20
2199 1 34 21
2200 1 34 22
2201 1 34 23
2202 1 34 24
2203 1 34 25
2204 1 34 26
2205 1 34 27
2206 1 34 28
2207 1 34 29
2208 1 34 30
2209 1 34 31