ITEM: TIMESTEP
0
ITEM: NUMBER OF ATOMS
107
ITEM: BOX BOUNDS pp pp pp
0.0000000000000000e+00 1.0619999999999999e+01
0.0000000000000000e+00 1.0619999999999999e+01
0.0000000000000000e+00 1.0619999999999999e+01
ITEM: ATOMS id type x y z
1 1 6.175e-01 2.847e-01 4.478e-01
3 1 2.231e+00 6.227e-01 2.175e+00
4 1 5.452e-01 1.958e+00 2.072e+00
5 1 3.577e+00 2.715e-01 4.215e-01
8 1 4.136e+00 2.161e+00 2.155e+00
12 1 2.714e-01 3.966e+00 3.620e-01
13 1 2.113e+00 3.906e+00 2.115e+00
14 1 3.764e+00 3.633e+00 4.578e-01
54 1 2.185e+00 5.761e+00 4.115e-01
55 1 2.907e-01 5.547e+00 2.166e+00
60 1 3.520e-01 7.341e+00 4.482e-01
62 1 2.211e+00 7.325e+00 1.935e+00
57 1 4.069e+00 5.632e+00 2.058e+00
64 1 3.911e+00 7.734e+00 5.016e-01
61 1 1.850e+00 9.160e+00 5.236e-01
63 1 1.993e-01 9.005e+00 2.528e+00
67 1 3.949e+00 9.490e+00 2.180e+00
18 1 4.885e-01 3.026e-01 3.803e+00
19 1 2.227e+00 2.111e+00 3.917e+00
20 1 3.785e+00 5.587e-01 4.257e+00
24 1 4.009e-01 3.872e+00 3.843e+00
25 1 3.755e+00 3.614e+00 3.920e+00
72 1 2.231e+00 5.613e+00 3.776e+00
75 1 1.250e-01 7.368e+00 4.132e+00
77 1 3.948e+00 7.549e+00 3.821e+00
76 1 2.307e+00 9.116e+00 4.053e+00
27 1 1.972e+00 4.010e-01 5.683e+00
28 1 5.923e-01 2.270e+00 5.713e+00
36 1 4.922e-01 3.617e-01 7.681e+00
37 1 2.216e+00 2.240e+00 7.503e+00
30 1 3.671e+00 2.100e+00 5.762e+00
40 1 3.779e+00 3.842e-01 7.346e+00
33 1 2.074e+00 3.899e+00 5.638e+00
48 1 6.981e-02 4.325e+00 7.584e+00
50 1 3.867e+00 4.082e+00 7.485e+00
81 1 2.052e-01 5.511e+00 5.516e+00
84 1 2.242e+00 7.203e+00 5.479e+00
90 1 2.150e+00 5.528e+00 7.342e+00
96 1 3.883e-01 7.328e+00 7.193e+00
82 1 4.028e+00 5.747e+00 5.526e+00
100 1 4.103e+00 7.304e+00 7.247e+00
85 1 6.597e-01 9.404e+00 5.812e+00
97 1 2.194e+00 8.997e+00 7.349e+00
87 1 3.870e+00 9.214e+00 5.884e+00
2 1 1.999e+00 2.104e+00 1.062e+01
38 1 2.220e+00 1.232e-01 9.052e+00
43 1 3.998e+00 1.902e+00 9.180e+00
49 1 2.093e+00 3.736e+00 9.128e+00
51 1 5.300e+00 4.099e+00 9.333e+00
91 1 2.896e-01 6.097e+00 9.136e+00
98 1 2.181e+00 7.284e+00 9.194e+00
93 1 4.343e+00 6.028e+00 9.178e+00
99 1 3.965e-01 9.066e+00 9.113e+00
103 1 3.661e+00 9.005e+00 9.248e+00
6 1 5.525e+00 1.800e+00 3.984e-01
7 1 5.674e+00 2.701e-01 2.266e+00
9 1 7.483e+00 3.647e-01 4.347e-01
11 1 7.089e+00 2.105e+00 2.342e+00
10 1 9.363e+00 6.207e-01 2.490e+00
15 1 5.880e+00 3.994e+00 2.051e+00
16 1 7.242e+00 3.758e+00 2.070e-01
17 1 9.056e+00 3.469e+00 2.143e+00
56 1 5.744e+00 5.626e+00 3.834e-01
59 1 7.612e+00 5.500e+00 1.759e+00
66 1 5.716e+00 7.324e+00 2.330e+00
68 1 7.550e+00 7.712e+00 4.562e-01
58 1 9.163e+00 5.698e+00 3.538e-02
70 1 9.156e+00 7.496e+00 2.146e+00
65 1 5.461e+00 9.492e+00 3.930e-01
71 1 7.375e+00 9.488e+00 1.982e+00
69 1 9.572e+00 9.339e+00 4.399e-01
21 1 5.486e+00 2.142e+00 4.021e+00
22 1 7.310e+00 4.809e-01 4.014e+00
23 1 9.265e+00 1.998e+00 4.101e+00
26 1 7.635e+00 4.009e+00 3.933e+00
73 1 5.810e+00 5.630e+00 3.929e+00
79 1 7.514e+00 7.493e+00 3.808e+00
74 1 9.078e+00 5.928e+00 3.918e+00
78 1 5.551e+00 9.187e+00 3.785e+00
80 1 9.133e+00 9.133e+00 4.089e+00
29 1 5.615e+00 4.887e-01 5.798e+00
32 1 7.339e+00 2.285e+00 5.749e+00
41 1 5.709e+00 1.971e+00 7.604e+00
44 1 7.635e+00 1.812e-01 7.377e+00
31 1 9.491e+00 2.336e-01 5.523e+00
45 1 8.967e+00 1.831e+00 7.204e+00
34 1 5.323e+00 3.895e+00 5.689e+00
52 1 7.416e+00 3.600e+00 7.350e+00
35 1 9.209e+00 3.844e+00 5.760e+00
83 1 7.412e+00 5.722e+00 5.817e+00
86 1 5.773e+00 7.387e+00 5.318e+00
92 1 5.642e+00 5.668e+00 7.256e+00
104 1 7.505e+00 7.699e+00 7.293e+00
88 1 9.235e+00 7.674e+00 5.670e+00
94 1 9.087e+00 5.631e+00 7.371e+00
89 1 7.388e+00 9.438e+00 5.770e+00
101 1 5.691e+00 9.219e+00 7.322e+00
105 1 9.442e+00 9.425e+00 7.486e+00
42 1 5.562e+00 1.618e-01 9.036e+00
47 1 7.434e+00 1.591e+00 9.014e+00
39 1 1.053e+01 1.967e+00 8.917e+00
46 1 9.422e+00 2.175e-01 9.263e+00
53 1 9.020e+00 3.870e+00 9.188e+00
95 1 7.396e+00 5.711e+00 8.938e+00
102 1 5.794e+00 7.600e+00 9.216e+00
106 1 9.042e+00 7.630e+00 9.011e+00
107 1 7.388e+00 9.530e+00 9.167e+00
ITEM: TIMESTEP
1000
ITEM: NUMBER OF ATOMS
107
ITEM: BOX BOUNDS pp pp pp
0.0000000000000000e+00 1.0619999999999999e+01
0.0000000000000000e+00 1.0619999999999999e+01
0.0000000000000000e+00 1.0619999999999999e+01
ITEM: ATOMS id type x y z
3 1 2.298e+00 7.388e-01 2.200e+00
4 1 4.835e-01 2.079e+00 2.080e+00
2 1 2.214e+00 2.133e+00 2.497e-01
1 1 3.580e-01 2.879e-01 3.205e-01
5 1 3.836e+00 4.159e-01 4.869e-01
8 1 3.998e+00 2.134e+00 2.260e+00
12 1 6.738e-01 3.888e+00 2.571e-01
13 1 2.285e+00 3.740e+00 2.233e+00
14 1 3.935e+00 3.791e+00 4.257e-01
54 1 2.110e+00 5.687e+00 4.153e-01
55 1 2.920e-01 5.659e+00 2.139e+00
60 1 4.732e-01 7.598e+00 8.007e-02
62 1 1.973e+00 7.396e+00 2.063e+00
57 1 3.693e+00 5.611e+00 2.085e+00
64 1 3.833e+00 7.622e+00 5.085e-01
61 1 2.053e+00 9.457e+00 7.549e-01
63 1 3.855e-01 9.610e+00 2.291e+00
67 1 3.830e+00 9.414e+00 2.419e+00
18 1 5.369e-01 3.883e-01 4.149e+00
19 1 2.158e+00 2.397e+00 4.165e+00
20 1 4.075e+00 4.934e-01 4.084e+00
24 1 3.212e-01 3.870e+00 4.026e+00
25 1 3.936e+00 4.007e+00 3.939e+00
72 1 2.149e+00 5.851e+00 3.735e+00
75 1 1.652e-01 7.521e+00 4.130e+00
77 1 3.592e+00 7.471e+00 3.779e+00
76 1 2.059e+00 9.098e+00 3.954e+00
27 1 1.895e+00 2.163e-01 5.889e+00
36 1 1.133e-01 3.066e-01 7.320e+00
37 1 2.353e+00 1.974e+00 7.522e+00
28 1 1.662e-01 2.347e+00 5.804e+00
30 1 3.703e+00 1.898e+00 5.779e+00
40 1 3.847e+00 1.173e-01 7.708e+00
33 1 2.106e+00 4.261e+00 5.519e+00
48 1 4.925e-01 4.088e+00 7.223e+00
50 1 3.930e+00 4.052e+00 7.410e+00
84 1 2.242e+00 7.757e+00 5.892e+00
81 1 7.133e-01 6.043e+00 5.583e+00
90 1 2.132e+00 5.630e+00 7.248e+00
96 1 2.387e-01 7.461e+00 7.463e+00
82 1 3.811e+00 5.719e+00 5.510e+00
100 1 4.168e+00 7.474e+00 7.727e+00
85 1 5.685e-01 9.106e+00 5.700e+00
97 1 2.020e+00 9.029e+00 7.571e+00
87 1 4.060e+00 9.073e+00 5.580e+00
39 1 2.522e-01 2.236e+00 8.762e+00
38 1 2.032e+00 1.901e-01 8.978e+00
43 1 4.058e+00 1.947e+00 9.169e+00
49 1 2.144e+00 3.780e+00 9.030e+00
91 1 4.221e-01 5.325e+00 9.406e+00
98 1 2.225e+00 7.050e+00 9.093e+00
93 1 4.008e+00 5.675e+00 9.248e+00
99 1 1.795e-01 9.427e+00 8.923e+00
103 1 3.315e+00 9.093e+00 9.585e+00
7 1 5.714e+00 3.120e-01 2.153e+00
9 1 7.475e+00 4.552e-01 3.604e-01
11 1 7.384e+00 2.106e+00 2.167e+00
6 1 5.765e+00 2.112e+00 2.879e-01
10 1 9.309e+00 7.045e-01 1.742e+00
15 1 5.718e+00 3.762e+00 2.158e+00
16 1 7.526e+00 3.801e+00 2.708e-01
17 1 9.226e+00 3.623e+00 1.873e+00
66 1 5.897e+00 7.479e+00 1.681e+00
59 1 7.540e+00 5.360e+00 2.086e+00
68 1 7.513e+00 7.234e+00 1.680e-01
56 1 5.530e+00 5.404e+00 5.020e-01
58 1 9.343e+00 5.509e+00 3.510e-01
70 1 9.527e+00 7.372e+00 2.394e+00
65 1 5.447e+00 9.287e+00 4.920e-01
71 1 7.464e+00 9.216e+00 1.793e+00
69 1 9.376e+00 9.128e+00 6.529e-01
21 1 5.742e+00 2.067e+00 3.683e+00
22 1 7.552e+00 3.325e-01 3.811e+00
23 1 9.275e+00 1.995e+00 4.017e+00
26 1 7.206e+00 3.925e+00 3.939e+00
73 1 5.566e+00 5.734e+00 3.565e+00
79 1 7.612e+00 7.377e+00 3.631e+00
86 1 5.531e+00 7.441e+00 5.244e+00
74 1 9.203e+00 5.589e+00 3.923e+00
78 1 5.547e+00 8.778e+00 3.587e+00
80 1 9.233e+00 9.345e+00 3.690e+00
29 1 5.611e+00 3.870e-01 5.788e+00
44 1 7.439e+00 3.102e-01 7.446e+00
32 1 7.617e+00 2.154e+00 5.548e+00
41 1 5.660e+00 2.263e+00 7.208e+00
45 1 9.068e+00 2.015e+00 7.446e+00
31 1 9.212e+00 9.385e-02 5.727e+00
34 1 5.530e+00 4.040e+00 5.503e+00
52 1 7.613e+00 3.984e+00 7.544e+00
35 1 9.101e+00 4.212e+00 5.843e+00
83 1 7.250e+00 5.659e+00 5.731e+00
92 1 5.718e+00 5.630e+00 7.573e+00
104 1 6.985e+00 7.396e+00 7.186e+00
88 1 8.994e+00 7.371e+00 5.650e+00
94 1 9.001e+00 6.019e+00 7.561e+00
101 1 5.590e+00 9.329e+00 7.314e+00
89 1 7.375e+00 9.119e+00 5.372e+00
105 1 9.184e+00 9.158e+00 7.420e+00
42 1 5.741e+00 1.974e-01 9.225e+00
47 1 7.301e+00 1.891e+00 9.022e+00
46 1 9.174e+00 3.660e-01 9.216e+00
51 1 5.796e+00 3.857e+00 9.309e+00
53 1 9.124e+00 3.866e+00 9.390e+00
95 1 7.274e+00 5.762e+00 9.263e+00
102 1 5.522e+00 7.544e+00 9.475e+00
106 1 9.330e+00 7.388e+00 9.486e+00
107 1 7.547e+00 9.081e+00 9.404e+00
ITEM: TIMESTEP
2000
ITEM: NUMBER OF ATOMS
107
ITEM: BOX BOUNDS pp pp pp
0.0000000000000000e+00 1.0619999999999999e+01
0.0000000000000000e+00 1.0619999999999999e+01
0.0000000000000000e+00 1.0619999999999999e+01
ITEM: ATOMS id type x y z
3 1 2.587e+00 2.191e-01 2.248e+00
1 1 3.580e-01 8.024e-01 3.221e-01
2 1 2.399e+00 2.093e+00 5.720e-01
4 1 4.009e-01 2.199e+00 2.248e+00
5 1 4.153e+00 4.159e-01 2.827e-01
8 1 3.963e+00 2.137e+00 2.297e+00
13 1 2.227e+00 4.035e+00 2.012e+00
12 1 4.607e-01 3.874e+00 4.839e-01
54 1 1.925e+00 5.721e+00 2.708e-01
55 1 1.775e-01 5.774e+00 2.368e+00
60 1 2.238e-01 7.275e+00 4.429e-01
62 1 1.954e+00 7.524e+00 2.158e+00
57 1 3.992e+00 5.459e+00 1.822e+00
64 1 3.692e+00 7.521e+00 6.269e-01
61 1 1.956e+00 9.293e+00 3.622e-01
63 1 8.539e-02 9.177e+00 2.133e+00
67 1 3.823e+00 9.065e+00 2.257e+00
18 1 1.108e-01 5.777e-01 3.792e+00
19 1 2.054e+00 2.064e+00 3.853e+00
20 1 3.853e+00 3.668e-01 4.156e+00
24 1 7.047e-01 3.903e+00 3.897e+00
25 1 4.115e+00 3.667e+00 4.003e+00
72 1 2.123e+00 5.689e+00 3.991e+00
75 1 4.325e-01 7.242e+00 3.874e+00
77 1 3.781e+00 7.442e+00 3.899e+00
76 1 1.728e+00 9.217e+00 3.786e+00
27 1 2.070e+00 3.511e-01 5.595e+00
37 1 1.960e+00 2.153e+00 7.237e+00
28 1 2.987e-01 2.416e+00 5.360e+00
30 1 4.016e+00 2.103e+00 5.841e+00
40 1 3.781e+00 2.828e-01 7.570e+00
33 1 2.269e+00 3.622e+00 5.618e+00
48 1 2.598e-01 3.934e+00 7.926e+00
50 1 3.814e+00 4.017e+00 7.399e+00
81 1 4.842e-01 5.449e+00 5.629e+00
90 1 2.150e+00 5.662e+00 7.544e+00
96 1 3.207e-01 7.341e+00 7.833e+00
84 1 1.947e+00 7.468e+00 5.719e+00
82 1 4.005e+00 5.679e+00 5.492e+00
100 1 3.576e+00 7.661e+00 7.551e+00
85 1 3.582e-01 9.158e+00 5.552e+00
97 1 2.136e+00 9.473e+00 7.597e+00
87 1 3.730e+00 9.031e+00 5.614e+00
39 1 3.661e-01 2.148e+00 9.202e+00
38 1 2.008e+00 4.190e-01 9.182e+00
43 1 3.836e+00 2.049e+00 8.789e+00
49 1 2.226e+00 3.855e+00 9.245e+00
14 1 3.952e+00 3.860e+00 1.057e+01
91 1 4.569e-02 5.587e+00 9.505e+00
98 1 2.291e+00 7.650e+00 9.432e+00
93 1 3.880e+00 5.786e+00 9.307e+00
99 1 3.987e-01 9.128e+00 9.492e+00
103 1 3.914e+00 9.213e+00 9.176e+00
7 1 5.663e+00 2.367e-01 2.070e+00
9 1 7.512e+00 1.118e-01 3.151e-01
11 1 7.332e+00 1.991e+00 2.021e+00
10 1 9.290e+00 6.083e-01 1.840e+00
15 1 5.643e+00 3.749e+00 2.097e+00
16 1 7.386e+00 3.890e+00 2.936e-01
17 1 9.178e+00 3.880e+00 2.428e+00
66 1 5.434e+00 7.294e+00 2.418e+00
59 1 7.341e+00 5.620e+00 1.973e+00
56 1 5.684e+00 5.606e+00 2.355e-01
68 1 7.489e+00 7.140e+00 3.610e-01
58 1 9.198e+00 5.527e+00 4.915e-01
70 1 9.322e+00 7.508e+00 2.073e+00
65 1 5.706e+00 9.178e+00 4.390e-01
71 1 7.801e+00 9.387e+00 2.174e+00
69 1 9.170e+00 9.135e+00 2.966e-01
21 1 6.060e+00 2.242e+00 4.016e+00
22 1 7.436e+00 3.494e-01 3.922e+00
23 1 9.120e+00 2.188e+00 3.918e+00
26 1 7.450e+00 4.016e+00 3.777e+00
73 1 5.817e+00 5.587e+00 4.143e+00
79 1 7.449e+00 7.427e+00 3.662e+00
74 1 9.023e+00 5.789e+00 3.954e+00
78 1 5.636e+00 9.069e+00 3.865e+00
80 1 9.314e+00 9.012e+00 3.851e+00
41 1 6.055e+00 2.247e+00 7.358e+00
44 1 7.438e+00 3.136e-01 7.594e+00
32 1 7.414e+00 2.047e+00 5.632e+00
29 1 5.618e+00 2.581e-01 5.790e+00
31 1 9.172e+00 1.957e-01 5.460e+00
45 1 9.092e+00 2.322e+00 7.463e+00
36 1 1.061e+01 8.743e-01 7.249e+00
52 1 7.425e+00 4.139e+00 7.193e+00
34 1 5.803e+00 3.850e+00 5.566e+00
35 1 9.153e+00 4.291e+00 5.579e+00
83 1 7.433e+00 5.945e+00 5.652e+00
104 1 7.639e+00 7.182e+00 7.247e+00
86 1 5.707e+00 7.454e+00 5.696e+00
92 1 5.331e+00 5.815e+00 7.457e+00
94 1 9.273e+00 5.489e+00 7.828e+00
88 1 9.452e+00 7.350e+00 5.598e+00
89 1 7.643e+00 9.111e+00 5.487e+00
101 1 5.736e+00 9.222e+00 7.378e+00
105 1 9.531e+00 9.401e+00 7.222e+00
42 1 5.496e+00 5.271e-01 8.777e+00
47 1 7.519e+00 1.844e+00 9.174e+00
6 1 5.836e+00 2.139e+00 1.051e+01
51 1 5.649e+00 4.003e+00 8.944e+00
53 1 9.317e+00 3.519e+00 9.593e+00
95 1 7.175e+00 5.815e+00 9.094e+00
102 1 5.320e+00 7.450e+00 9.048e+00
106 1 9.029e+00 7.451e+00 9.241e+00
107 1 7.315e+00 9.162e+00 9.067e+00
46 1 9.502e+00 1.059e+01 9.312e+00
ITEM: TIMESTEP
3000
ITEM: NUMBER OF ATOMS
107
ITEM: BOX BOUNDS pp pp pp
0.0000000000000000e+00 1.0619999999999999e+01
0.0000000000000000e+00 1.0619999999999999e+01
0.0000000000000000e+00 1.0619999999999999e+01
ITEM: ATOMS id type x y z
4 1 3.308e-01 2.077e+00 2.068e+00
1 1 3.922e-01 1.808e-01 4.213e-01
7 1 5.248e+00 3.735e-01 1.898e+00
8 1 3.162e+00 2.119e+00 1.731e+00
12 1 4.009e-01 4.062e+00 5.274e-01
13 1 1.961e+00 3.802e+00 2.108e+00
14 1 3.679e+00 3.675e+00 2.650e-01
55 1 4.205e-01 5.699e+00 2.051e+00
54 1 2.206e+00 5.665e+00 4.047e-01
62 1 2.179e+00 7.265e+00 2.069e+00
60 1 5.075e-02 7.554e+00 4.738e-01
57 1 4.147e+00 5.553e+00 1.842e+00
64 1 3.973e+00 7.427e+00 3.424e-01
3 1 2.081e+00 1.052e+01 2.289e+00
61 1 2.012e+00 9.060e+00 4.502e-01
63 1 3.354e-01 9.200e+00 2.038e+00
67 1 3.909e+00 9.239e+00 1.815e+00
18 1 6.279e-01 5.008e-01 3.957e+00
19 1 2.525e+00 2.374e+00 4.003e+00
20 1 3.816e+00 4.729e-01 3.839e+00
24 1 7.094e-01 3.957e+00 4.050e+00
25 1 4.038e+00 4.159e+00 3.935e+00
72 1 1.970e+00 6.029e+00 4.068e+00
75 1 1.227e-01 7.387e+00 3.869e+00
77 1 4.066e+00 7.193e+00 3.509e+00
76 1 2.141e+00 8.990e+00 3.745e+00
37 1 2.444e+00 2.196e+00 7.255e+00
28 1 7.811e-01 1.886e+00 5.676e+00
36 1 4.090e-01 7.981e-01 7.547e+00
27 1 2.476e+00 4.045e-01 5.676e+00
40 1 3.904e+00 1.609e-01 7.282e+00
30 1 4.126e+00 2.160e+00 5.561e+00
41 1 5.287e+00 2.008e+00 7.519e+00
33 1 2.258e+00 4.174e+00 5.720e+00
48 1 5.727e-01 3.655e+00 7.200e+00
50 1 3.956e+00 4.085e+00 7.529e+00
90 1 2.101e+00 5.911e+00 7.485e+00
96 1 3.552e-01 7.223e+00 7.334e+00
84 1 2.308e+00 7.499e+00 5.813e+00
81 1 5.098e-01 5.619e+00 5.961e+00
82 1 4.033e+00 5.885e+00 5.563e+00
100 1 3.883e+00 7.549e+00 7.276e+00
97 1 1.663e+00 9.579e+00 7.454e+00
85 1 6.609e-01 9.395e+00 5.493e+00
87 1 4.198e+00 9.157e+00 5.449e+00
38 1 1.881e+00 6.122e-01 9.178e+00
2 1 1.427e+00 2.295e+00 1.058e+01
43 1 3.755e+00 2.007e+00 9.319e+00
5 1 3.567e+00 1.728e-01 1.055e+01
49 1 2.268e+00 3.658e+00 8.955e+00
91 1 3.683e-01 5.674e+00 9.323e+00
98 1 1.767e+00 7.434e+00 9.323e+00
93 1 3.659e+00 5.417e+00 9.349e+00
99 1 4.262e-01 9.249e+00 9.152e+00
103 1 3.428e+00 9.171e+00 9.050e+00
11 1 7.775e+00 1.874e+00 2.052e+00
9 1 7.279e+00 3.365e-01 4.096e-01
6 1 5.507e+00 1.962e+00 3.210e-01
39 1 9.428e+00 2.239e+00 4.136e-01
10 1 9.517e+00 2.583e-01 2.380e+00
16 1 7.164e+00 3.619e+00 3.253e-01
15 1 5.557e+00 3.876e+00 2.209e+00
17 1 9.383e+00 3.920e+00 2.436e+00
66 1 5.857e+00 7.381e+00 1.814e+00
59 1 7.458e+00 5.317e+00 1.946e+00
56 1 5.736e+00 5.412e+00 1.610e-01
68 1 7.486e+00 7.622e+00 1.312e-01
58 1 9.222e+00 5.594e+00 3.584e-01
70 1 9.019e+00 7.565e+00 2.247e+00
65 1 5.839e+00 9.111e+00 8.616e-02
71 1 7.420e+00 9.351e+00 2.179e+00
69 1 9.164e+00 9.292e+00 2.687e-01
21 1 5.858e+00 2.088e+00 4.026e+00
22 1 7.397e+00 8.471e-02 4.186e+00
23 1 9.197e+00 1.929e+00 4.134e+00
26 1 7.534e+00 3.918e+00 3.694e+00
79 1 7.849e+00 7.411e+00 4.000e+00
73 1 6.055e+00 5.928e+00 3.820e+00
74 1 9.392e+00 5.526e+00 3.962e+00
78 1 5.669e+00 9.487e+00 3.741e+00
80 1 9.309e+00 9.107e+00 3.942e+00
44 1 7.388e+00 6.231e-01 7.425e+00
32 1 7.559e+00 2.525e+00 5.507e+00
29 1 5.766e+00 4.910e-01 5.823e+00
45 1 9.084e+00 2.209e+00 7.345e+00
31 1 9.363e+00 1.925e-01 5.615e+00
34 1 5.840e+00 4.039e+00 5.608e+00
52 1 7.494e+00 3.860e+00 7.457e+00
35 1 9.155e+00 3.953e+00 5.713e+00
86 1 5.825e+00 7.592e+00 5.601e+00
104 1 7.527e+00 7.484e+00 7.633e+00
83 1 7.491e+00 5.748e+00 5.508e+00
92 1 5.932e+00 5.585e+00 7.379e+00
94 1 9.214e+00 5.334e+00 7.410e+00
88 1 8.841e+00 7.458e+00 5.909e+00
89 1 7.268e+00 9.326e+00 6.225e+00
101 1 5.504e+00 9.391e+00 7.634e+00
105 1 9.315e+00 9.373e+00 7.555e+00
42 1 5.498e+00 5.528e-01 9.057e+00
47 1 7.292e+00 2.144e+00 9.167e+00
46 1 9.464e+00 5.754e-01 9.235e+00
51 1 5.487e+00 3.653e+00 9.361e+00
53 1 9.369e+00 3.613e+00 9.128e+00
102 1 5.521e+00 7.119e+00 9.198e+00
95 1 7.461e+00 5.360e+00 9.074e+00
106 1 9.246e+00 7.396e+00 9.165e+00
107 1 7.560e+00 9.424e+00 9.053e+00
ITEM: TIMESTEP
4000
ITEM: NUMBER OF ATOMS
107
ITEM: BOX BOUNDS pp pp pp
0.0000000000000000e+00 1.0619999999999999e+01
0.0000000000000000e+00 1.0619999999999999e+01
0.0000000000000000e+00 1.0619999999999999e+01
ITEM: ATOMS id type x y z
4 1 8.774e-02 2.150e+00 2.476e+00
2 1 2.028e+00 2.154e+00 5.703e-01
3 1 2.069e+00 3.477e-01 2.307e+00
1 1 4.545e-01 3.036e-01 4.113e-01
8 1 4.182e+00 2.113e+00 2.201e+00
5 1 3.743e+00 2.518e-01 3.195e-01
13 1 2.274e+00 4.012e+00 2.263e+00
55 1 3.363e-01 5.290e+00 1.987e+00
12 1 1.727e-01 3.727e+00 6.101e-02
14 1 3.971e+00 3.730e+00 4.156e-01
62 1 2.067e+00 7.421e+00 2.341e+00
60 1 3.370e-01 7.306e+00 2.722e-01
54 1 2.335e+00 5.390e+00 2.228e-01
57 1 3.865e+00 5.737e+00 2.219e+00
64 1 3.859e+00 7.147e+00 2.189e-01
61 1 2.110e+00 9.154e+00 2.937e-01
63 1 4.175e-01 9.353e+00 2.229e+00
67 1 3.843e+00 9.121e+00 2.254e+00
18 1 3.931e-01 1.401e-01 3.953e+00
19 1 2.242e+00 2.200e+00 3.718e+00
20 1 4.222e+00 2.953e-01 3.978e+00
24 1 3.188e-01 4.155e+00 3.938e+00
25 1 4.007e+00 3.860e+00 3.849e+00
72 1 2.217e+00 5.790e+00 3.957e+00
75 1 3.191e-01 7.591e+00 3.780e+00
77 1 4.032e+00 7.467e+00 4.019e+00
76 1 2.251e+00 9.238e+00 3.923e+00
37 1 2.156e+00 2.392e+00 7.048e+00
36 1 5.067e-01 5.364e-01 7.184e+00
27 1 2.140e+00 4.113e-01 5.363e+00
28 1 5.421e-01 2.152e+00 5.451e+00
40 1 3.463e+00 1.951e-01 7.335e+00
30 1 3.995e+00 1.903e+00 5.766e+00
33 1 2.465e+00 4.111e+00 5.477e+00
48 1 4.115e-01 4.100e+00 7.116e+00
50 1 4.035e+00 3.768e+00 7.601e+00
81 1 1.482e-01 5.991e+00 5.453e+00
90 1 2.128e+00 5.530e+00 7.223e+00
96 1 6.267e-01 7.423e+00 7.278e+00
84 1 2.258e+00 7.432e+00 5.679e+00
82 1 4.027e+00 5.816e+00 5.872e+00
100 1 3.842e+00 7.317e+00 7.410e+00
97 1 1.881e+00 9.228e+00 7.601e+00
85 1 5.849e-01 9.339e+00 5.620e+00
87 1 3.726e+00 9.211e+00 5.754e+00
38 1 2.066e+00 4.375e-01 9.180e+00
43 1 3.922e+00 2.209e+00 9.416e+00
49 1 2.123e+00 3.743e+00 9.066e+00
91 1 6.044e-01 5.611e+00 8.925e+00
98 1 2.132e+00 7.167e+00 9.277e+00
93 1 3.961e+00 5.479e+00 8.886e+00
99 1 3.382e-01 9.235e+00 9.288e+00
103 1 3.724e+00 9.260e+00 9.322e+00
11 1 7.411e+00 2.074e+00 2.045e+00
9 1 7.283e+00 7.520e-01 2.915e-01
6 1 5.617e+00 2.227e+00 4.632e-01
7 1 5.736e+00 3.146e-01 2.122e+00
10 1 9.382e+00 3.009e-01 2.349e+00
39 1 9.495e+00 1.746e+00 5.826e-01
16 1 7.578e+00 3.783e+00 3.208e-01
15 1 5.870e+00 3.837e+00 2.077e+00
17 1 9.269e+00 3.631e+00 1.960e+00
66 1 5.831e+00 7.551e+00 2.305e+00
59 1 7.483e+00 5.743e+00 2.257e+00
68 1 7.434e+00 7.623e+00 4.339e-01
56 1 5.691e+00 5.697e+00 4.389e-01
58 1 9.070e+00 5.693e+00 2.968e-01
70 1 9.273e+00 7.517e+00 1.924e+00
65 1 5.385e+00 9.199e+00 4.300e-01
71 1 7.443e+00 9.465e+00 2.133e+00
69 1 9.107e+00 9.202e+00 4.659e-01
21 1 5.864e+00 2.293e+00 3.887e+00
22 1 7.529e+00 2.500e-01 3.878e+00
23 1 9.138e+00 2.127e+00 3.905e+00
26 1 7.522e+00 3.856e+00 3.777e+00
79 1 7.684e+00 7.227e+00 3.787e+00
73 1 5.606e+00 5.568e+00 3.836e+00
74 1 9.338e+00 5.803e+00 3.691e+00
78 1 5.926e+00 9.293e+00 4.029e+00
80 1 9.106e+00 8.955e+00 3.671e+00
44 1 7.644e+00 5.611e-01 7.495e+00
32 1 7.207e+00 2.099e+00 5.550e+00
29 1 5.554e+00 1.790e-01 5.844e+00
41 1 5.366e+00 1.648e+00 7.648e+00
45 1 9.360e+00 1.916e+00 7.188e+00
31 1 9.198e+00 3.999e-01 5.396e+00
34 1 5.753e+00 4.047e+00 5.423e+00
52 1 7.180e+00 3.736e+00 7.276e+00
35 1 8.912e+00 3.921e+00 5.784e+00
86 1 5.753e+00 7.555e+00 5.651e+00
104 1 7.466e+00 7.632e+00 7.357e+00
92 1 5.698e+00 5.574e+00 7.353e+00
83 1 7.483e+00 5.917e+00 5.364e+00
94 1 9.229e+00 5.994e+00 7.401e+00
88 1 9.392e+00 7.878e+00 5.695e+00
89 1 7.525e+00 9.310e+00 5.814e+00
101 1 5.613e+00 9.119e+00 7.533e+00
105 1 9.307e+00 9.352e+00 7.460e+00
42 1 5.467e+00 1.149e-01 9.243e+00
47 1 7.122e+00 2.061e+00 9.117e+00
46 1 9.234e+00 5.069e-01 9.258e+00
51 1 5.664e+00 3.787e+00 9.140e+00
53 1 8.949e+00 3.802e+00 9.146e+00
102 1 5.777e+00 7.421e+00 9.254e+00
95 1 7.258e+00 5.505e+00 9.161e+00
106 1 9.116e+00 7.636e+00 9.212e+00
107 1 7.252e+00 9.336e+00 9.234e+00
ITEM: TIMESTEP
5000
ITEM: NUMBER OF ATOMS
107
ITEM: BOX BOUNDS pp pp pp
0.0000000000000000e+00 1.0619999999999999e+01
0.0000000000000000e+00 1.0619999999999999e+01
0.0000000000000000e+00 1.0619999999999999e+01
ITEM: ATOMS id type x y z
4 1 2.589e-01 2.075e+00 2.106e+00
3 1 2.332e+00 3.416e-01 2.236e+00
1 1 3.814e-01 4.061e-01 1.202e-01
2 1 2.153e+00 1.784e+00 3.314e-01
8 1 3.922e+00 2.026e+00 2.098e+00
5 1 3.932e+00 2.229e-01 5.334e-01
13 1 2.240e+00 3.691e+00 1.923e+00
12 1 6.262e-01 3.860e+00 3.372e-01
14 1 3.845e+00 3.787e+00 1.791e-01
55 1 4.760e-01 5.625e+00 2.120e+00
62 1 2.030e+00 7.594e+00 1.879e+00
54 1 2.167e+00 5.604e+00 1.428e-01
60 1 4.295e-01 7.562e+00 1.191e-01
57 1 3.780e+00 5.930e+00 1.769e+00
64 1 3.727e+00 7.644e+00 1.338e-01
61 1 2.119e+00 9.638e+00 2.945e-01
63 1 5.707e-01 9.380e+00 2.172e+00
67 1 3.775e+00 9.171e+00 2.086e+00
18 1 1.826e-01 6.294e-01 3.982e+00
19 1 1.992e+00 1.889e+00 3.988e+00
20 1 3.945e+00 3.018e-01 3.841e+00
24 1 2.133e-01 3.771e+00 3.827e+00
25 1 3.820e+00 3.648e+00 3.694e+00
72 1 2.175e+00 5.492e+00 3.803e+00
75 1 7.266e-01 7.574e+00 3.743e+00
77 1 3.718e+00 7.453e+00 4.103e+00
76 1 2.157e+00 9.212e+00 3.833e+00
37 1 2.254e+00 2.170e+00 7.372e+00
36 1 6.227e-02 4.302e-01 7.162e+00
27 1 2.415e+00 3.999e-01 5.650e+00
28 1 2.486e-01 2.501e+00 5.878e+00
40 1 4.163e+00 3.971e-01 7.405e+00
30 1 4.019e+00 2.352e+00 5.837e+00
33 1 2.240e+00 3.892e+00 5.513e+00
48 1 3.553e-01 3.348e+00 7.726e+00
90 1 1.997e+00 5.229e+00 7.471e+00
50 1 4.025e+00 3.543e+00 7.581e+00
96 1 2.254e-01 7.161e+00 7.657e+00
84 1 1.985e+00 7.444e+00 5.759e+00
81 1 5.928e-01 5.499e+00 5.648e+00
82 1 3.802e+00 5.561e+00 5.770e+00
100 1 3.786e+00 7.355e+00 7.465e+00
97 1 2.007e+00 9.141e+00 7.466e+00
85 1 5.393e-01 9.208e+00 5.756e+00
87 1 3.978e+00 9.229e+00 5.959e+00
38 1 1.868e+00 4.755e-01 8.958e+00
43 1 3.990e+00 1.982e+00 9.203e+00
49 1 2.262e+00 3.584e+00 9.171e+00
91 1 5.350e-01 5.236e+00 9.019e+00
98 1 2.051e+00 7.193e+00 9.108e+00
93 1 3.725e+00 5.521e+00 9.175e+00
99 1 4.330e-01 9.106e+00 8.789e+00
103 1 3.586e+00 9.361e+00 9.013e+00
11 1 7.445e+00 2.371e+00 2.284e+00
9 1 7.485e+00 5.869e-01 7.691e-01
6 1 5.778e+00 2.237e+00 4.968e-01
7 1 5.582e+00 5.034e-01 2.227e+00
10 1 9.249e+00 2.072e-01 2.202e+00
39 1 9.297e+00 1.969e+00 3.493e-01
15 1 5.473e+00 4.067e+00 1.971e+00
16 1 7.603e+00 3.857e+00 2.713e-01
17 1 9.230e+00 4.009e+00 1.846e+00
66 1 5.598e+00 7.595e+00 2.027e+00
59 1 7.212e+00 5.653e+00 1.729e+00
56 1 5.494e+00 5.782e+00 2.698e-01
68 1 7.296e+00 7.350e+00 4.165e-01
58 1 9.663e+00 5.678e+00 1.155e-01
70 1 9.516e+00 7.686e+00 2.097e+00
65 1 5.714e+00 9.492e+00 5.054e-01
71 1 7.338e+00 9.249e+00 2.228e+00
69 1 8.987e+00 9.182e+00 3.170e-01
21 1 5.593e+00 2.335e+00 4.060e+00
22 1 7.291e+00 6.014e-01 3.737e+00
23 1 9.148e+00 2.289e+00 3.683e+00
26 1 7.713e+00 4.299e+00 3.825e+00
79 1 7.607e+00 7.405e+00 3.518e+00
73 1 5.564e+00 5.915e+00 3.823e+00
74 1 9.725e+00 5.960e+00 3.892e+00
78 1 5.547e+00 9.082e+00 3.882e+00
80 1 9.059e+00 9.333e+00 3.805e+00
44 1 7.578e+00 1.083e-01 7.642e+00
32 1 7.446e+00 2.094e+00 5.379e+00
41 1 5.895e+00 2.198e+00 7.655e+00
29 1 5.858e+00 5.360e-01 5.741e+00
45 1 9.024e+00 1.953e+00 7.748e+00
31 1 8.945e+00 2.404e-01 5.564e+00
52 1 7.522e+00 3.859e+00 7.659e+00
34 1 5.882e+00 4.070e+00 5.317e+00
35 1 9.182e+00 4.062e+00 5.724e+00
83 1 7.690e+00 5.891e+00 5.490e+00
86 1 5.606e+00 7.282e+00 5.944e+00
104 1 7.476e+00 7.341e+00 7.457e+00
92 1 5.527e+00 5.476e+00 7.600e+00
88 1 9.289e+00 7.736e+00 5.411e+00
94 1 9.282e+00 5.573e+00 7.430e+00
101 1 5.922e+00 8.934e+00 7.556e+00
89 1 7.254e+00 9.444e+00 5.579e+00
105 1 9.080e+00 9.130e+00 7.162e+00
42 1 5.499e+00 1.902e-01 9.209e+00
47 1 7.441e+00 1.996e+00 9.538e+00
46 1 9.420e+00 2.073e-01 9.183e+00
51 1 5.773e+00 3.889e+00 9.377e+00
53 1 9.241e+00 3.623e+00 9.105e+00
102 1 5.588e+00 7.569e+00 9.503e+00
95 1 7.453e+00 5.703e+00 9.304e+00
106 1 9.233e+00 7.565e+00 9.262e+00
107 1 7.359e+00 9.177e+00 9.327e+00
ITEM: TIMESTEP
6000
ITEM: NUMBER OF ATOMS
107
ITEM: BOX BOUNDS pp pp pp
0.0000000000000000e+00 1.0619999999999999e+01
0.0000000000000000e+00 1.0619999999999999e+01
0.0000000000000000e+00 1.0619999999999999e+01
ITEM: ATOMS id type x y z
4 1 1.649e-01 2.068e+00 2.223e+00
3 1 2.237e+00 3.625e-01 2.204e+00
1 1 3.732e-01 3.060e-01 5.266e-01
2 1 2.291e+00 2.189e+00 3.375e-01
8 1 3.712e+00 2.334e+00 2.271e+00
5 1 3.998e+00 3.875e-01 4.042e-01
13 1 1.715e+00 3.932e+00 2.177e+00
12 1 5.766e-01 3.730e+00 5.285e-02
14 1 4.109e+00 3.831e+00 2.304e-01
55 1 1.956e-01 5.499e+00 2.122e+00
54 1 2.180e+00 5.517e+00 1.660e-01
62 1 1.794e+00 6.950e+00 2.067e+00
60 1 3.873e-01 7.464e+00 3.064e-01
57 1 4.240e+00 5.432e+00 1.907e+00
64 1 3.739e+00 7.428e+00 6.723e-01
63 1 6.352e-01 8.939e+00 1.945e+00
61 1 2.135e+00 9.504e+00 2.784e-01
67 1 4.009e+00 9.138e+00 2.010e+00
18 1 3.648e-01 3.117e-01 4.025e+00
19 1 2.077e+00 2.023e+00 4.005e+00
20 1 4.177e+00 4.704e-02 3.884e+00
24 1 1.276e-02 3.862e+00 3.818e+00
25 1 3.832e+00 3.933e+00 3.959e+00
72 1 2.041e+00 5.490e+00 3.941e+00
75 1 5.165e-01 7.543e+00 3.740e+00
77 1 3.857e+00 7.571e+00 3.607e+00
76 1 2.172e+00 9.333e+00 3.776e+00
37 1 2.083e+00 2.091e+00 7.223e+00
27 1 2.124e+00 3.571e-01 5.680e+00
28 1 3.049e-01 2.389e+00 5.629e+00
36 1 3.033e-01 1.587e-01 7.499e+00
40 1 3.681e+00 2.486e-01 7.343e+00
30 1 4.216e+00 1.894e+00 5.763e+00
48 1 2.781e-01 3.731e+00 7.737e+00
33 1 2.066e+00 3.929e+00 5.664e+00
50 1 3.725e+00 3.845e+00 7.113e+00
90 1 2.347e+00 5.743e+00 7.509e+00
96 1 5.774e-01 7.324e+00 7.467e+00
81 1 2.420e-01 5.778e+00 5.466e+00
84 1 2.216e+00 7.368e+00 5.378e+00
100 1 4.069e+00 7.233e+00 7.424e+00
82 1 4.027e+00 5.862e+00 5.394e+00
97 1 2.058e+00 9.071e+00 7.721e+00
85 1 2.032e-01 9.205e+00 5.638e+00
87 1 3.599e+00 9.051e+00 5.733e+00
38 1 2.217e+00 3.910e-01 9.216e+00
43 1 3.946e+00 1.943e+00 9.058e+00
49 1 2.220e+00 3.897e+00 9.191e+00
91 1 3.662e-01 5.717e+00 9.159e+00
98 1 2.241e+00 7.248e+00 9.428e+00
93 1 4.036e+00 5.649e+00 9.364e+00
99 1 3.380e-01 9.164e+00 9.235e+00
103 1 3.857e+00 9.151e+00 9.163e+00
11 1 7.328e+00 1.859e+00 1.992e+00
9 1 7.321e+00 4.556e-01 1.840e-01
7 1 5.713e+00 4.771e-01 2.373e+00
6 1 5.597e+00 2.032e+00 3.661e-01
10 1 9.270e+00 2.121e-02 1.980e+00
39 1 9.074e+00 1.876e+00 3.597e-01
15 1 6.090e+00 3.783e+00 2.048e+00
16 1 7.550e+00 3.661e+00 1.902e-01
17 1 9.122e+00 3.856e+00 2.122e+00
68 1 7.257e+00 7.636e+00 3.519e-01
66 1 5.671e+00 7.529e+00 1.943e+00
59 1 7.294e+00 5.794e+00 2.267e+00
56 1 5.980e+00 5.421e+00 3.485e-01
58 1 9.180e+00 5.911e+00 2.321e-02
70 1 9.198e+00 7.428e+00 2.028e+00
65 1 5.806e+00 9.274e+00 1.545e-01
71 1 7.303e+00 9.569e+00 2.382e+00
69 1 9.030e+00 9.396e+00 2.460e-01
21 1 5.596e+00 2.267e+00 3.878e+00
22 1 7.689e+00 2.951e-01 4.024e+00
23 1 9.198e+00 2.142e+00 3.858e+00
26 1 7.558e+00 4.202e+00 3.996e+00
73 1 5.684e+00 6.276e+00 3.744e+00
79 1 7.604e+00 7.632e+00 3.846e+00
74 1 9.193e+00 5.812e+00 3.588e+00
78 1 5.779e+00 8.852e+00 4.093e+00
80 1 9.232e+00 9.289e+00 3.851e+00
44 1 7.510e+00 6.052e-01 7.043e+00
41 1 5.761e+00 2.217e+00 7.434e+00
29 1 5.836e+00 1.807e-02 5.607e+00
32 1 7.727e+00 2.465e+00 5.783e+00
45 1 9.467e+00 2.147e+00 7.472e+00
31 1 9.380e+00 6.009e-01 5.755e+00
52 1 7.530e+00 3.926e+00 7.592e+00
34 1 5.580e+00 3.945e+00 5.487e+00
92 1 5.419e+00 5.282e+00 7.352e+00
35 1 9.302e+00 4.141e+00 5.906e+00
86 1 5.694e+00 7.440e+00 5.892e+00
83 1 7.239e+00 5.672e+00 5.777e+00
104 1 7.340e+00 7.497e+00 7.664e+00
88 1 9.147e+00 7.601e+00 5.966e+00
94 1 9.413e+00 5.778e+00 7.362e+00
101 1 5.575e+00 9.291e+00 7.639e+00
89 1 7.474e+00 9.081e+00 5.647e+00
105 1 9.206e+00 9.474e+00 7.388e+00
47 1 7.561e+00 1.997e+00 8.933e+00
42 1 5.499e+00 4.586e-01 9.026e+00
46 1 9.327e+00 2.886e-01 9.243e+00
51 1 5.581e+00 3.584e+00 9.395e+00
53 1 9.406e+00 3.874e+00 9.536e+00
102 1 5.513e+00 7.479e+00 9.111e+00
95 1 7.324e+00 5.704e+00 8.977e+00
106 1 9.046e+00 7.798e+00 8.944e+00
107 1 7.457e+00 9.504e+00 9.103e+00
ITEM: TIMESTEP
7000
ITEM: NUMBER OF ATOMS
107
ITEM: BOX BOUNDS pp pp pp
0.0000000000000000e+00 1.0619999999999999e+01
0.0000000000000000e+00 1.0619999999999999e+01
0.0000000000000000e+00 1.0619999999999999e+01
ITEM: ATOMS id type x y z
4 1 5.735e-01 2.154e+00 2.072e+00
3 1 2.169e+00 3.702e-01 2.262e+00
2 1 2.213e+00 2.193e+00 5.063e-01
1 1 4.210e-01 6.319e-01 4.498e-01
8 1 4.092e+00 2.043e+00 2.149e+00
5 1 3.942e+00 3.963e-01 4.527e-01
13 1 2.341e+00 3.669e+00 2.209e+00
12 1 4.359e-01 3.888e+00 2.754e-01
14 1 3.991e+00 3.598e+00 1.491e-01
55 1 4.832e-01 5.427e+00 2.273e+00
54 1 2.066e+00 5.513e+00 3.441e-01
62 1 1.993e+00 7.661e+00 2.046e+00
60 1 4.341e-01 7.586e+00 4.288e-01
64 1 3.402e+00 7.346e+00 2.563e-01
57 1 3.738e+00 5.392e+00 1.858e+00
66 1 5.280e+00 7.075e+00 2.054e+00
63 1 3.000e-01 9.341e+00 1.872e+00
61 1 1.977e+00 9.529e+00 2.207e-01
67 1 3.752e+00 9.312e+00 2.258e+00
18 1 2.715e-01 4.989e-01 3.817e+00
19 1 2.266e+00 2.070e+00 4.097e+00
20 1 3.984e+00 3.907e-01 3.840e+00
24 1 3.770e-01 3.798e+00 3.726e+00
25 1 3.991e+00 3.951e+00 3.863e+00
72 1 2.155e+00 5.645e+00 4.098e+00
75 1 3.198e-01 7.205e+00 3.800e+00
77 1 3.779e+00 7.399e+00 3.806e+00
76 1 2.143e+00 9.160e+00 4.069e+00
37 1 2.272e+00 2.222e+00 7.587e+00
27 1 2.161e+00 4.444e-01 5.585e+00
36 1 4.680e-01 9.181e-01 7.413e+00
28 1 3.534e-01 2.259e+00 5.597e+00
40 1 3.963e+00 4.664e-01 7.275e+00
30 1 4.010e+00 2.217e+00 5.615e+00
33 1 2.042e+00 3.823e+00 5.602e+00
81 1 4.968e-02 5.199e+00 5.338e+00
48 1 4.561e-01 4.106e+00 7.190e+00
50 1 4.169e+00 3.669e+00 7.476e+00
90 1 2.337e+00 5.397e+00 7.575e+00
96 1 6.308e-01 7.278e+00 7.193e+00
84 1 2.420e+00 7.444e+00 5.887e+00
100 1 4.132e+00 7.440e+00 7.761e+00
82 1 4.082e+00 5.840e+00 5.951e+00
85 1 3.463e-01 9.447e+00 5.839e+00
97 1 2.089e+00 9.272e+00 7.324e+00
87 1 3.847e+00 9.421e+00 5.565e+00
38 1 1.905e+00 6.329e-01 9.090e+00
43 1 4.139e+00 1.913e+00 8.788e+00
49 1 1.957e+00 4.010e+00 9.299e+00
91 1 3.481e-01 5.795e+00 9.159e+00
98 1 2.000e+00 7.401e+00 8.942e+00
93 1 3.949e+00 5.647e+00 9.276e+00
99 1 5.294e-01 9.269e+00 8.906e+00
103 1 3.534e+00 9.480e+00 9.123e+00