ITEM: TIMESTEP
0
ITEM: NUMBER OF ATOMS
107
ITEM: BOX BOUNDS pp pp pp
0.0000000000000000e+00 1.0619999999999999e+01
0.0000000000000000e+00 1.0619999999999999e+01
0.0000000000000000e+00 1.0619999999999999e+01
ITEM: ATOMS id type x y z
1 1 2.555e-01 2.722e-01 2.856e-01
2 1 2.065e+00 2.088e+00 4.672e-01
3 1 1.932e+00 4.676e-01 2.006e+00
4 1 1.572e-01 2.070e+00 2.101e+00
5 1 4.122e+00 2.980e-01 4.078e-01
8 1 3.969e+00 2.020e+00 2.153e+00
13 1 4.308e-01 4.097e+00 3.486e-01
14 1 1.846e+00 3.710e+00 2.216e+00
15 1 3.726e+00 3.614e+00 4.125e-01
54 1 2.069e+00 5.725e+00 1.338e-01
55 1 5.647e-01 5.652e+00 2.147e+00
60 1 4.139e-01 7.355e+00 4.684e-01
62 1 2.261e+00 7.284e+00 1.952e+00
57 1 3.789e+00 5.460e+00 1.971e+00
64 1 4.038e+00 7.371e+00 1.905e-01
61 1 2.136e+00 9.225e+00 4.803e-01
63 1 3.555e-01 9.072e+00 2.073e+00
67 1 3.580e+00 9.367e+00 2.317e+00
19 1 2.926e-01 5.812e-01 3.994e+00
20 1 2.174e+00 2.172e+00 3.751e+00
21 1 3.808e+00 4.202e-01 3.961e+00
25 1 5.738e-01 3.975e+00 4.041e+00
26 1 3.898e+00 3.782e+00 3.682e+00
72 1 2.246e+00 5.757e+00 3.835e+00
75 1 4.106e-01 7.512e+00 4.028e+00
77 1 3.820e+00 7.386e+00 3.797e+00
76 1 2.120e+00 9.338e+00 3.840e+00
28 1 2.184e+00 5.724e-01 5.534e+00
29 1 3.623e-01 2.144e+00 5.592e+00
37 1 4.536e-01 5.133e-01 7.361e+00
38 1 2.235e+00 2.037e+00 7.634e+00
31 1 4.013e+00 2.318e+00 5.689e+00
41 1 3.745e+00 5.217e-01 7.280e+00
34 1 2.304e+00 3.647e+00 5.988e+00
49 1 3.485e-01 3.675e+00 7.285e+00
81 1 3.197e-01 5.702e+00 5.642e+00
84 1 2.166e+00 7.187e+00 5.644e+00
90 1 2.204e+00 5.732e+00 7.669e+00
96 1 3.411e-01 7.382e+00 7.368e+00
82 1 3.794e+00 5.465e+00 5.572e+00
100 1 3.932e+00 7.390e+00 7.450e+00
85 1 5.541e-01 9.496e+00 5.660e+00
97 1 2.237e+00 9.222e+00 7.337e+00
87 1 3.755e+00 9.223e+00 5.633e+00
39 1 2.033e+00 1.124e-01 9.283e+00
40 1 2.073e-01 2.092e+00 9.358e+00
44 1 3.960e+00 1.884e+00 9.240e+00
50 1 2.099e+00 3.979e+00 9.252e+00
91 1 1.632e-01 5.736e+00 9.129e+00
98 1 2.124e+00 7.616e+00 9.124e+00
93 1 4.107e+00 5.708e+00 9.225e+00
99 1 3.796e-01 9.377e+00 9.086e+00
103 1 3.860e+00 9.282e+00 9.361e+00
6 1 5.758e+00 2.136e+00 5.137e-01
7 1 5.686e+00 4.287e-01 2.117e+00
9 1 7.408e+00 1.840e-01 4.945e-01
12 1 7.541e+00 2.075e+00 2.278e+00
10 1 9.114e+00 2.028e+00 4.320e-01
11 1 9.178e+00 1.794e-01 2.404e+00
16 1 5.670e+00 3.988e+00 2.039e+00
17 1 7.504e+00 4.012e+00 6.657e-01
18 1 9.281e+00 3.967e+00 2.180e+00
56 1 5.722e+00 5.742e+00 3.735e-01
59 1 7.116e+00 5.794e+00 2.353e+00
66 1 5.490e+00 7.376e+00 2.096e+00
68 1 7.536e+00 7.557e+00 3.182e-01
58 1 9.051e+00 5.718e+00 5.455e-01
70 1 9.228e+00 7.614e+00 2.138e+00
65 1 5.676e+00 9.278e+00 5.730e-01
71 1 7.300e+00 9.225e+00 2.286e+00
69 1 9.115e+00 9.352e+00 2.838e-01
22 1 5.645e+00 2.101e+00 3.820e+00
23 1 7.533e+00 3.540e-01 3.954e+00
24 1 9.231e+00 2.239e+00 3.944e+00
27 1 7.437e+00 3.789e+00 3.884e+00
73 1 5.519e+00 5.596e+00 4.040e+00
79 1 7.480e+00 7.497e+00 3.855e+00
74 1 9.499e+00 5.855e+00 3.679e+00
78 1 5.534e+00 9.209e+00 3.725e+00
80 1 9.304e+00 9.017e+00 3.972e+00
30 1 5.766e+00 7.594e-02 5.785e+00
33 1 7.390e+00 2.142e+00 5.457e+00
42 1 5.860e+00 1.998e+00 7.239e+00
45 1 7.494e+00 1.472e-01 7.284e+00
32 1 9.143e+00 3.980e-01 5.501e+00
46 1 9.202e+00 2.003e+00 7.440e+00
35 1 5.722e+00 3.846e+00 5.633e+00
52 1 7.612e+00 3.945e+00 7.553e+00
36 1 9.204e+00 4.142e+00 5.686e+00
83 1 7.333e+00 5.717e+00 5.370e+00
86 1 5.579e+00 7.487e+00 5.684e+00
92 1 5.673e+00 5.571e+00 7.161e+00
104 1 7.398e+00 7.304e+00 7.246e+00
88 1 9.268e+00 7.644e+00 5.741e+00
94 1 9.228e+00 5.520e+00 7.559e+00
89 1 7.401e+00 9.096e+00 5.624e+00
101 1 5.518e+00 9.151e+00 7.276e+00
105 1 9.195e+00 9.381e+00 7.354e+00
43 1 5.662e+00 4.083e-01 9.025e+00
48 1 7.383e+00 1.962e+00 9.319e+00
47 1 9.145e+00 2.546e-01 9.164e+00
51 1 5.473e+00 3.872e+00 9.281e+00
53 1 9.310e+00 3.820e+00 9.384e+00
95 1 7.451e+00 5.714e+00 9.379e+00
102 1 5.615e+00 7.568e+00 9.141e+00
106 1 9.223e+00 7.560e+00 8.926e+00
107 1 7.314e+00 9.094e+00 9.041e+00
ITEM: TIMESTEP
100
ITEM: NUMBER OF ATOMS
107
ITEM: BOX BOUNDS pp pp pp
0.0000000000000000e+00 1.0619999999999999e+01
0.0000000000000000e+00 1.0619999999999999e+01
0.0000000000000000e+00 1.0619999999999999e+01
ITEM: ATOMS id type x y z
1 1 3.086e-01 3.666e-01 3.727e-01
2 1 2.052e+00 2.121e+00 3.188e-01
3 1 2.368e+00 8.075e-02 2.025e+00
4 1 6.510e-01 2.248e+00 2.089e+00
5 1 3.665e+00 2.759e-01 7.783e-02
8 1 3.698e+00 2.258e+00 2.083e+00
13 1 2.067e-01 3.881e+00 3.654e-01
14 1 2.241e+00 4.085e+00 2.029e+00
15 1 4.174e+00 4.021e+00 1.177e-01
54 1 2.164e+00 5.729e+00 4.011e-01
55 1 1.234e-01 5.799e+00 2.071e+00
60 1 4.231e-01 7.397e+00 2.719e-01
62 1 1.985e+00 7.519e+00 2.160e+00
57 1 4.100e+00 5.892e+00 2.243e+00
64 1 3.637e+00 7.611e+00 3.186e-01
61 1 1.814e+00 9.356e+00 1.414e-01
63 1 2.022e-01 9.191e+00 2.155e+00
67 1 4.181e+00 9.112e+00 2.127e+00
19 1 4.022e-01 2.866e-01 4.010e+00
20 1 2.173e+00 2.061e+00 3.931e+00
21 1 3.783e+00 2.393e-01 3.717e+00
25 1 3.682e-01 4.054e+00 3.727e+00
26 1 3.855e+00 3.961e+00 3.997e+00
72 1 2.204e+00 5.696e+00 3.932e+00
75 1 1.879e-01 7.044e+00 3.991e+00
77 1 3.857e+00 7.332e+00 3.916e+00
76 1 2.244e+00 9.193e+00 4.118e+00
28 1 2.073e+00 2.649e-01 5.784e+00
29 1 3.682e-01 2.215e+00 5.657e+00
37 1 2.729e-01 3.441e-01 7.579e+00
38 1 2.189e+00 2.240e+00 7.318e+00
31 1 3.780e+00 2.065e+00 5.768e+00
41 1 3.948e+00 2.627e-01 7.507e+00
34 1 2.162e+00 3.804e+00 5.423e+00
49 1 2.677e-01 4.048e+00 7.505e+00
81 1 2.585e-01 5.546e+00 5.828e+00
84 1 2.129e+00 7.379e+00 5.619e+00
90 1 2.207e+00 5.565e+00 7.341e+00
96 1 3.891e-01 7.284e+00 7.559e+00
82 1 4.042e+00 5.712e+00 5.820e+00
100 1 3.860e+00 7.500e+00 7.483e+00
85 1 3.769e-01 8.929e+00 5.681e+00
97 1 1.995e+00 9.409e+00 7.612e+00
87 1 4.086e+00 9.215e+00 5.707e+00
39 1 2.099e+00 6.086e-01 9.031e+00
40 1 1.846e-01 2.372e+00 9.195e+00
44 1 3.877e+00 2.179e+00 9.187e+00
50 1 2.089e+00 3.950e+00 9.350e+00
91 1 4.918e-01 5.620e+00 9.245e+00
98 1 2.074e+00 7.296e+00 9.074e+00
93 1 3.693e+00 5.682e+00 9.276e+00
99 1 3.253e-01 9.239e+00 9.192e+00
103 1 3.762e+00 8.984e+00 9.089e+00
6 1 5.400e+00 1.956e+00 4.429e-01
7 1 5.694e+00 1.354e-01 1.933e+00
9 1 7.483e+00 3.196e-01 3.471e-01
12 1 7.445e+00 2.128e+00 2.034e+00
10 1 9.162e+00 2.323e+00 3.223e-01
11 1 9.115e+00 5.273e-01 1.975e+00
16 1 5.678e+00 3.816e+00 2.101e+00
17 1 7.394e+00 3.969e+00 2.272e-01
18 1 9.093e+00 3.844e+00 2.268e+00
56 1 5.754e+00 5.710e+00 2.630e-01
59 1 7.510e+00 5.581e+00 1.992e+00
66 1 5.943e+00 7.604e+00 2.173e+00
68 1 7.473e+00 7.379e+00 4.181e-01
58 1 9.277e+00 5.696e+00 1.918e-01
70 1 9.184e+00 7.533e+00 2.226e+00
65 1 5.656e+00 9.183e+00 2.031e-01
71 1 7.599e+00 9.216e+00 2.027e+00
69 1 9.228e+00 9.209e+00 3.669e-01
22 1 5.743e+00 2.206e+00 3.803e+00
23 1 7.453e+00 1.987e-01 3.686e+00
24 1 9.184e+00 1.812e+00 3.785e+00
27 1 7.446e+00 3.909e+00 3.951e+00
73 1 6.007e+00 5.602e+00 3.751e+00
79 1 7.452e+00 7.458e+00 4.010e+00
74 1 8.993e+00 5.458e+00 4.256e+00
78 1 5.808e+00 9.087e+00 4.096e+00
80 1 9.184e+00 9.339e+00 3.867e+00
30 1 5.674e+00 4.061e-01 5.642e+00
33 1 7.446e+00 2.099e+00 5.493e+00
42 1 5.576e+00 2.049e+00 7.505e+00
45 1 7.332e+00 3.191e-01 7.519e+00
32 1 9.333e+00 5.241e-01 5.738e+00
46 1 9.327e+00 2.205e+00 7.550e+00
35 1 5.630e+00 3.767e+00 5.783e+00
52 1 7.419e+00 3.774e+00 7.351e+00
36 1 9.267e+00 3.623e+00 5.718e+00
83 1 7.245e+00 5.608e+00 5.922e+00
86 1 5.658e+00 7.265e+00 5.676e+00
92 1 5.391e+00 5.795e+00 7.514e+00
104 1 7.488e+00 7.448e+00 7.370e+00
88 1 9.096e+00 7.597e+00 5.587e+00
94 1 9.246e+00 5.663e+00 7.523e+00
89 1 7.493e+00 9.425e+00 5.789e+00
101 1 5.850e+00 9.095e+00 7.364e+00
105 1 9.096e+00 9.039e+00 7.496e+00
43 1 5.707e+00 3.808e-01 9.425e+00
48 1 7.410e+00 2.120e+00 9.222e+00
47 1 9.339e+00 4.699e-01 9.352e+00
51 1 5.667e+00 3.978e+00 9.097e+00
53 1 9.142e+00 4.088e+00 9.116e+00
95 1 7.384e+00 5.749e+00 9.043e+00
102 1 5.519e+00 7.390e+00 9.206e+00
106 1 9.127e+00 7.355e+00 9.053e+00
107 1 7.766e+00 9.268e+00 9.372e+00
ITEM: TIMESTEP
200
ITEM: NUMBER OF ATOMS
107
ITEM: BOX BOUNDS pp pp pp
0.0000000000000000e+00 1.0619999999999999e+01
0.0000000000000000e+00 1.0619999999999999e+01
0.0000000000000000e+00 1.0619999999999999e+01
ITEM: ATOMS id type x y z
1 1 4.809e-01 3.100e-01 3.601e-01
2 1 2.294e+00 1.948e+00 4.203e-01
3 1 2.239e+00 4.077e-01 2.274e+00
4 1 2.271e-01 2.066e+00 2.247e+00
5 1 4.045e+00 4.632e-01 4.250e-01
8 1 3.884e+00 1.918e+00 2.085e+00
13 1 6.468e-01 3.702e+00 4.475e-01
14 1 1.911e+00 3.463e+00 2.411e+00
15 1 3.646e+00 4.149e+00 5.652e-01
54 1 2.048e+00 5.826e+00 2.942e-01
55 1 3.118e-01 5.620e+00 2.306e+00
60 1 3.734e-01 7.340e+00 6.254e-01
62 1 2.223e+00 7.416e+00 2.237e+00
57 1 3.786e+00 5.825e+00 2.277e+00
64 1 3.987e+00 7.455e+00 4.098e-01
61 1 2.286e+00 9.055e+00 4.928e-01
63 1 7.148e-01 9.191e+00 2.098e+00
67 1 3.873e+00 9.322e+00 2.045e+00
19 1 2.270e-01 2.873e-01 3.840e+00
20 1 2.208e+00 1.881e+00 4.033e+00
21 1 3.996e+00 1.060e-01 4.088e+00
25 1 2.270e-01 3.819e+00 4.102e+00
26 1 3.965e+00 3.865e+00 3.627e+00
72 1 2.038e+00 5.529e+00 3.686e+00
75 1 3.686e-01 7.652e+00 3.793e+00
77 1 4.117e+00 7.667e+00 4.004e+00
76 1 2.215e+00 9.267e+00 3.983e+00
28 1 2.346e+00 4.492e-01 5.661e+00
29 1 3.684e-01 2.028e+00 5.614e+00
37 1 4.691e-01 3.106e-01 7.306e+00
38 1 2.210e+00 2.074e+00 7.390e+00
31 1 3.875e+00 2.189e+00 5.606e+00
41 1 3.758e+00 4.910e-01 7.439e+00
34 1 2.267e+00 3.890e+00 5.478e+00
49 1 1.257e-01 3.871e+00 7.403e+00
81 1 3.729e-01 5.711e+00 5.535e+00
84 1 1.961e+00 7.445e+00 5.491e+00
90 1 2.165e+00 5.655e+00 7.436e+00
96 1 1.989e-01 7.534e+00 7.432e+00
82 1 3.685e+00 5.731e+00 5.474e+00
100 1 3.995e+00 7.329e+00 7.236e+00
85 1 2.385e-01 9.272e+00 5.547e+00
97 1 1.953e+00 9.055e+00 7.271e+00
87 1 3.828e+00 9.408e+00 5.784e+00
39 1 2.291e+00 1.059e+01 9.258e+00
40 1 6.774e-01 2.026e+00 9.188e+00
44 1 3.865e+00 2.211e+00 9.182e+00
50 1 2.180e+00 4.034e+00 9.180e+00
91 1 2.439e-01 5.566e+00 9.224e+00
98 1 1.979e+00 7.379e+00 9.324e+00
93 1 3.930e+00 5.784e+00 9.170e+00
99 1 4.977e-01 9.165e+00 9.269e+00
103 1 3.991e+00 9.168e+00 9.073e+00
6 1 5.607e+00 2.446e+00 1.737e-01
7 1 5.497e+00 4.380e-01 2.147e+00
9 1 7.295e+00 3.626e-01 2.518e-01
12 1 7.466e+00 1.969e+00 2.041e+00
10 1 9.249e+00 2.060e+00 3.640e-01
11 1 9.138e+00 2.318e-01 2.159e+00
16 1 5.829e+00 4.022e+00 2.073e+00
17 1 7.390e+00 3.907e+00 2.553e-01
18 1 9.244e+00 3.894e+00 1.964e+00
56 1 5.706e+00 5.566e+00 3.098e-01
59 1 7.406e+00 5.723e+00 2.240e+00
66 1 5.616e+00 7.390e+00 2.140e+00
68 1 7.365e+00 7.533e+00 2.992e-01
58 1 9.063e+00 5.384e+00 3.753e-01
70 1 9.150e+00 7.282e+00 1.920e+00
65 1 5.543e+00 9.218e+00 4.902e-01
71 1 7.401e+00 9.333e+00 2.073e+00
69 1 9.317e+00 9.283e+00 4.100e-01
22 1 5.732e+00 2.308e+00 4.008e+00
23 1 7.343e+00 5.477e-01 3.866e+00
24 1 9.176e+00 2.230e+00 4.001e+00
27 1 7.419e+00 3.824e+00 3.773e+00
73 1 5.540e+00 5.772e+00 3.939e+00
79 1 7.244e+00 7.491e+00 3.991e+00
74 1 9.190e+00 5.682e+00 3.783e+00
78 1 5.790e+00 9.283e+00 3.757e+00
80 1 9.113e+00 9.133e+00 3.815e+00
30 1 5.774e+00 2.887e-01 5.886e+00
33 1 7.431e+00 2.163e+00 5.793e+00
42 1 5.485e+00 2.213e+00 7.437e+00
45 1 7.453e+00 6.575e-01 7.528e+00
32 1 9.023e+00 3.691e-01 5.499e+00
46 1 9.326e+00 2.122e+00 7.345e+00
35 1 5.538e+00 3.914e+00 5.688e+00
52 1 7.473e+00 3.856e+00 7.529e+00
36 1 9.124e+00 3.852e+00 5.550e+00
83 1 7.477e+00 5.412e+00 5.512e+00
86 1 5.705e+00 7.661e+00 5.849e+00
92 1 5.687e+00 5.667e+00 7.154e+00
104 1 7.434e+00 7.547e+00 7.642e+00
88 1 9.003e+00 7.307e+00 5.677e+00
94 1 9.087e+00 5.576e+00 7.514e+00
89 1 7.479e+00 9.210e+00 5.622e+00
101 1 5.526e+00 9.446e+00 7.440e+00
105 1 9.062e+00 9.201e+00 7.371e+00
43 1 5.653e+00 4.735e-01 9.124e+00
48 1 7.388e+00 2.202e+00 9.249e+00
47 1 9.287e+00 2.914e-01 9.358e+00
51 1 5.611e+00 3.883e+00 9.131e+00
53 1 9.451e+00 3.688e+00 9.240e+00
95 1 7.458e+00 5.536e+00 9.251e+00
102 1 5.603e+00 7.429e+00 9.107e+00
106 1 9.344e+00 7.343e+00 9.224e+00
107 1 7.534e+00 9.305e+00 9.182e+00
ITEM: TIMESTEP
300
ITEM: NUMBER OF ATOMS
107
ITEM: BOX BOUNDS pp pp pp
0.0000000000000000e+00 1.0619999999999999e+01
0.0000000000000000e+00 1.0619999999999999e+01
0.0000000000000000e+00 1.0619999999999999e+01
ITEM: ATOMS id type x y z
1 1 2.260e-01 4.672e-02 2.988e-01
2 1 1.904e+00 2.212e+00 3.525e-01
3 1 2.061e+00 4.664e-01 1.939e+00
4 1 2.128e-01 2.086e+00 1.982e+00
5 1 3.845e+00 3.949e-01 5.487e-01
8 1 3.773e+00 2.154e+00 2.152e+00
13 1 1.490e-01 3.859e+00 3.415e-01
14 1 2.161e+00 4.004e+00 2.066e+00
15 1 4.018e+00 3.676e+00 1.530e-01
54 1 2.293e+00 5.566e+00 3.339e-01
55 1 4.445e-01 5.700e+00 1.966e+00
60 1 4.797e-01 7.692e+00 1.822e-01
62 1 1.922e+00 7.519e+00 1.828e+00
57 1 3.891e+00 5.494e+00 2.142e+00
64 1 3.805e+00 7.192e+00 4.226e-01
61 1 2.188e+00 9.221e+00 3.182e-01
76 1 1.900e+00 9.169e+00 3.647e+00
67 1 4.054e+00 9.303e+00 2.159e+00
19 1 2.115e-01 4.256e-01 3.972e+00
20 1 2.068e+00 2.174e+00 3.928e+00
21 1 3.778e+00 7.051e-01 3.934e+00
25 1 4.509e-01 3.872e+00 3.774e+00
26 1 3.856e+00 3.928e+00 4.213e+00
72 1 2.214e+00 5.801e+00 3.935e+00
75 1 4.355e-01 7.254e+00 3.813e+00
77 1 3.677e+00 7.365e+00 3.765e+00
28 1 2.102e+00 2.338e-01 5.674e+00
29 1 2.138e-01 2.309e+00 5.618e+00
37 1 4.821e-01 1.766e-01 7.356e+00
38 1 2.296e+00 2.042e+00 7.483e+00
31 1 3.856e+00 2.183e+00 5.799e+00
41 1 4.050e+00 1.570e-01 7.250e+00
34 1 1.947e+00 4.070e+00 5.745e+00
49 1 3.788e-01 3.875e+00 7.650e+00
81 1 2.135e-01 5.843e+00 5.628e+00
84 1 2.069e+00 7.415e+00 5.715e+00
90 1 2.246e+00 5.621e+00 7.339e+00
96 1 4.555e-01 7.603e+00 7.476e+00
82 1 3.971e+00 5.628e+00 5.777e+00
100 1 3.933e+00 7.296e+00 7.424e+00
85 1 4.463e-01 9.073e+00 5.550e+00
97 1 2.328e+00 9.056e+00 7.515e+00
87 1 3.940e+00 9.070e+00 5.676e+00
39 1 2.013e+00 4.269e-01 9.050e+00
40 1 2.805e-01 2.298e+00 9.159e+00
44 1 3.943e+00 2.208e+00 9.194e+00
50 1 2.014e+00 3.891e+00 9.416e+00
91 1 4.475e-01 5.740e+00 9.203e+00
98 1 2.089e+00 7.391e+00 9.307e+00
93 1 3.791e+00 5.521e+00 9.180e+00
99 1 3.178e-01 9.324e+00 9.152e+00
103 1 3.993e+00 9.277e+00 9.252e+00
6 1 5.708e+00 1.881e+00 2.431e-01
7 1 5.793e+00 3.306e-01 2.176e+00
9 1 7.555e+00 4.346e-01 4.256e-01
12 1 7.491e+00 2.309e+00 2.211e+00
10 1 9.276e+00 1.932e+00 1.513e-01
11 1 9.082e+00 2.080e-01 2.118e+00
16 1 5.687e+00 4.019e+00 2.287e+00
17 1 7.608e+00 3.864e+00 3.427e-01
18 1 9.383e+00 4.040e+00 2.143e+00
56 1 5.501e+00 5.602e+00 4.973e-01
59 1 7.499e+00 5.513e+00 2.040e+00
66 1 5.504e+00 7.451e+00 2.237e+00
68 1 7.458e+00 7.375e+00 3.768e-01
58 1 9.245e+00 5.854e+00 3.614e-01
70 1 9.136e+00 7.218e+00 2.075e+00
65 1 5.745e+00 9.195e+00 2.569e-01
71 1 7.194e+00 9.154e+00 2.191e+00
69 1 8.870e+00 9.215e+00 3.903e-01
22 1 5.833e+00 2.241e+00 3.777e+00
23 1 7.528e+00 3.003e-01 4.060e+00
24 1 9.162e+00 2.106e+00 3.976e+00
27 1 7.474e+00 4.075e+00 3.951e+00
73 1 5.559e+00 5.670e+00 3.806e+00
79 1 7.498e+00 7.257e+00 3.752e+00
74 1 9.180e+00 5.658e+00 3.870e+00
78 1 5.516e+00 9.238e+00 4.068e+00
80 1 9.173e+00 9.271e+00 4.108e+00
63 1 1.056e+01 9.000e+00 2.278e+00
30 1 5.677e+00 4.503e-01 5.687e+00
33 1 7.342e+00 2.212e+00 5.676e+00
42 1 5.903e+00 2.225e+00 7.614e+00
45 1 7.341e+00 3.839e-01 7.280e+00
32 1 9.191e+00 3.326e-01 5.986e+00
46 1 9.224e+00 2.131e+00 7.455e+00
35 1 5.822e+00 4.017e+00 5.791e+00
52 1 7.709e+00 3.991e+00 7.430e+00
36 1 9.286e+00 4.049e+00 5.633e+00
83 1 7.585e+00 5.722e+00 5.764e+00
86 1 5.664e+00 7.341e+00 5.454e+00
92 1 5.681e+00 5.791e+00 7.464e+00
104 1 7.622e+00 7.436e+00 7.206e+00
88 1 9.327e+00 7.617e+00 5.737e+00
94 1 9.283e+00 5.860e+00 7.408e+00
89 1 7.394e+00 8.945e+00 5.633e+00
101 1 5.739e+00 8.892e+00 7.508e+00
105 1 9.267e+00 9.165e+00 7.537e+00
43 1 5.594e+00 3.523e-01 8.966e+00
48 1 7.426e+00 1.934e+00 9.370e+00
47 1 9.056e+00 2.901e-01 8.987e+00
51 1 5.740e+00 3.931e+00 9.202e+00
53 1 9.144e+00 3.909e+00 9.162e+00
95 1 7.682e+00 5.639e+00 9.280e+00
102 1 5.608e+00 7.299e+00 9.209e+00
106 1 9.006e+00 7.669e+00 9.191e+00
107 1 7.310e+00 9.215e+00 9.122e+00
ITEM: TIMESTEP
400
ITEM: NUMBER OF ATOMS
107
ITEM: BOX BOUNDS pp pp pp
0.0000000000000000e+00 1.0619999999999999e+01
0.0000000000000000e+00 1.0619999999999999e+01
0.0000000000000000e+00 1.0619999999999999e+01
ITEM: ATOMS id type x y z
1 1 1.592e-01 6.364e-01 5.635e-01
2 1 2.147e+00 2.113e+00 4.098e-01
3 1 2.207e+00 5.017e-01 2.195e+00
4 1 3.308e-01 2.291e+00 2.086e+00
5 1 4.077e+00 4.997e-01 2.744e-01
8 1 3.808e+00 1.971e+00 2.266e+00
13 1 5.457e-01 3.812e+00 2.211e-01
14 1 2.076e+00 3.926e+00 1.978e+00
15 1 3.709e+00 4.029e+00 3.027e-01
54 1 2.171e+00 5.867e+00 3.931e-01
55 1 8.107e-02 5.633e+00 2.085e+00
63 1 3.439e-01 9.354e+00 2.072e+00
62 1 2.151e+00 7.355e+00 2.359e+00
57 1 4.035e+00 5.712e+00 1.909e+00
64 1 3.903e+00 7.453e+00 3.626e-01
61 1 1.807e+00 9.091e+00 4.057e-01
76 1 2.155e+00 9.168e+00 3.936e+00
67 1 3.762e+00 9.386e+00 2.066e+00
19 1 4.489e-01 3.828e-01 3.964e+00
20 1 2.219e+00 2.244e+00 3.877e+00
21 1 3.903e+00 2.379e-01 3.814e+00
25 1 3.206e-01 3.871e+00 4.034e+00
26 1 3.899e+00 3.986e+00 3.537e+00
72 1 2.256e+00 5.597e+00 3.843e+00
75 1 4.337e-01 7.510e+00 4.028e+00
77 1 4.149e+00 7.358e+00 3.719e+00
60 1 2.641e-01 7.337e+00 4.695e-01
28 1 2.217e+00 4.846e-01 5.526e+00
29 1 3.815e-01 2.120e+00 5.615e+00
37 1 1.238e-01 1.770e-01 7.336e+00
38 1 1.990e+00 2.184e+00 7.480e+00
31 1 3.772e+00 2.253e+00 5.799e+00
41 1 3.750e+00 3.377e-01 7.360e+00
34 1 2.408e+00 3.873e+00 5.629e+00
49 1 4.854e-01 3.848e+00 7.292e+00
81 1 6.574e-01 5.624e+00 5.722e+00
84 1 2.260e+00 7.328e+00 5.610e+00
90 1 2.163e+00 5.744e+00 7.572e+00
96 1 4.632e-01 7.373e+00 7.258e+00
82 1 3.853e+00 5.576e+00 5.668e+00
100 1 3.852e+00 7.354e+00 7.503e+00
85 1 5.833e-01 9.211e+00 5.695e+00
97 1 2.118e+00 9.377e+00 7.487e+00
87 1 3.879e+00 9.166e+00 5.709e+00
39 1 2.149e+00 3.756e-01 9.274e+00
40 1 2.132e-01 1.906e+00 9.141e+00
44 1 3.880e+00 2.201e+00 9.075e+00
50 1 2.282e+00 3.665e+00 9.036e+00
91 1 5.198e-01 5.694e+00 9.265e+00
98 1 2.253e+00 7.547e+00 9.247e+00
93 1 4.068e+00 5.677e+00 9.269e+00
99 1 2.485e-01 9.327e+00 9.193e+00
103 1 3.961e+00 9.211e+00 9.198e+00
6 1 5.691e+00 2.192e+00 1.971e-01
7 1 5.616e+00 5.528e-01 2.043e+00
9 1 7.423e+00 2.299e-01 6.361e-01
12 1 7.297e+00 2.048e+00 2.132e+00
10 1 9.065e+00 2.162e+00 4.394e-01
11 1 9.255e+00 5.257e-01 2.297e+00
16 1 5.723e+00 3.854e+00 2.278e+00
17 1 7.389e+00 3.862e+00 3.417e-01
18 1 9.034e+00 3.966e+00 2.278e+00
56 1 5.756e+00 5.559e+00 5.184e-01
59 1 7.473e+00 5.671e+00 2.258e+00
66 1 5.782e+00 7.318e+00 2.153e+00
68 1 7.560e+00 7.407e+00 3.771e-01
58 1 9.037e+00 5.559e+00 3.740e-01
70 1 9.112e+00 7.504e+00 2.251e+00
65 1 5.594e+00 9.246e+00 6.752e-01
71 1 7.722e+00 9.317e+00 2.236e+00
69 1 9.167e+00 9.269e+00 4.124e-01
22 1 5.528e+00 1.999e+00 4.034e+00
23 1 7.165e+00 4.683e-01 3.707e+00
24 1 9.337e+00 2.254e+00 3.927e+00
27 1 7.373e+00 3.661e+00 3.883e+00
73 1 5.739e+00 5.510e+00 3.842e+00
79 1 7.354e+00 7.461e+00 4.018e+00
74 1 9.068e+00 5.773e+00 3.948e+00
78 1 5.771e+00 9.068e+00 3.688e+00
80 1 9.417e+00 9.041e+00 3.899e+00
32 1 9.173e+00 4.402e-01 5.242e+00
30 1 5.534e+00 3.144e-01 5.455e+00
33 1 7.501e+00 2.165e+00 5.735e+00
42 1 5.716e+00 1.777e+00 7.256e+00
45 1 7.547e+00 2.924e-01 7.424e+00
107 1 7.458e+00 9.103e+00 9.367e+00
46 1 9.317e+00 2.051e+00 7.428e+00
35 1 5.554e+00 3.965e+00 5.445e+00
52 1 7.433e+00 3.948e+00 7.319e+00
36 1 9.246e+00 3.965e+00 5.834e+00
83 1 7.308e+00 5.733e+00 5.695e+00
86 1 5.590e+00 7.407e+00 5.862e+00
92 1 5.493e+00 5.484e+00 7.308e+00
104 1 7.114e+00 7.507e+00 7.411e+00
88 1 9.248e+00 7.359e+00 5.661e+00
94 1 9.082e+00 5.690e+00 7.399e+00
89 1 7.424e+00 9.399e+00 5.596e+00
101 1 5.607e+00 9.403e+00 7.463e+00
105 1 9.113e+00 8.980e+00 7.356e+00
43 1 5.803e+00 2.466e-01 9.391e+00
48 1 7.508e+00 2.069e+00 8.982e+00
47 1 9.140e+00 2.773e-01 9.321e+00
51 1 5.564e+00 3.702e+00 9.056e+00
53 1 9.332e+00 3.768e+00 9.203e+00
95 1 7.356e+00 5.652e+00 9.263e+00
102 1 5.519e+00 7.616e+00 9.068e+00
106 1 9.036e+00 7.471e+00 9.167e+00
ITEM: TIMESTEP
500
ITEM: NUMBER OF ATOMS
107
ITEM: BOX BOUNDS pp pp pp
0.0000000000000000e+00 1.0619999999999999e+01
0.0000000000000000e+00 1.0619999999999999e+01
0.0000000000000000e+00 1.0619999999999999e+01
ITEM: ATOMS id type x y z
1 1 3.222e-01 9.154e-02 2.913e-01
2 1 2.152e+00 2.350e+00 3.787e-01
3 1 2.088e+00 2.648e-01 2.084e+00
4 1 4.715e-01 1.958e+00 2.060e+00
5 1 3.802e+00 3.239e-01 4.583e-01
8 1 3.849e+00 2.336e+00 2.147e+00
13 1 4.534e-01 4.223e+00 3.952e-01
14 1 2.240e+00 3.871e+00 2.162e+00
15 1 3.976e+00 4.270e+00 9.469e-02
54 1 2.087e+00 5.663e+00 4.158e-01
55 1 3.926e-01 5.714e+00 2.223e+00
63 1 4.246e-01 9.043e+00 2.316e+00
62 1 2.157e+00 7.308e+00 1.928e+00
57 1 3.811e+00 5.805e+00 2.289e+00
64 1 3.994e+00 7.507e+00 3.497e-01
61 1 2.236e+00 9.102e+00 4.307e-01
76 1 2.024e+00 9.316e+00 3.833e+00
67 1 3.961e+00 9.066e+00 2.123e+00
19 1 3.113e-01 5.353e-01 3.975e+00
20 1 2.227e+00 2.120e+00 3.839e+00
21 1 3.819e+00 3.499e-01 3.754e+00
25 1 4.288e-01 3.869e+00 4.035e+00
26 1 3.931e+00 3.873e+00 4.206e+00
72 1 2.114e+00 5.865e+00 4.133e+00
75 1 1.734e-01 7.454e+00 3.996e+00
77 1 3.697e+00 7.745e+00 3.983e+00
60 1 2.940e-01 7.355e+00 4.254e-01
28 1 1.853e+00 2.516e-02 5.748e+00
29 1 4.085e-01 2.123e+00 5.564e+00
37 1 4.051e-01 4.241e-01 7.481e+00
38 1 2.180e+00 1.953e+00 7.320e+00
31 1 3.989e+00 1.927e+00 5.673e+00
41 1 3.889e+00 4.482e-02 7.582e+00
34 1 2.093e+00 3.697e+00 5.824e+00
49 1 3.243e-01 3.837e+00 7.383e+00
81 1 1.657e-01 5.596e+00 5.830e+00
84 1 1.936e+00 7.483e+00 5.679e+00
90 1 2.149e+00 5.801e+00 7.158e+00
96 1 1.457e-01 7.234e+00 7.342e+00
82 1 3.945e+00 5.924e+00 5.573e+00
100 1 4.025e+00 7.714e+00 7.430e+00
85 1 2.090e-01 9.048e+00 5.577e+00
97 1 1.972e+00 9.036e+00 7.573e+00
87 1 3.825e+00 9.508e+00 5.633e+00
39 1 2.005e+00 1.147e-01 9.282e+00
40 1 6.399e-01 2.268e+00 9.097e+00
44 1 3.748e+00 1.938e+00 9.049e+00
50 1 2.081e+00 4.099e+00 9.104e+00
91 1 1.701e-01 5.692e+00 9.128e+00
98 1 2.081e+00 7.249e+00 9.250e+00
93 1 3.881e+00 5.943e+00 9.130e+00
99 1 3.360e-01 9.079e+00 9.227e+00
103 1 3.717e+00 9.119e+00 9.221e+00
6 1 5.665e+00 2.091e+00 3.145e-01
7 1 5.653e+00 2.371e-01 1.969e+00
9 1 7.519e+00 3.074e-01 4.055e-01
12 1 7.499e+00 2.161e+00 2.087e+00
10 1 9.653e+00 2.275e+00 2.543e-01
11 1 9.384e+00 3.346e-01 2.029e+00
16 1 5.742e+00 4.205e+00 1.900e+00
17 1 7.603e+00 3.905e+00 2.997e-01
18 1 9.380e+00 3.949e+00 2.080e+00
56 1 5.632e+00 5.769e+00 9.217e-03
59 1 7.443e+00 5.717e+00 2.068e+00
66 1 5.571e+00 7.452e+00 2.220e+00
68 1 7.580e+00 7.293e+00 2.641e-01
58 1 9.208e+00 5.518e+00 3.308e-01
70 1 9.223e+00 7.288e+00 2.185e+00
65 1 5.747e+00 9.154e+00 3.423e-02
71 1 7.427e+00 9.168e+00 2.099e+00
69 1 9.187e+00 9.076e+00 6.126e-01
22 1 5.669e+00 2.043e+00 3.737e+00
23 1 7.521e+00 3.510e-01 3.914e+00
24 1 9.209e+00 2.118e+00 3.888e+00
27 1 7.116e+00 4.133e+00 3.938e+00
73 1 5.636e+00 5.822e+00 3.832e+00
79 1 7.424e+00 7.389e+00 3.711e+00
74 1 9.106e+00 5.590e+00 3.824e+00
78 1 5.503e+00 9.393e+00 3.955e+00
80 1 9.028e+00 9.109e+00 3.779e+00
30 1 5.883e+00 2.894e-01 5.797e+00
33 1 7.365e+00 2.040e+00 5.564e+00
42 1 5.715e+00 2.055e+00 7.603e+00
45 1 7.514e+00 4.034e-01 7.494e+00
107 1 7.620e+00 9.321e+00 9.168e+00
46 1 9.122e+00 2.242e+00 7.404e+00
35 1 5.577e+00 3.836e+00 6.014e+00
52 1 7.370e+00 3.679e+00 7.391e+00
36 1 9.097e+00 3.658e+00 5.667e+00
83 1 7.317e+00 5.621e+00 5.904e+00
86 1 5.751e+00 7.669e+00 5.600e+00
92 1 5.524e+00 5.951e+00 7.357e+00
104 1 7.458e+00 7.356e+00 7.477e+00
88 1 9.158e+00 7.368e+00 5.630e+00
94 1 9.110e+00 5.488e+00 7.309e+00
89 1 7.454e+00 9.134e+00 5.676e+00
101 1 5.878e+00 9.182e+00 7.481e+00
105 1 9.256e+00 9.264e+00 7.640e+00
43 1 5.492e+00 3.979e-01 9.374e+00
48 1 7.517e+00 2.194e+00 9.269e+00
47 1 9.470e+00 5.899e-01 9.258e+00
51 1 5.389e+00 3.906e+00 9.100e+00
53 1 9.064e+00 3.869e+00 9.088e+00
95 1 7.420e+00 5.534e+00 9.085e+00
102 1 5.983e+00 7.348e+00 9.131e+00
106 1 9.216e+00 7.361e+00 9.413e+00
32 1 9.400e+00 3.649e-01 5.854e+00
ITEM: TIMESTEP
600
ITEM: NUMBER OF ATOMS
107
ITEM: BOX BOUNDS pp pp pp
0.0000000000000000e+00 1.0619999999999999e+01
0.0000000000000000e+00 1.0619999999999999e+01
0.0000000000000000e+00 1.0619999999999999e+01
ITEM: ATOMS id type x y z
1 1 4.295e-01 5.706e-01 2.057e-01
2 1 2.185e+00 1.995e+00 4.240e-01
3 1 2.126e+00 3.658e-01 2.008e+00
4 1 3.222e-01 2.197e+00 2.109e+00
5 1 4.070e+00 4.124e-01 3.611e-01
8 1 3.880e+00 2.013e+00 2.090e+00
13 1 5.472e-01 3.762e+00 3.821e-01
14 1 2.100e+00 3.841e+00 2.124e+00
15 1 3.679e+00 3.898e+00 5.498e-01
54 1 1.963e+00 5.734e+00 3.874e-01
55 1 3.261e-01 5.565e+00 2.111e+00
63 1 1.864e-01 9.177e+00 2.030e+00
62 1 2.244e+00 7.563e+00 2.436e+00
57 1 3.800e+00 5.653e+00 2.165e+00
64 1 3.885e+00 7.340e+00 4.611e-01
61 1 2.073e+00 9.195e+00 3.329e-01
76 1 2.028e+00 9.347e+00 3.994e+00
67 1 3.774e+00 9.254e+00 1.947e+00
19 1 3.760e-01 3.957e-01 3.716e+00
20 1 1.995e+00 2.125e+00 3.949e+00
21 1 3.988e+00 3.864e-02 3.972e+00
25 1 3.643e-01 3.846e+00 3.902e+00
26 1 3.926e+00 3.647e+00 3.750e+00
72 1 2.336e+00 5.735e+00 3.953e+00
75 1 2.586e-01 7.424e+00 3.804e+00
77 1 4.122e+00 7.427e+00 3.891e+00
60 1 2.473e-01 7.350e+00 3.264e-01
28 1 2.131e+00 2.659e-01 5.735e+00
29 1 1.977e-01 2.086e+00 5.738e+00
37 1 5.649e-01 3.032e-01 7.613e+00
38 1 2.228e+00 2.222e+00 7.442e+00
31 1 3.897e+00 2.053e+00 5.453e+00
41 1 3.827e+00 3.385e-01 7.471e+00
34 1 2.390e+00 3.897e+00 5.687e+00
49 1 6.109e-01 3.974e+00 7.348e+00
81 1 3.796e-01 5.797e+00 5.573e+00
84 1 2.046e+00 7.494e+00 5.488e+00
90 1 1.926e+00 5.807e+00 7.287e+00
103 1 3.818e+00 9.420e+00 9.395e+00
82 1 3.654e+00 5.756e+00 5.939e+00
100 1 3.747e+00 7.545e+00 7.509e+00
85 1 2.560e-01 9.440e+00 5.660e+00
97 1 2.095e+00 9.294e+00 7.320e+00
87 1 3.925e+00 9.107e+00 5.651e+00
39 1 2.311e+00 4.904e-01 9.153e+00
40 1 4.709e-01 2.049e+00 9.185e+00
44 1 4.135e+00 2.352e+00 9.275e+00
50 1 2.333e+00 3.954e+00 9.102e+00
91 1 5.378e-01 5.637e+00 9.217e+00
98 1 2.040e+00 7.668e+00 9.044e+00
93 1 3.958e+00 5.542e+00 8.891e+00
99 1 2.858e-01 9.258e+00 9.197e+00
96 1 3.275e-01 7.437e+00 7.303e+00
35 1 5.310e+00 3.888e+00 5.797e+00
6 1 5.660e+00 2.190e+00 3.505e-01
7 1 5.831e+00 4.957e-01 2.211e+00
9 1 7.304e+00 3.546e-01 2.532e-01
12 1 7.351e+00 2.228e+00 2.049e+00
10 1 9.048e+00 1.965e+00 4.381e-01
11 1 9.101e+00 2.359e-01 1.998e+00
16 1 5.633e+00 3.707e+00 2.239e+00
17 1 7.470e+00 3.886e+00 3.926e-01
18 1 9.183e+00 3.921e+00 1.956e+00
56 1 5.532e+00 5.366e+00 4.550e-01
59 1 7.305e+00 5.432e+00 2.330e+00
66 1 5.599e+00 7.364e+00 2.172e+00
68 1 7.363e+00 7.613e+00 2.668e-01
58 1 9.226e+00 5.577e+00 3.996e-01
70 1 9.070e+00 7.399e+00 2.069e+00
65 1 5.577e+00 9.353e+00 4.423e-01
71 1 7.554e+00 9.122e+00 2.048e+00
69 1 9.225e+00 9.262e+00 3.622e-01
22 1 5.678e+00 1.935e+00 3.996e+00
23 1 7.530e+00 3.908e-01 3.897e+00
24 1 9.211e+00 2.144e+00 3.810e+00
27 1 7.407e+00 3.642e+00 3.835e+00
73 1 5.517e+00 5.548e+00 3.963e+00
79 1 7.393e+00 7.351e+00 3.825e+00
74 1 9.150e+00 5.675e+00 3.727e+00
78 1 5.848e+00 9.106e+00 3.900e+00
80 1 9.012e+00 8.973e+00 3.862e+00
30 1 5.728e+00 2.162e-01 5.592e+00
33 1 7.238e+00 2.222e+00 5.845e+00
42 1 5.389e+00 2.178e+00 7.403e+00
45 1 7.563e+00 4.746e-01 7.441e+00
107 1 7.184e+00 9.143e+00 9.134e+00
46 1 9.257e+00 2.137e+00 7.588e+00
32 1 9.064e+00 6.736e-01 5.533e+00
52 1 7.567e+00 3.809e+00 7.467e+00
36 1 9.249e+00 4.016e+00 5.675e+00
83 1 7.269e+00 5.259e+00 5.459e+00
86 1 5.843e+00 7.460e+00 5.767e+00
92 1 6.103e+00 5.795e+00 7.479e+00
104 1 7.580e+00 7.658e+00 7.228e+00
88 1 9.314e+00 7.408e+00 5.483e+00
94 1 9.312e+00 5.741e+00 7.564e+00
89 1 7.464e+00 9.295e+00 5.611e+00
101 1 5.728e+00 9.322e+00 7.344e+00
105 1 9.133e+00 9.426e+00 7.504e+00
43 1 5.566e+00 3.177e-01 9.236e+00
48 1 7.473e+00 2.147e+00 9.227e+00
47 1 9.112e+00 2.189e-01 9.308e+00
51 1 5.867e+00 3.981e+00 9.276e+00
53 1 9.368e+00 3.830e+00 9.344e+00
95 1 7.509e+00 5.723e+00 9.533e+00
102 1 5.605e+00 7.281e+00 9.274e+00
106 1 9.157e+00 7.302e+00 9.262e+00
ITEM: TIMESTEP
700
ITEM: NUMBER OF ATOMS
107
ITEM: BOX BOUNDS pp pp pp
0.0000000000000000e+00 1.0619999999999999e+01
0.0000000000000000e+00 1.0619999999999999e+01
0.0000000000000000e+00 1.0619999999999999e+01
ITEM: ATOMS id type x y z
1 1 1.582e-01 2.606e-01 3.889e-01
2 1 1.953e+00 1.800e+00 2.824e-01
3 1 2.034e+00 3.991e-01 2.107e+00
4 1 2.924e-01 2.015e+00 1.969e+00
5 1 3.944e+00 2.601e-01 2.981e-01
8 1 4.064e+00 2.358e+00 2.070e+00
13 1 5.290e-02 3.953e+00 5.302e-01
14 1 2.049e+00 3.732e+00 1.953e+00
15 1 3.964e+00 3.588e+00 2.479e-01
54 1 2.191e+00 5.454e+00 3.506e-01
55 1 4.949e-01 5.677e+00 2.036e+00
63 1 2.779e-01 9.263e+00 2.176e+00
62 1 2.171e+00 7.442e+00 2.064e+00
57 1 3.866e+00 5.689e+00 2.101e+00
64 1 3.879e+00 7.505e+00 2.720e-01
61 1 2.067e+00 9.253e+00 3.321e-01
76 1 2.259e+00 9.084e+00 3.886e+00
67 1 3.778e+00 9.014e+00 2.008e+00
19 1 3.491e-01 2.452e-01 4.091e+00
20 1 2.020e+00 2.179e+00 3.792e+00
21 1 3.803e+00 4.039e-01 3.956e+00
25 1 3.752e-01 3.712e+00 3.698e+00
26 1 3.828e+00 3.975e+00 3.925e+00
72 1 1.929e+00 5.717e+00 3.976e+00
75 1 3.757e-01 7.319e+00 3.935e+00
77 1 3.759e+00 7.210e+00 3.893e+00
60 1 2.607e-01 7.546e+00 2.504e-01
28 1 2.140e+00 2.492e-01 5.613e+00
29 1 4.768e-01 2.205e+00 5.686e+00
37 1 3.798e-01 3.945e-01 7.285e+00
38 1 1.974e+00 2.056e+00 7.475e+00
31 1 3.840e+00 2.404e+00 5.682e+00
41 1 3.985e+00 2.171e-01 7.424e+00
34 1 2.098e+00 4.118e+00 5.733e+00
49 1 2.614e-01 4.025e+00 7.577e+00
81 1 3.045e-01 5.841e+00 5.819e+00
84 1 2.117e+00 7.449e+00 5.859e+00
90 1 2.212e+00 5.744e+00 7.490e+00
103 1 3.958e+00 9.300e+00 9.230e+00
82 1 3.776e+00 5.512e+00 5.702e+00
100 1 4.059e+00 7.202e+00 7.448e+00
85 1 5.138e-01 9.124e+00 5.571e+00
97 1 2.381e+00 9.238e+00 7.530e+00
87 1 3.966e+00 9.244e+00 5.570e+00
39 1 1.980e+00 3.047e-01 9.138e+00
40 1 1.848e-01 1.973e+00 9.300e+00
44 1 3.813e+00 1.945e+00 9.113e+00
50 1 1.916e+00 3.875e+00 9.186e+00
91 1 2.967e-01 5.872e+00 9.160e+00
98 1 2.154e+00 7.234e+00 9.326e+00
93 1 3.840e+00 5.421e+00 9.425e+00
99 1 2.505e-01 9.412e+00 9.162e+00
96 1 4.625e-01 7.562e+00 7.595e+00
6 1 5.783e+00 1.956e+00 3.324e-01