ITEM: TIMESTEP
0
ITEM: NUMBER OF ATOMS
107
ITEM: BOX BOUNDS pp pp pp
0.0000000000000000e+00 1.0619999999999999e+01
0.0000000000000000e+00 1.0619999999999999e+01
0.0000000000000000e+00 1.0619999999999999e+01
ITEM: ATOMS id type x y z
1 1 4.136e-01 2.341e-01 5.654e-01
2 1 2.205e+00 2.263e+00 2.381e-01
3 1 2.116e+00 3.325e-01 2.210e+00
4 1 3.913e-01 2.020e+00 1.977e+00
5 1 3.878e+00 4.622e-01 4.342e-01
8 1 3.782e+00 2.384e+00 1.988e+00
13 1 4.019e-01 3.951e+00 4.134e-01
14 1 2.026e+00 4.026e+00 2.033e+00
15 1 3.816e+00 4.134e+00 3.715e-01
55 1 2.062e+00 5.847e+00 3.221e-01
56 1 3.369e-01 5.744e+00 2.258e+00
61 1 2.817e-01 7.589e+00 2.712e-01
63 1 2.190e+00 7.250e+00 2.152e+00
58 1 3.967e+00 5.642e+00 2.147e+00
65 1 4.038e+00 7.429e+00 3.365e-01
62 1 2.207e+00 9.083e+00 2.915e-01
64 1 7.061e-01 9.054e+00 2.174e+00
68 1 3.729e+00 9.205e+00 2.027e+00
19 1 4.062e-01 5.217e-01 3.782e+00
20 1 2.076e+00 2.201e+00 3.949e+00
21 1 3.987e+00 3.501e-01 3.853e+00
25 1 2.732e-01 3.851e+00 3.662e+00
26 1 4.008e+00 3.774e+00 3.899e+00
73 1 2.095e+00 5.520e+00 3.944e+00
77 1 4.054e+00 7.221e+00 3.804e+00
76 1 2.121e+00 9.298e+00 3.960e+00
28 1 1.967e+00 3.685e-01 5.753e+00
29 1 3.110e-01 2.066e+00 5.712e+00
37 1 2.845e-01 4.357e-01 7.662e+00
38 1 1.972e+00 2.130e+00 7.441e+00
31 1 3.993e+00 2.171e+00 5.754e+00
41 1 4.009e+00 5.322e-01 7.414e+00
34 1 1.980e+00 3.806e+00 5.923e+00
49 1 1.714e-01 4.049e+00 7.519e+00
51 1 4.016e+00 3.927e+00 7.508e+00
81 1 2.540e-01 5.567e+00 5.367e+00
84 1 2.227e+00 7.438e+00 5.595e+00
90 1 2.067e+00 5.731e+00 7.375e+00
96 1 1.974e-01 7.307e+00 7.196e+00
82 1 3.765e+00 5.468e+00 5.477e+00
100 1 3.933e+00 7.441e+00 7.440e+00
85 1 2.268e-01 9.101e+00 5.692e+00
97 1 2.222e+00 9.295e+00 7.335e+00
87 1 3.858e+00 9.285e+00 5.759e+00
39 1 1.968e+00 2.860e-01 9.281e+00
40 1 2.903e-01 2.126e+00 9.269e+00
44 1 3.744e+00 2.464e+00 9.196e+00
50 1 1.996e+00 4.028e+00 9.256e+00
91 1 2.793e-01 5.778e+00 9.147e+00
98 1 2.074e+00 7.468e+00 9.174e+00
93 1 3.842e+00 5.840e+00 9.191e+00
99 1 4.228e-01 9.207e+00 9.082e+00
103 1 3.754e+00 9.441e+00 9.060e+00
6 1 5.858e+00 2.040e+00 1.480e-01
7 1 5.789e+00 5.000e-01 2.119e+00
9 1 7.560e+00 3.300e-01 5.269e-01
12 1 7.544e+00 2.145e+00 2.080e+00
10 1 9.173e+00 2.016e+00 3.314e-01
11 1 9.180e+00 1.907e-01 2.055e+00
16 1 5.689e+00 3.881e+00 1.910e+00
17 1 7.659e+00 3.880e+00 2.303e-01
18 1 9.263e+00 3.856e+00 2.079e+00
57 1 5.706e+00 5.649e+00 4.455e-01
60 1 7.459e+00 5.668e+00 1.954e+00
67 1 5.653e+00 7.374e+00 2.083e+00
69 1 7.344e+00 7.497e+00 4.515e-01
59 1 9.279e+00 5.738e+00 4.791e-01
71 1 9.040e+00 7.557e+00 2.096e+00
66 1 5.824e+00 9.393e+00 2.445e-01
72 1 7.294e+00 9.060e+00 2.238e+00
70 1 9.288e+00 9.191e+00 3.386e-01
22 1 5.775e+00 2.075e+00 3.802e+00
23 1 7.450e+00 2.045e-01 3.950e+00
24 1 9.096e+00 2.075e+00 3.970e+00
27 1 7.244e+00 3.787e+00 3.969e+00
74 1 5.681e+00 5.371e+00 3.743e+00
79 1 7.404e+00 7.137e+00 3.890e+00
75 1 9.114e+00 5.546e+00 4.014e+00
78 1 5.443e+00 9.089e+00 4.022e+00
80 1 9.369e+00 9.222e+00 3.829e+00
30 1 5.813e+00 4.749e-01 5.681e+00
33 1 7.438e+00 2.262e+00 5.947e+00
42 1 5.678e+00 2.214e+00 7.620e+00
45 1 7.713e+00 2.452e-01 7.579e+00
32 1 9.318e+00 1.740e-01 5.768e+00
46 1 9.311e+00 2.229e+00 7.603e+00
35 1 5.714e+00 3.811e+00 5.711e+00
53 1 7.340e+00 3.847e+00 7.754e+00
36 1 9.079e+00 3.775e+00 5.822e+00
83 1 7.411e+00 5.455e+00 5.799e+00
86 1 5.666e+00 7.293e+00 5.413e+00
92 1 5.580e+00 5.753e+00 7.415e+00
104 1 7.255e+00 7.385e+00 7.295e+00
88 1 9.099e+00 7.329e+00 5.715e+00
94 1 9.113e+00 5.737e+00 7.399e+00
89 1 7.421e+00 8.967e+00 5.468e+00
101 1 5.678e+00 9.193e+00 7.280e+00
105 1 9.147e+00 9.116e+00 7.370e+00
43 1 5.748e+00 2.313e-01 9.211e+00
48 1 7.562e+00 2.027e+00 9.224e+00
47 1 9.258e+00 2.072e-01 9.327e+00
52 1 5.608e+00 4.080e+00 9.241e+00
54 1 9.366e+00 4.118e+00 9.336e+00
95 1 7.510e+00 5.935e+00 9.195e+00
102 1 5.691e+00 7.508e+00 9.216e+00
106 1 9.267e+00 7.404e+00 9.026e+00
107 1 7.552e+00 9.190e+00 9.152e+00
ITEM: TIMESTEP
100
ITEM: NUMBER OF ATOMS
107
ITEM: BOX BOUNDS pp pp pp
0.0000000000000000e+00 1.0619999999999999e+01
0.0000000000000000e+00 1.0619999999999999e+01
0.0000000000000000e+00 1.0619999999999999e+01
ITEM: ATOMS id type x y z
1 1 2.364e-01 3.963e-01 2.446e-01
2 1 2.081e+00 2.224e+00 3.980e-01
3 1 2.050e+00 3.072e-01 2.069e+00
4 1 3.632e-01 2.243e+00 2.213e+00
5 1 3.767e+00 1.829e-01 8.052e-02
8 1 3.906e+00 2.144e+00 2.143e+00
13 1 3.717e-01 4.065e+00 3.754e-01
14 1 2.063e+00 3.763e+00 2.281e+00
15 1 3.895e+00 3.899e+00 2.905e-01
55 1 2.301e+00 5.633e+00 2.364e-01
56 1 3.107e-01 5.616e+00 2.384e+00
61 1 3.805e-01 7.474e+00 4.559e-01
63 1 1.997e+00 7.432e+00 2.096e+00
58 1 4.121e+00 5.784e+00 2.109e+00
65 1 3.563e+00 7.624e+00 4.559e-01
62 1 1.996e+00 9.399e+00 3.480e-01
64 1 1.757e-01 9.201e+00 2.089e+00
68 1 3.890e+00 9.161e+00 2.390e+00
19 1 5.354e-01 1.767e-01 4.010e+00
20 1 2.189e+00 2.036e+00 3.762e+00
21 1 3.720e+00 2.185e-01 3.817e+00
25 1 4.331e-01 4.067e+00 4.184e+00
26 1 3.892e+00 4.052e+00 3.838e+00
73 1 2.252e+00 5.774e+00 3.849e+00
77 1 4.051e+00 7.348e+00 3.998e+00
76 1 1.965e+00 9.194e+00 3.836e+00
28 1 2.182e+00 4.743e-01 5.658e+00
29 1 5.188e-01 2.242e+00 5.697e+00
37 1 3.773e-01 3.679e-01 7.289e+00
38 1 2.211e+00 2.132e+00 7.359e+00
31 1 3.867e+00 2.069e+00 5.767e+00
41 1 3.670e+00 1.562e-01 7.478e+00
34 1 2.383e+00 3.894e+00 5.423e+00
49 1 4.815e-01 3.851e+00 7.486e+00
51 1 3.882e+00 3.825e+00 7.456e+00
81 1 2.892e-01 5.680e+00 5.878e+00
84 1 2.185e+00 7.187e+00 5.599e+00
90 1 2.313e+00 5.638e+00 7.283e+00
96 1 3.667e-01 7.398e+00 7.607e+00
82 1 4.154e+00 5.618e+00 5.730e+00
100 1 3.828e+00 7.519e+00 7.417e+00
85 1 3.733e-01 8.926e+00 5.605e+00
97 1 1.972e+00 9.338e+00 7.464e+00
87 1 3.926e+00 9.133e+00 5.552e+00
39 1 1.997e+00 4.728e-01 9.133e+00
40 1 2.925e-01 2.325e+00 9.207e+00
44 1 3.922e+00 1.946e+00 9.090e+00
50 1 2.194e+00 3.881e+00 9.223e+00
91 1 3.942e-01 5.666e+00 9.177e+00
98 1 2.169e+00 7.370e+00 9.141e+00
93 1 3.891e+00 5.643e+00 9.122e+00
99 1 2.829e-01 9.271e+00 9.318e+00
103 1 3.955e+00 9.031e+00 9.253e+00
6 1 5.347e+00 2.096e+00 4.392e-01
7 1 5.557e+00 2.621e-01 1.964e+00
9 1 7.341e+00 2.934e-01 3.220e-01
12 1 7.443e+00 1.967e+00 1.939e+00
10 1 9.197e+00 2.176e+00 4.916e-01
11 1 9.280e+00 4.800e-01 2.174e+00
16 1 5.593e+00 3.757e+00 2.302e+00
17 1 7.356e+00 3.976e+00 4.454e-01
18 1 9.119e+00 3.971e+00 2.138e+00
57 1 5.694e+00 5.866e+00 3.277e-01
60 1 7.347e+00 5.804e+00 2.156e+00
67 1 5.726e+00 7.456e+00 2.154e+00
69 1 7.463e+00 7.449e+00 4.068e-01
59 1 9.164e+00 5.686e+00 3.252e-01
71 1 9.129e+00 7.483e+00 2.298e+00
66 1 5.654e+00 9.036e+00 4.530e-01
72 1 7.619e+00 9.410e+00 2.112e+00
70 1 9.202e+00 9.277e+00 4.488e-01
22 1 5.603e+00 1.991e+00 3.933e+00
23 1 7.422e+00 4.101e-01 3.795e+00
24 1 9.373e+00 2.087e+00 3.782e+00
27 1 7.467e+00 3.642e+00 3.863e+00
74 1 5.765e+00 5.653e+00 3.965e+00
79 1 7.376e+00 7.697e+00 3.908e+00
75 1 8.983e+00 5.533e+00 3.839e+00
78 1 5.772e+00 9.384e+00 3.932e+00
80 1 9.156e+00 9.215e+00 3.931e+00
30 1 5.409e+00 3.299e-01 5.633e+00
33 1 7.498e+00 2.098e+00 5.550e+00
42 1 5.828e+00 2.093e+00 7.381e+00
45 1 7.425e+00 2.278e-01 7.514e+00
32 1 9.340e+00 3.076e-01 5.498e+00
46 1 9.219e+00 1.986e+00 7.410e+00
35 1 5.793e+00 3.663e+00 5.661e+00
53 1 7.496e+00 3.868e+00 7.422e+00
36 1 9.225e+00 3.790e+00 5.730e+00
83 1 7.432e+00 5.671e+00 5.554e+00
86 1 5.757e+00 7.640e+00 5.641e+00
92 1 5.717e+00 5.764e+00 7.443e+00
104 1 7.615e+00 7.429e+00 7.370e+00
88 1 9.212e+00 7.288e+00 5.632e+00
94 1 9.178e+00 5.689e+00 7.539e+00
89 1 7.484e+00 9.419e+00 5.618e+00
101 1 5.658e+00 9.166e+00 7.469e+00
105 1 9.343e+00 9.214e+00 7.306e+00
43 1 5.651e+00 2.185e-01 9.269e+00
48 1 7.272e+00 2.234e+00 9.427e+00
47 1 9.188e+00 4.712e-01 9.131e+00
52 1 5.496e+00 3.748e+00 9.005e+00
54 1 9.152e+00 3.872e+00 9.158e+00
95 1 7.437e+00 5.655e+00 9.181e+00
102 1 5.601e+00 7.443e+00 9.049e+00
106 1 9.182e+00 7.457e+00 9.097e+00
107 1 7.569e+00 9.309e+00 9.310e+00
ITEM: TIMESTEP
200
ITEM: NUMBER OF ATOMS
107
ITEM: BOX BOUNDS pp pp pp
0.0000000000000000e+00 1.0619999999999999e+01
0.0000000000000000e+00 1.0619999999999999e+01
0.0000000000000000e+00 1.0619999999999999e+01
ITEM: ATOMS id type x y z
1 1 3.894e-01 3.199e-01 2.647e-01
2 1 2.175e+00 2.008e+00 3.199e-01
3 1 2.142e+00 3.684e-01 2.310e+00
4 1 3.902e-01 2.217e+00 2.101e+00
5 1 3.898e+00 3.108e-01 4.659e-01
8 1 3.913e+00 2.101e+00 2.216e+00
13 1 4.971e-01 3.594e+00 1.747e-01
14 1 2.218e+00 3.793e+00 2.150e+00
15 1 3.815e+00 3.739e+00 2.235e-01
55 1 2.242e+00 5.574e+00 2.102e-01
56 1 2.781e-01 5.601e+00 1.902e+00
61 1 2.593e-01 7.381e+00 2.787e-01
63 1 1.970e+00 7.378e+00 2.152e+00
58 1 3.884e+00 5.853e+00 2.230e+00
65 1 4.134e+00 7.262e+00 1.656e-01
62 1 2.004e+00 8.960e+00 3.915e-01
64 1 2.907e-01 9.209e+00 2.044e+00
68 1 3.780e+00 9.137e+00 1.962e+00
19 1 7.365e-02 5.507e-01 3.666e+00
20 1 2.119e+00 2.299e+00 4.045e+00
21 1 3.902e+00 2.221e-01 4.068e+00
25 1 4.825e-01 3.905e+00 3.753e+00
26 1 3.893e+00 3.845e+00 3.843e+00
73 1 2.073e+00 5.658e+00 3.886e+00
77 1 3.756e+00 7.540e+00 3.944e+00
76 1 2.119e+00 9.290e+00 3.795e+00
28 1 2.036e+00 2.687e-01 5.686e+00
29 1 3.385e-01 2.145e+00 5.703e+00
37 1 3.369e-01 2.003e-01 7.420e+00
38 1 2.179e+00 1.960e+00 7.372e+00
31 1 3.843e+00 2.139e+00 5.587e+00
41 1 3.807e+00 3.659e-01 7.330e+00
34 1 2.080e+00 3.951e+00 5.700e+00
49 1 2.811e-01 3.813e+00 7.501e+00
51 1 4.052e+00 4.074e+00 7.306e+00
81 1 5.965e-01 5.816e+00 5.691e+00
84 1 2.106e+00 7.519e+00 5.560e+00
90 1 2.003e+00 5.780e+00 7.720e+00
96 1 1.158e-01 7.357e+00 7.491e+00
82 1 3.627e+00 5.737e+00 5.574e+00
100 1 4.075e+00 7.281e+00 7.551e+00
85 1 1.934e-01 9.437e+00 5.544e+00
97 1 2.010e+00 8.912e+00 7.475e+00
87 1 4.024e+00 9.232e+00 5.758e+00
39 1 2.364e+00 2.606e-01 9.389e+00
40 1 4.691e-01 2.030e+00 9.044e+00
44 1 3.932e+00 2.077e+00 9.283e+00
50 1 2.151e+00 3.760e+00 9.179e+00
91 1 2.654e-01 5.425e+00 9.404e+00
98 1 2.028e+00 7.252e+00 9.419e+00
93 1 3.919e+00 5.586e+00 9.170e+00
99 1 2.979e-01 9.141e+00 9.128e+00
103 1 3.796e+00 9.094e+00 9.246e+00
6 1 5.690e+00 2.127e+00 3.027e-01
7 1 5.755e+00 3.472e-01 2.137e+00
9 1 7.417e+00 3.072e-01 3.093e-01
12 1 7.483e+00 2.247e+00 2.277e+00
10 1 8.988e+00 2.239e+00 4.751e-01
11 1 8.945e+00 4.924e-01 2.117e+00
16 1 5.655e+00 4.041e+00 2.292e+00
17 1 7.326e+00 3.810e+00 3.811e-01
18 1 9.290e+00 3.902e+00 2.110e+00
57 1 5.729e+00 5.597e+00 4.754e-01
60 1 7.531e+00 5.806e+00 2.076e+00
67 1 5.610e+00 7.554e+00 2.011e+00
69 1 7.370e+00 7.322e+00 3.180e-01
59 1 9.125e+00 5.449e+00 3.361e-01
71 1 9.311e+00 7.490e+00 1.998e+00
66 1 5.596e+00 9.356e+00 1.153e-01
72 1 7.405e+00 9.243e+00 2.137e+00
70 1 9.216e+00 9.243e+00 3.690e-01
22 1 5.675e+00 2.212e+00 3.891e+00
23 1 7.476e+00 4.269e-01 3.894e+00
24 1 9.075e+00 2.278e+00 4.064e+00
27 1 7.680e+00 4.142e+00 3.992e+00
74 1 5.751e+00 5.988e+00 3.934e+00
79 1 7.575e+00 7.439e+00 3.907e+00
75 1 9.565e+00 5.839e+00 3.869e+00
78 1 5.654e+00 9.089e+00 4.036e+00
80 1 9.197e+00 9.116e+00 3.730e+00
30 1 5.944e+00 2.332e-01 5.598e+00
33 1 7.270e+00 2.194e+00 5.653e+00
42 1 5.474e+00 2.304e+00 7.491e+00
45 1 7.476e+00 5.452e-01 7.380e+00
32 1 9.193e+00 4.210e-01 5.660e+00
46 1 9.236e+00 2.244e+00 7.419e+00
35 1 5.724e+00 3.975e+00 5.556e+00
53 1 7.342e+00 3.766e+00 7.399e+00
36 1 9.430e+00 4.164e+00 5.561e+00
83 1 7.615e+00 5.655e+00 5.653e+00
86 1 5.605e+00 7.367e+00 5.830e+00
92 1 5.748e+00 5.645e+00 7.447e+00
104 1 7.492e+00 7.448e+00 7.513e+00
88 1 9.120e+00 7.643e+00 5.739e+00
94 1 9.225e+00 5.718e+00 7.500e+00
89 1 7.621e+00 9.281e+00 5.718e+00
101 1 5.605e+00 9.177e+00 7.490e+00
105 1 9.097e+00 9.247e+00 7.641e+00
43 1 5.672e+00 3.946e-01 9.049e+00
48 1 7.420e+00 2.062e+00 9.011e+00
47 1 9.228e+00 3.737e-01 9.285e+00
52 1 5.627e+00 3.877e+00 9.367e+00
54 1 9.200e+00 3.759e+00 9.070e+00
95 1 7.613e+00 5.448e+00 9.200e+00
102 1 5.695e+00 7.378e+00 9.176e+00
106 1 9.076e+00 7.193e+00 9.218e+00
107 1 7.449e+00 9.230e+00 9.234e+00
ITEM: TIMESTEP
300
ITEM: NUMBER OF ATOMS
107
ITEM: BOX BOUNDS pp pp pp
0.0000000000000000e+00 1.0619999999999999e+01
0.0000000000000000e+00 1.0619999999999999e+01
0.0000000000000000e+00 1.0619999999999999e+01
ITEM: ATOMS id type x y z
1 1 3.819e-01 2.563e-01 4.261e-01
2 1 2.305e+00 2.146e+00 1.950e-01
3 1 2.333e+00 2.317e-01 2.036e+00
4 1 3.123e-01 1.927e+00 2.109e+00
5 1 4.224e+00 4.157e-01 3.143e-01
8 1 3.874e+00 2.272e+00 2.227e+00
13 1 2.437e-01 3.891e+00 3.481e-01
14 1 1.996e+00 3.703e+00 2.180e+00
15 1 3.973e+00 3.850e+00 3.615e-01
55 1 1.947e+00 5.711e+00 2.193e-01
56 1 2.801e-01 5.603e+00 2.091e+00
61 1 3.989e-01 7.525e+00 3.415e-01
63 1 1.993e+00 7.506e+00 2.169e+00
58 1 3.711e+00 5.480e+00 1.965e+00
65 1 3.764e+00 7.472e+00 5.897e-01
62 1 2.468e+00 9.492e+00 2.628e-01
64 1 4.329e-01 9.111e+00 2.101e+00
68 1 3.921e+00 9.187e+00 2.169e+00
19 1 4.008e-01 4.537e-01 4.037e+00
20 1 2.263e+00 2.079e+00 3.800e+00
21 1 3.947e+00 2.689e-01 3.950e+00
25 1 3.643e-01 3.761e+00 3.901e+00
26 1 3.674e+00 3.903e+00 3.931e+00
73 1 1.949e+00 5.680e+00 3.879e+00
77 1 3.771e+00 7.220e+00 3.718e+00
76 1 1.949e+00 9.068e+00 3.982e+00
28 1 2.319e+00 2.918e-01 5.687e+00
29 1 3.096e-01 2.054e+00 5.677e+00
37 1 2.336e-01 3.818e-01 7.380e+00
38 1 1.943e+00 2.085e+00 7.398e+00
31 1 3.826e+00 2.312e+00 5.579e+00
41 1 4.046e+00 2.578e-01 7.491e+00
34 1 1.954e+00 3.827e+00 5.538e+00
49 1 2.326e-01 3.854e+00 7.432e+00
51 1 3.839e+00 3.835e+00 7.310e+00
81 1 3.828e-01 5.634e+00 5.642e+00
84 1 2.000e+00 7.438e+00 5.582e+00
90 1 2.208e+00 5.693e+00 7.188e+00
96 1 4.396e-01 7.677e+00 7.573e+00
82 1 3.747e+00 5.874e+00 5.527e+00
100 1 3.746e+00 7.521e+00 7.313e+00
85 1 3.201e-01 9.218e+00 5.869e+00
97 1 2.108e+00 9.341e+00 7.275e+00
87 1 3.734e+00 9.098e+00 5.448e+00
39 1 2.023e+00 5.120e-01 9.254e+00
40 1 4.126e-01 2.214e+00 9.317e+00
44 1 3.763e+00 2.244e+00 8.972e+00
50 1 2.020e+00 4.095e+00 9.470e+00
91 1 4.832e-01 5.866e+00 9.001e+00
98 1 2.206e+00 7.589e+00 9.246e+00
93 1 3.851e+00 5.850e+00 9.282e+00
99 1 3.645e-01 9.339e+00 9.279e+00
103 1 4.126e+00 9.323e+00 9.255e+00
6 1 5.647e+00 2.354e+00 4.440e-01
7 1 5.752e+00 2.924e-01 2.142e+00
9 1 7.465e+00 4.406e-01 4.837e-01
12 1 7.414e+00 1.988e+00 2.310e+00
10 1 9.321e+00 1.958e+00 2.817e-01
11 1 9.183e+00 1.314e-01 2.191e+00
16 1 5.694e+00 3.980e+00 2.199e+00
17 1 7.617e+00 3.954e+00 5.087e-01
18 1 9.316e+00 3.751e+00 2.174e+00
57 1 5.582e+00 5.552e+00 3.159e-01
60 1 7.363e+00 5.594e+00 2.074e+00
67 1 5.727e+00 7.200e+00 2.009e+00
69 1 7.594e+00 7.418e+00 4.077e-01
59 1 9.268e+00 5.854e+00 3.518e-01
71 1 9.351e+00 7.527e+00 2.061e+00
66 1 5.780e+00 9.137e+00 4.439e-01
72 1 7.546e+00 9.120e+00 2.213e+00
70 1 9.179e+00 9.342e+00 2.670e-01
22 1 5.622e+00 2.137e+00 4.025e+00
23 1 7.365e+00 2.030e-01 3.988e+00
24 1 9.156e+00 1.932e+00 3.839e+00
27 1 7.387e+00 4.033e+00 4.027e+00
74 1 5.510e+00 5.636e+00 3.869e+00
79 1 7.460e+00 7.241e+00 3.854e+00
75 1 9.402e+00 5.770e+00 3.811e+00
78 1 5.552e+00 8.929e+00 3.726e+00
80 1 9.299e+00 9.194e+00 3.987e+00
30 1 5.569e+00 3.487e-01 5.836e+00
33 1 7.504e+00 2.126e+00 5.556e+00
42 1 5.966e+00 2.303e+00 7.277e+00
45 1 7.462e+00 1.816e-01 7.379e+00
32 1 9.133e+00 2.490e-01 5.640e+00
46 1 9.206e+00 2.062e+00 7.584e+00
35 1 5.627e+00 4.158e+00 5.684e+00
53 1 7.515e+00 4.011e+00 7.416e+00
36 1 9.123e+00 3.703e+00 5.664e+00
83 1 7.495e+00 5.706e+00 5.652e+00
86 1 5.529e+00 7.487e+00 5.711e+00
92 1 5.427e+00 5.737e+00 7.368e+00
104 1 7.600e+00 7.424e+00 7.523e+00
88 1 9.366e+00 7.402e+00 5.653e+00
94 1 9.323e+00 5.808e+00 7.558e+00
89 1 7.420e+00 8.928e+00 5.543e+00
101 1 5.692e+00 9.006e+00 7.437e+00
105 1 9.228e+00 9.208e+00 7.358e+00
43 1 5.714e+00 5.470e-01 9.115e+00
48 1 7.343e+00 2.145e+00 9.285e+00
47 1 9.015e+00 2.584e-01 9.137e+00
52 1 5.636e+00 3.822e+00 9.196e+00
54 1 9.274e+00 3.751e+00 9.150e+00
95 1 7.546e+00 5.734e+00 9.358e+00
102 1 5.559e+00 7.424e+00 9.448e+00
106 1 9.228e+00 7.596e+00 9.192e+00
107 1 7.346e+00 9.142e+00 9.197e+00
ITEM: TIMESTEP
400
ITEM: NUMBER OF ATOMS
107
ITEM: BOX BOUNDS pp pp pp
0.0000000000000000e+00 1.0619999999999999e+01
0.0000000000000000e+00 1.0619999999999999e+01
0.0000000000000000e+00 1.0619999999999999e+01
ITEM: ATOMS id type x y z
1 1 3.432e-01 4.433e-01 1.284e-01
2 1 1.912e+00 2.122e+00 4.848e-01
3 1 2.154e+00 4.975e-01 2.243e+00
4 1 2.240e-01 2.180e+00 2.252e+00
5 1 3.713e+00 3.440e-01 2.803e-01
8 1 3.914e+00 2.219e+00 1.948e+00
13 1 3.942e-01 3.799e+00 3.409e-01
14 1 2.202e+00 4.037e+00 1.981e+00
15 1 3.771e+00 3.982e+00 3.249e-01
55 1 2.050e+00 5.752e+00 4.135e-01
56 1 2.532e-01 5.696e+00 2.227e+00
61 1 3.498e-01 7.510e+00 4.251e-01
63 1 2.102e+00 7.596e+00 2.168e+00
58 1 4.146e+00 5.741e+00 2.120e+00
65 1 3.825e+00 7.447e+00 2.879e-01
62 1 2.096e+00 9.373e+00 5.257e-01
64 1 3.185e-01 9.309e+00 2.015e+00
68 1 3.940e+00 9.311e+00 2.011e+00
19 1 3.683e-01 3.684e-01 3.917e+00
20 1 2.076e+00 2.281e+00 4.015e+00
21 1 3.897e+00 2.736e-01 3.949e+00
25 1 2.595e-01 3.886e+00 3.944e+00
26 1 3.941e+00 3.692e+00 3.806e+00
73 1 2.180e+00 5.470e+00 3.943e+00
77 1 3.888e+00 7.398e+00 4.066e+00
76 1 2.374e+00 9.304e+00 3.864e+00
28 1 1.995e+00 3.439e-01 5.615e+00
29 1 3.557e-01 2.130e+00 5.827e+00
37 1 3.559e-01 4.284e-01 7.378e+00
38 1 2.311e+00 2.212e+00 7.433e+00
31 1 4.033e+00 2.121e+00 5.668e+00
41 1 3.950e+00 2.939e-01 7.295e+00
34 1 2.197e+00 3.916e+00 5.715e+00
49 1 3.318e-01 3.862e+00 7.435e+00
51 1 3.895e+00 3.988e+00 7.523e+00
81 1 3.391e-01 5.675e+00 5.602e+00
84 1 2.156e+00 7.319e+00 5.679e+00
90 1 1.934e+00 5.709e+00 7.397e+00
96 1 3.797e-01 7.425e+00 7.371e+00
82 1 4.084e+00 5.535e+00 5.662e+00
100 1 3.718e+00 7.273e+00 7.378e+00
85 1 5.338e-01 9.039e+00 5.691e+00
97 1 2.208e+00 9.451e+00 7.494e+00
87 1 3.808e+00 8.968e+00 5.836e+00
39 1 2.225e+00 6.015e-01 9.136e+00
40 1 8.772e-02 2.124e+00 9.109e+00
44 1 4.142e+00 2.202e+00 9.482e+00
50 1 2.110e+00 3.600e+00 9.161e+00
91 1 4.681e-01 5.671e+00 9.454e+00
98 1 2.003e+00 7.415e+00 9.146e+00
93 1 3.786e+00 5.652e+00 9.256e+00
99 1 3.162e-01 9.249e+00 9.206e+00
103 1 4.009e+00 9.303e+00 9.285e+00
6 1 5.861e+00 2.128e+00 1.764e-01
7 1 5.569e+00 4.492e-01 2.052e+00
9 1 7.439e+00 1.436e-01 5.039e-01
12 1 7.275e+00 1.997e+00 1.941e+00
10 1 9.268e+00 1.999e+00 4.405e-01
11 1 9.270e+00 4.314e-01 2.119e+00
16 1 5.748e+00 3.889e+00 1.881e+00
17 1 7.420e+00 4.055e+00 2.398e-01
18 1 9.164e+00 3.795e+00 2.064e+00
57 1 5.739e+00 5.710e+00 4.454e-01
60 1 7.567e+00 5.581e+00 1.994e+00
67 1 5.784e+00 7.439e+00 2.118e+00
69 1 7.448e+00 7.493e+00 3.366e-01
59 1 9.227e+00 5.828e+00 5.042e-01
71 1 9.190e+00 7.348e+00 2.183e+00
66 1 5.474e+00 9.260e+00 4.572e-01
72 1 7.438e+00 9.132e+00 2.070e+00
70 1 9.214e+00 9.213e+00 5.723e-01
22 1 5.615e+00 1.973e+00 3.792e+00
23 1 7.652e+00 3.837e-01 3.731e+00
24 1 9.269e+00 2.104e+00 4.053e+00
27 1 7.361e+00 3.535e+00 3.757e+00
74 1 5.993e+00 5.379e+00 3.739e+00
79 1 7.559e+00 7.383e+00 3.890e+00
75 1 8.912e+00 5.436e+00 4.021e+00
78 1 5.621e+00 9.085e+00 3.796e+00
80 1 9.300e+00 9.091e+00 3.878e+00
30 1 5.589e+00 3.421e-01 5.619e+00
33 1 7.299e+00 2.014e+00 5.694e+00
42 1 5.553e+00 2.218e+00 7.626e+00
45 1 7.433e+00 2.625e-01 7.545e+00
32 1 9.263e+00 2.580e-01 5.615e+00
46 1 9.100e+00 2.098e+00 7.220e+00
35 1 5.836e+00 3.752e+00 5.644e+00
53 1 7.417e+00 3.986e+00 7.383e+00
36 1 9.062e+00 3.829e+00 5.723e+00
83 1 7.291e+00 5.652e+00 5.737e+00
86 1 5.734e+00 7.274e+00 5.572e+00
92 1 5.574e+00 5.665e+00 7.395e+00
104 1 7.282e+00 7.539e+00 7.339e+00
88 1 9.200e+00 7.391e+00 5.618e+00
94 1 9.180e+00 5.662e+00 7.420e+00
89 1 7.416e+00 9.199e+00 5.651e+00
101 1 5.704e+00 9.296e+00 7.392e+00
105 1 9.096e+00 9.085e+00 7.481e+00
43 1 5.727e+00 2.418e-01 9.180e+00
48 1 7.640e+00 2.358e+00 9.045e+00
47 1 9.159e+00 3.937e-01 9.334e+00
52 1 5.651e+00 4.133e+00 9.174e+00
54 1 9.381e+00 4.055e+00 9.238e+00
95 1 7.312e+00 5.949e+00 9.200e+00
102 1 5.595e+00 7.516e+00 9.168e+00
106 1 9.188e+00 7.443e+00 9.271e+00
107 1 7.428e+00 9.162e+00 9.254e+00
ITEM: TIMESTEP
500
ITEM: NUMBER OF ATOMS
107
ITEM: BOX BOUNDS pp pp pp
0.0000000000000000e+00 1.0619999999999999e+01
0.0000000000000000e+00 1.0619999999999999e+01
0.0000000000000000e+00 1.0619999999999999e+01
ITEM: ATOMS id type x y z
1 1 3.670e-01 1.867e-01 5.204e-01
2 1 2.110e+00 2.061e+00 4.447e-01
3 1 2.062e+00 1.593e-01 2.167e+00
4 1 3.518e-01 2.284e+00 2.016e+00
5 1 3.791e+00 1.944e-01 2.586e-01
8 1 3.882e+00 2.023e+00 2.147e+00
13 1 2.019e-01 4.017e+00 3.333e-01
14 1 2.221e+00 3.863e+00 2.294e+00
15 1 3.974e+00 4.040e+00 5.051e-01
55 1 2.094e+00 5.576e+00 4.919e-01
56 1 4.701e-01 5.608e+00 2.225e+00
61 1 3.853e-01 7.271e+00 4.363e-01
63 1 1.992e+00 7.303e+00 2.201e+00
58 1 3.835e+00 5.608e+00 2.048e+00
65 1 3.889e+00 7.561e+00 5.344e-01
62 1 2.083e+00 9.038e+00 2.999e-01
64 1 3.690e-01 9.015e+00 2.257e+00
68 1 3.705e+00 9.250e+00 2.228e+00
19 1 3.788e-01 4.180e-01 3.908e+00
20 1 2.280e+00 2.008e+00 3.952e+00
21 1 3.935e+00 4.900e-01 3.759e+00
25 1 4.929e-01 3.889e+00 4.067e+00
26 1 4.159e+00 3.975e+00 3.682e+00
73 1 2.126e+00 5.730e+00 4.011e+00
77 1 4.121e+00 7.617e+00 3.895e+00
76 1 2.022e+00 9.057e+00 4.038e+00
28 1 2.145e+00 2.586e-01 5.713e+00
29 1 2.902e-01 2.102e+00 5.664e+00
37 1 4.694e-01 2.990e-01 7.260e+00
38 1 1.883e+00 2.156e+00 7.421e+00
31 1 4.023e+00 2.156e+00 5.613e+00
41 1 3.779e+00 3.822e-01 7.551e+00
34 1 2.317e+00 3.929e+00 5.608e+00
49 1 4.094e-01 3.968e+00 7.240e+00
51 1 3.907e+00 3.855e+00 7.479e+00
81 1 2.281e-01 5.825e+00 5.562e+00
84 1 2.132e+00 7.381e+00 5.798e+00
90 1 2.293e+00 5.660e+00 7.499e+00
96 1 3.027e-01 7.200e+00 7.321e+00
82 1 3.900e+00 5.632e+00 5.819e+00
100 1 3.941e+00 7.365e+00 7.358e+00
85 1 1.711e-01 9.279e+00 5.503e+00
97 1 1.744e+00 8.975e+00 7.396e+00
87 1 3.873e+00 9.291e+00 5.634e+00
39 1 1.970e+00 1.061e+01 9.233e+00
40 1 6.262e-01 2.322e+00 9.258e+00
44 1 3.582e+00 2.141e+00 9.119e+00
50 1 2.084e+00 4.113e+00 9.166e+00
91 1 2.675e-01 5.542e+00 9.185e+00
98 1 2.012e+00 6.966e+00 9.320e+00
93 1 3.904e+00 5.618e+00 9.238e+00
99 1 3.594e-01 9.006e+00 9.244e+00
103 1 3.740e+00 9.067e+00 8.893e+00
6 1 5.466e+00 2.071e+00 4.334e-01
7 1 5.691e+00 2.059e-01 2.092e+00
9 1 7.588e+00 2.161e-01 2.944e-01
12 1 7.706e+00 2.106e+00 2.102e+00
10 1 9.336e+00 2.148e+00 1.753e-01
11 1 9.251e+00 3.557e-01 2.175e+00
16 1 5.847e+00 3.858e+00 2.104e+00
17 1 7.342e+00 3.852e+00 4.558e-01
18 1 9.149e+00 4.097e+00 2.252e+00
57 1 5.599e+00 5.851e+00 2.871e-01
60 1 7.272e+00 5.816e+00 2.166e+00
67 1 5.639e+00 7.727e+00 2.057e+00
69 1 7.503e+00 7.310e+00 3.431e-01
59 1 9.192e+00 5.687e+00 2.249e-01
71 1 9.108e+00 7.571e+00 2.078e+00
66 1 5.721e+00 9.160e+00 1.798e-01
72 1 7.434e+00 9.467e+00 2.200e+00
70 1 9.161e+00 9.081e+00 4.228e-01
22 1 5.762e+00 2.210e+00 3.675e+00
23 1 7.347e+00 5.440e-01 3.973e+00
24 1 9.291e+00 2.239e+00 3.904e+00
27 1 7.369e+00 4.174e+00 3.925e+00
74 1 5.624e+00 5.926e+00 4.054e+00
79 1 7.292e+00 7.563e+00 3.968e+00
75 1 9.278e+00 5.912e+00 3.661e+00
78 1 5.695e+00 9.510e+00 3.994e+00
80 1 9.135e+00 9.395e+00 3.949e+00
30 1 5.603e+00 3.490e-01 5.891e+00
33 1 7.657e+00 2.235e+00 5.655e+00
42 1 5.516e+00 2.094e+00 7.434e+00
45 1 7.385e+00 2.846e-01 7.466e+00
32 1 9.239e+00 5.011e-01 5.760e+00
46 1 9.429e+00 2.082e+00 7.518e+00
35 1 5.794e+00 3.723e+00 5.812e+00
53 1 7.410e+00 3.718e+00 7.463e+00
36 1 9.271e+00 3.988e+00 5.653e+00
83 1 7.439e+00 5.685e+00 5.621e+00
86 1 5.759e+00 7.474e+00 5.698e+00
92 1 5.679e+00 5.559e+00 7.434e+00
104 1 7.521e+00 7.432e+00 7.338e+00
88 1 9.131e+00 7.567e+00 5.568e+00
94 1 9.114e+00 5.724e+00 7.267e+00
89 1 7.518e+00 9.240e+00 5.722e+00
101 1 5.658e+00 9.206e+00 7.507e+00
105 1 9.200e+00 9.154e+00 7.508e+00
43 1 5.537e+00 3.354e-01 9.198e+00
48 1 7.393e+00 1.930e+00 9.033e+00
47 1 9.512e+00 3.358e-01 9.221e+00
52 1 5.615e+00 3.765e+00 9.103e+00
54 1 9.258e+00 3.919e+00 8.993e+00
95 1 7.402e+00 5.503e+00 9.211e+00
102 1 5.875e+00 7.365e+00 8.964e+00
106 1 9.134e+00 7.440e+00 9.185e+00
107 1 7.414e+00 9.195e+00 9.023e+00
ITEM: TIMESTEP
600
ITEM: NUMBER OF ATOMS
107
ITEM: BOX BOUNDS pp pp pp
0.0000000000000000e+00 1.0619999999999999e+01
0.0000000000000000e+00 1.0619999999999999e+01
0.0000000000000000e+00 1.0619999999999999e+01
ITEM: ATOMS id type x y z
1 1 3.527e-01 2.487e-01 3.646e-01
2 1 2.052e+00 2.018e+00 3.512e-01
3 1 2.289e+00 3.471e-01 2.235e+00
4 1 3.690e-01 1.989e+00 2.156e+00
5 1 3.873e+00 4.630e-01 5.168e-01
8 1 3.912e+00 2.099e+00 2.317e+00
13 1 4.196e-01 3.854e+00 4.922e-01
14 1 2.163e+00 3.928e+00 2.111e+00
15 1 3.972e+00 3.975e+00 3.372e-01
55 1 2.213e+00 5.796e+00 3.909e-01
56 1 4.193e-01 5.784e+00 2.192e+00
61 1 9.770e-02 7.337e+00 4.081e-01
63 1 2.167e+00 7.515e+00 2.281e+00
58 1 3.964e+00 5.798e+00 2.133e+00
65 1 3.951e+00 7.171e+00 3.368e-01
62 1 2.006e+00 9.160e+00 2.808e-01
64 1 2.951e-01 9.186e+00 2.108e+00
68 1 4.098e+00 9.020e+00 2.072e+00
19 1 2.237e-01 2.594e-01 3.966e+00
20 1 2.115e+00 2.087e+00 3.705e+00
21 1 3.974e+00 1.677e-01 3.931e+00
25 1 2.235e-01 3.963e+00 3.821e+00
26 1 3.695e+00 3.805e+00 3.921e+00
73 1 2.209e+00 5.506e+00 3.668e+00
77 1 4.002e+00 7.532e+00 3.931e+00
76 1 2.062e+00 9.310e+00 3.742e+00
28 1 2.005e+00 4.236e-01 5.571e+00
29 1 2.697e-01 2.108e+00 5.654e+00
37 1 4.124e-01 3.537e-01 7.509e+00
38 1 2.213e+00 2.071e+00 7.441e+00
31 1 3.748e+00 2.053e+00 5.587e+00
41 1 3.917e+00 2.711e-01 7.432e+00
34 1 1.786e+00 3.871e+00 5.720e+00
49 1 2.531e-01 3.941e+00 7.564e+00
51 1 3.894e+00 3.877e+00 7.322e+00
81 1 4.848e-01 5.764e+00 5.501e+00
84 1 1.966e+00 7.633e+00 5.534e+00
90 1 2.205e+00 5.847e+00 7.279e+00
96 1 3.936e-01 7.466e+00 7.391e+00
82 1 3.846e+00 5.849e+00 5.484e+00
100 1 4.065e+00 7.306e+00 7.541e+00
85 1 4.984e-01 9.243e+00 5.725e+00
97 1 2.165e+00 9.254e+00 7.480e+00
87 1 3.970e+00 9.254e+00 5.705e+00
39 1 2.130e+00 3.741e-01 9.218e+00
40 1 3.376e-01 2.106e+00 9.141e+00
44 1 3.966e+00 1.889e+00 9.143e+00
50 1 2.204e+00 3.892e+00 9.162e+00
91 1 4.848e-01 5.738e+00 9.265e+00
98 1 2.198e+00 7.606e+00 9.073e+00
93 1 3.951e+00 5.495e+00 9.093e+00
99 1 4.282e-01 9.212e+00 9.131e+00
103 1 3.937e+00 9.319e+00 9.316e+00
6 1 5.676e+00 2.184e+00 3.056e-01
7 1 5.569e+00 3.275e-01 2.205e+00
9 1 7.325e+00 5.693e-01 3.577e-01
12 1 7.149e+00 2.235e+00 2.261e+00
10 1 9.128e+00 2.096e+00 5.943e-01
11 1 9.065e+00 2.975e-01 1.986e+00
16 1 5.353e+00 3.774e+00 2.257e+00
17 1 7.446e+00 3.858e+00 5.116e-01
18 1 9.175e+00 3.727e+00 2.048e+00
57 1 5.801e+00 5.448e+00 3.227e-01
60 1 7.428e+00 5.706e+00 2.180e+00
67 1 5.810e+00 7.279e+00 2.135e+00
69 1 7.401e+00 7.483e+00 3.402e-01
59 1 9.138e+00 5.515e+00 3.810e-01
71 1 9.191e+00 7.418e+00 2.256e+00
66 1 5.763e+00 9.304e+00 4.361e-01
72 1 7.474e+00 9.307e+00 1.886e+00
70 1 9.258e+00 9.316e+00 1.605e-01
22 1 5.479e+00 2.059e+00 3.925e+00
23 1 7.328e+00 1.953e-01 3.672e+00
24 1 8.990e+00 1.997e+00 3.862e+00
27 1 7.419e+00 3.713e+00 3.742e+00
74 1 5.861e+00 5.707e+00 3.817e+00
79 1 7.447e+00 7.360e+00 4.108e+00
75 1 9.169e+00 5.479e+00 3.869e+00
78 1 5.736e+00 9.078e+00 3.800e+00
80 1 9.203e+00 9.081e+00 3.929e+00
30 1 5.883e+00 3.985e-01 5.546e+00
33 1 7.289e+00 2.267e+00 5.746e+00
42 1 5.656e+00 2.046e+00 7.339e+00
45 1 7.642e+00 5.941e-01 7.449e+00
32 1 9.243e+00 3.201e-01 5.586e+00
46 1 9.307e+00 2.333e+00 7.360e+00
35 1 5.540e+00 4.073e+00 5.507e+00
53 1 7.524e+00 3.909e+00 7.377e+00
36 1 9.249e+00 3.808e+00 5.591e+00
83 1 7.377e+00 5.772e+00 5.673e+00
86 1 5.637e+00 7.485e+00 5.704e+00
92 1 5.635e+00 5.621e+00 7.448e+00
104 1 7.398e+00 7.573e+00 7.584e+00
88 1 9.291e+00 7.440e+00 5.837e+00
94 1 9.233e+00 5.604e+00 7.422e+00
89 1 7.314e+00 9.252e+00 5.716e+00
101 1 5.736e+00 9.450e+00 7.599e+00
105 1 9.139e+00 9.277e+00 7.443e+00
43 1 5.795e+00 3.842e-01 9.201e+00
48 1 7.567e+00 2.158e+00 9.215e+00
47 1 9.017e+00 4.567e-01 9.174e+00
52 1 5.683e+00 3.706e+00 9.211e+00
54 1 9.418e+00 3.838e+00 9.499e+00
95 1 7.442e+00 5.558e+00 9.195e+00
102 1 5.698e+00 7.505e+00 9.240e+00
106 1 9.076e+00 7.325e+00 9.263e+00
107 1 7.491e+00 9.373e+00 9.186e+00
ITEM: TIMESTEP
700
ITEM: NUMBER OF ATOMS
107
ITEM: BOX BOUNDS pp pp pp
0.0000000000000000e+00 1.0619999999999999e+01
0.0000000000000000e+00 1.0619999999999999e+01
0.0000000000000000e+00 1.0619999999999999e+01
ITEM: ATOMS id type x y z
1 1 4.016e-01 3.853e-01 3.659e-01
2 1 2.233e+00 1.945e+00 3.212e-01
3 1 1.965e+00 4.661e-01 2.046e+00
4 1 4.369e-01 2.139e+00 1.943e+00
5 1 3.941e+00 3.162e-01 1.037e-01
8 1 3.828e+00 2.203e+00 2.162e+00
13 1 2.389e-01 3.837e+00 1.536e-01
14 1 1.961e+00 3.812e+00 2.281e+00
15 1 3.811e+00 3.947e+00 2.892e-01
55 1 2.188e+00 5.512e+00 4.720e-01
56 1 3.105e-01 5.499e+00 2.242e+00
61 1 4.239e-01 7.736e+00 1.170e-01
63 1 2.223e+00 7.326e+00 2.130e+00
58 1 3.887e+00 5.678e+00 2.149e+00
65 1 3.851e+00 7.626e+00 3.167e-01
62 1 2.228e+00 9.385e+00 1.459e-01
64 1 3.495e-01 9.198e+00 2.080e+00
68 1 3.969e+00 9.419e+00 2.222e+00
19 1 5.572e-01 3.175e-01 3.956e+00
20 1 2.255e+00 1.995e+00 4.049e+00
21 1 3.732e+00 3.324e-01 3.914e+00
25 1 4.752e-01 3.765e+00 3.944e+00
26 1 3.889e+00 3.854e+00 3.959e+00
73 1 1.894e+00 5.778e+00 3.907e+00
77 1 3.804e+00 7.308e+00 3.724e+00
76 1 1.976e+00 9.126e+00 4.043e+00
28 1 2.222e+00 2.290e-01 5.734e+00
29 1 1.986e-01 2.091e+00 5.752e+00
37 1 2.991e-01 3.496e-01 7.527e+00
38 1 2.033e+00 2.140e+00 7.326e+00
31 1 3.882e+00 2.223e+00 5.735e+00
41 1 3.860e+00 4.705e-01 7.536e+00
34 1 2.188e+00 3.928e+00 5.548e+00
49 1 2.570e-01 3.893e+00 7.269e+00
51 1 3.721e+00 3.999e+00 7.519e+00
81 1 2.106e-01 5.791e+00 5.735e+00
84 1 2.231e+00 7.346e+00 5.912e+00
90 1 1.919e+00 5.650e+00 7.443e+00
96 1 5.697e-01 7.606e+00 7.376e+00
82 1 3.988e+00 5.567e+00 5.810e+00
100 1 3.695e+00 7.492e+00 7.512e+00
85 1 3.048e-01 9.201e+00 5.850e+00
97 1 2.184e+00 9.314e+00 7.465e+00
87 1 3.924e+00 9.083e+00 5.543e+00
39 1 2.131e+00 4.743e-01 9.055e+00
40 1 4.178e-01 2.115e+00 9.254e+00
44 1 3.922e+00 2.313e+00 9.064e+00
50 1 2.002e+00 3.934e+00 9.132e+00
91 1 2.730e-01 5.647e+00 9.216e+00
98 1 2.179e+00 7.630e+00 9.300e+00
93 1 3.854e+00 5.877e+00 9.208e+00
99 1 4.769e-01 9.422e+00 9.229e+00
103 1 4.103e+00 9.141e+00 8.932e+00
6 1 5.606e+00 2.149e+00 4.015e-01