ITEM: TIMESTEP
0
ITEM: NUMBER OF ATOMS
107
ITEM: BOX BOUNDS pp pp pp
0.0000000000000000e+00 1.0619999999999999e+01
0.0000000000000000e+00 1.0619999999999999e+01
0.0000000000000000e+00 1.0619999999999999e+01
ITEM: ATOMS id type x y z
1 1 4.146e-01 3.384e-01 3.146e-01
2 1 2.196e+00 2.067e+00 2.900e-01
3 1 2.118e+00 2.942e-01 2.170e+00
4 1 3.849e-01 2.102e+00 2.038e+00
5 1 3.839e+00 3.288e-01 3.113e-01
8 1 3.905e+00 2.017e+00 2.071e+00
13 1 4.392e-01 3.980e+00 3.251e-01
14 1 2.168e+00 3.923e+00 1.998e+00
15 1 3.879e+00 3.876e+00 3.484e-01
54 1 2.169e+00 5.761e+00 3.155e-01
55 1 3.153e-01 5.688e+00 2.137e+00
60 1 2.852e-01 7.436e+00 4.815e-01
62 1 2.175e+00 7.441e+00 2.125e+00
57 1 3.973e+00 5.627e+00 2.289e+00
64 1 4.041e+00 7.409e+00 3.953e-01
61 1 2.111e+00 9.157e+00 3.202e-01
63 1 3.928e-01 9.194e+00 2.076e+00
67 1 3.832e+00 9.158e+00 2.092e+00
19 1 3.900e-01 3.818e-01 3.891e+00
20 1 2.194e+00 2.099e+00 3.872e+00
21 1 3.946e+00 3.254e-01 3.995e+00
25 1 4.103e-01 3.744e+00 3.878e+00
26 1 3.965e+00 3.753e+00 3.904e+00
72 1 2.070e+00 5.569e+00 3.861e+00
75 1 3.399e-01 7.435e+00 3.773e+00
77 1 3.933e+00 7.447e+00 3.870e+00
76 1 1.990e+00 9.230e+00 3.902e+00
28 1 2.166e+00 2.623e-01 5.769e+00
29 1 3.516e-01 2.144e+00 5.650e+00
37 1 3.457e-01 4.176e-01 7.445e+00
38 1 2.116e+00 2.104e+00 7.358e+00
31 1 3.935e+00 2.187e+00 5.722e+00
41 1 3.954e+00 4.173e-01 7.455e+00
34 1 2.134e+00 3.922e+00 5.586e+00
48 1 3.543e-01 3.887e+00 7.410e+00
50 1 3.870e+00 3.834e+00 7.434e+00
81 1 2.881e-01 5.522e+00 5.673e+00
84 1 2.026e+00 7.431e+00 5.616e+00
90 1 2.058e+00 5.671e+00 7.462e+00
96 1 2.351e-01 7.421e+00 7.388e+00
82 1 3.823e+00 5.648e+00 5.544e+00
100 1 3.851e+00 7.526e+00 7.390e+00
85 1 2.544e-01 9.319e+00 5.688e+00
97 1 2.025e+00 9.154e+00 7.470e+00
87 1 3.931e+00 9.311e+00 5.656e+00
39 1 2.093e+00 2.798e-01 9.267e+00
40 1 3.459e-01 2.087e+00 9.142e+00
43 1 3.963e+00 2.199e+00 9.197e+00
49 1 2.206e+00 4.001e+00 9.248e+00
91 1 3.523e-01 5.769e+00 9.245e+00
98 1 2.131e+00 7.461e+00 9.252e+00
93 1 4.004e+00 5.775e+00 9.302e+00
99 1 3.766e-01 9.178e+00 9.243e+00
103 1 3.792e+00 9.337e+00 9.190e+00
6 1 5.656e+00 2.109e+00 4.087e-01
7 1 5.642e+00 4.087e-01 2.147e+00
9 1 7.401e+00 2.935e-01 3.817e-01
12 1 7.321e+00 2.123e+00 2.123e+00
10 1 9.121e+00 2.127e+00 3.126e-01
11 1 9.271e+00 4.062e-01 2.004e+00
16 1 5.536e+00 3.830e+00 2.137e+00
17 1 7.424e+00 3.917e+00 3.215e-01
18 1 9.254e+00 3.753e+00 2.220e+00
56 1 5.672e+00 5.596e+00 4.356e-01
59 1 7.446e+00 5.574e+00 2.133e+00
66 1 5.772e+00 7.425e+00 2.091e+00
68 1 7.441e+00 7.390e+00 4.255e-01
58 1 9.249e+00 5.634e+00 4.055e-01
70 1 9.034e+00 7.380e+00 2.188e+00
65 1 5.707e+00 9.276e+00 3.955e-01
71 1 7.444e+00 9.304e+00 2.180e+00
69 1 9.179e+00 9.164e+00 3.956e-01
22 1 5.565e+00 2.052e+00 3.916e+00
23 1 7.455e+00 4.981e-01 3.933e+00
24 1 9.142e+00 2.063e+00 3.870e+00
27 1 7.428e+00 3.833e+00 3.795e+00
73 1 5.698e+00 5.620e+00 3.937e+00
79 1 7.374e+00 7.483e+00 3.869e+00
74 1 9.218e+00 5.580e+00 3.922e+00
78 1 5.642e+00 9.213e+00 3.907e+00
80 1 9.304e+00 9.233e+00 3.699e+00
30 1 5.644e+00 4.010e-01 5.666e+00
33 1 7.435e+00 2.125e+00 5.732e+00
42 1 5.727e+00 2.134e+00 7.429e+00
44 1 7.415e+00 3.486e-01 7.397e+00
32 1 9.203e+00 3.990e-01 5.698e+00
45 1 9.175e+00 2.164e+00 7.401e+00
35 1 5.660e+00 3.989e+00 5.724e+00
52 1 7.429e+00 3.881e+00 7.466e+00
36 1 9.199e+00 3.895e+00 5.657e+00
83 1 7.440e+00 5.682e+00 5.583e+00
86 1 5.609e+00 7.411e+00 5.681e+00
92 1 5.649e+00 5.659e+00 7.407e+00
104 1 7.531e+00 7.456e+00 7.448e+00
88 1 9.224e+00 7.482e+00 5.483e+00
94 1 9.214e+00 5.698e+00 7.409e+00
89 1 7.343e+00 9.193e+00 5.568e+00
101 1 5.626e+00 9.233e+00 7.455e+00
105 1 9.238e+00 9.215e+00 7.481e+00
47 1 7.409e+00 2.161e+00 9.183e+00
46 1 9.135e+00 3.418e-01 9.235e+00
51 1 5.701e+00 3.873e+00 9.248e+00
53 1 9.315e+00 3.897e+00 9.197e+00
95 1 7.552e+00 5.616e+00 9.236e+00
102 1 5.700e+00 7.508e+00 9.284e+00
106 1 9.161e+00 7.434e+00 9.232e+00
107 1 7.456e+00 9.246e+00 9.181e+00
ITEM: TIMESTEP
100
ITEM: NUMBER OF ATOMS
107
ITEM: BOX BOUNDS pp pp pp
0.0000000000000000e+00 1.0619999999999999e+01
0.0000000000000000e+00 1.0619999999999999e+01
0.0000000000000000e+00 1.0619999999999999e+01
ITEM: ATOMS id type x y z
1 1 2.904e-01 3.200e-01 3.590e-01
2 1 2.123e+00 2.181e+00 3.480e-01
3 1 2.095e+00 3.543e-01 2.031e+00
4 1 4.164e-01 2.168e+00 2.167e+00
5 1 3.893e+00 2.639e-01 2.464e-01
8 1 3.928e+00 2.262e+00 2.138e+00
13 1 3.269e-01 3.967e+00 3.923e-01
14 1 2.104e+00 3.908e+00 2.231e+00
15 1 3.914e+00 3.944e+00 3.020e-01
54 1 2.134e+00 5.622e+00 2.900e-01
55 1 3.192e-01 5.681e+00 2.092e+00
60 1 3.501e-01 7.401e+00 2.391e-01
62 1 1.976e+00 7.500e+00 2.144e+00
57 1 3.922e+00 5.714e+00 2.042e+00
64 1 3.754e+00 7.519e+00 3.239e-01
61 1 2.030e+00 9.255e+00 3.096e-01
63 1 2.917e-01 9.217e+00 2.189e+00
67 1 3.946e+00 9.125e+00 2.132e+00
19 1 4.045e-01 2.664e-01 3.851e+00
20 1 2.121e+00 2.157e+00 3.873e+00
21 1 3.800e+00 3.091e-01 3.862e+00
25 1 3.976e-01 4.006e+00 3.933e+00
26 1 3.883e+00 4.034e+00 3.893e+00
72 1 2.229e+00 5.775e+00 3.960e+00
75 1 2.175e-01 7.394e+00 3.951e+00
77 1 3.956e+00 7.356e+00 3.912e+00
76 1 2.136e+00 9.201e+00 3.914e+00
28 1 2.094e+00 3.971e-01 5.662e+00
29 1 4.346e-01 2.111e+00 5.718e+00
37 1 3.125e-01 3.071e-01 7.387e+00
38 1 2.173e+00 2.141e+00 7.448e+00
31 1 3.879e+00 2.012e+00 5.651e+00
41 1 3.788e+00 2.255e-01 7.382e+00
34 1 2.186e+00 3.854e+00 5.639e+00
48 1 3.264e-01 3.946e+00 7.359e+00
50 1 3.943e+00 3.933e+00 7.468e+00
81 1 3.777e-01 5.649e+00 5.678e+00
84 1 2.187e+00 7.342e+00 5.695e+00
90 1 2.125e+00 5.669e+00 7.352e+00
96 1 4.138e-01 7.413e+00 7.463e+00
82 1 4.002e+00 5.687e+00 5.748e+00
100 1 3.930e+00 7.380e+00 7.472e+00
85 1 3.873e-01 9.089e+00 5.685e+00
97 1 2.129e+00 9.233e+00 7.474e+00
87 1 3.879e+00 9.127e+00 5.701e+00
39 1 2.052e+00 3.598e-01 9.245e+00
40 1 3.083e-01 2.259e+00 9.241e+00
43 1 3.842e+00 2.070e+00 9.231e+00
49 1 2.174e+00 3.906e+00 9.188e+00
91 1 3.732e-01 5.581e+00 9.156e+00
98 1 2.050e+00 7.411e+00 9.149e+00
93 1 3.760e+00 5.611e+00 9.264e+00
99 1 3.428e-01 9.253e+00 9.201e+00
103 1 4.002e+00 9.117e+00 9.177e+00
6 1 5.540e+00 2.091e+00 2.789e-01
7 1 5.701e+00 3.107e-01 2.094e+00
9 1 7.425e+00 4.359e-01 3.724e-01
12 1 7.550e+00 2.121e+00 2.139e+00
10 1 9.237e+00 2.187e+00 3.974e-01
11 1 9.183e+00 3.590e-01 2.192e+00
16 1 5.690e+00 3.876e+00 2.126e+00
17 1 7.392e+00 3.869e+00 2.845e-01
18 1 9.128e+00 3.963e+00 2.189e+00
56 1 5.692e+00 5.804e+00 2.309e-01
59 1 7.388e+00 5.709e+00 2.162e+00
66 1 5.655e+00 7.456e+00 2.201e+00
68 1 7.493e+00 7.472e+00 3.882e-01
58 1 9.163e+00 5.739e+00 2.981e-01
70 1 9.292e+00 7.485e+00 2.108e+00
65 1 5.689e+00 9.161e+00 3.601e-01
71 1 7.505e+00 9.131e+00 2.092e+00
69 1 9.104e+00 9.294e+00 3.125e-01
22 1 5.664e+00 2.058e+00 3.833e+00
23 1 7.411e+00 2.696e-01 3.812e+00
24 1 9.260e+00 2.158e+00 3.842e+00
27 1 7.495e+00 3.918e+00 3.953e+00
73 1 5.729e+00 5.644e+00 3.915e+00
79 1 7.534e+00 7.415e+00 3.973e+00
74 1 9.122e+00 5.610e+00 4.006e+00
78 1 5.719e+00 9.137e+00 3.982e+00
80 1 9.158e+00 9.183e+00 3.954e+00
30 1 5.609e+00 2.886e-01 5.577e+00
33 1 7.461e+00 1.995e+00 5.676e+00
42 1 5.611e+00 2.035e+00 7.497e+00
44 1 7.458e+00 3.904e-01 7.526e+00
32 1 9.276e+00 4.537e-01 5.619e+00
45 1 9.233e+00 2.150e+00 7.427e+00
35 1 5.624e+00 3.767e+00 5.733e+00
52 1 7.435e+00 3.796e+00 7.409e+00
36 1 9.321e+00 3.824e+00 5.659e+00
83 1 7.398e+00 5.610e+00 5.687e+00
86 1 5.702e+00 7.476e+00 5.602e+00
92 1 5.679e+00 5.725e+00 7.311e+00
104 1 7.472e+00 7.444e+00 7.447e+00
88 1 9.185e+00 7.408e+00 5.829e+00
94 1 9.263e+00 5.631e+00 7.432e+00
89 1 7.448e+00 9.220e+00 5.726e+00
101 1 5.696e+00 9.211e+00 7.429e+00
105 1 9.200e+00 9.212e+00 7.449e+00
47 1 7.435e+00 2.145e+00 9.210e+00
46 1 9.291e+00 3.788e-01 9.195e+00
51 1 5.602e+00 3.965e+00 9.164e+00
53 1 9.123e+00 3.995e+00 9.215e+00
95 1 7.408e+00 5.706e+00 9.166e+00
102 1 5.582e+00 7.390e+00 9.130e+00
106 1 9.179e+00 7.426e+00 9.036e+00
107 1 7.400e+00 9.292e+00 9.276e+00
ITEM: TIMESTEP
200
ITEM: NUMBER OF ATOMS
107
ITEM: BOX BOUNDS pp pp pp
0.0000000000000000e+00 1.0619999999999999e+01
0.0000000000000000e+00 1.0619999999999999e+01
0.0000000000000000e+00 1.0619999999999999e+01
ITEM: ATOMS id type x y z
1 1 4.383e-01 4.016e-01 3.654e-01
2 1 2.088e+00 2.133e+00 4.189e-01
3 1 2.048e+00 3.426e-01 2.252e+00
4 1 2.852e-01 2.150e+00 2.216e+00
5 1 3.940e+00 4.724e-01 4.247e-01
8 1 3.890e+00 2.099e+00 2.116e+00
13 1 3.084e-01 3.733e+00 3.171e-01
14 1 2.078e+00 3.832e+00 2.121e+00
15 1 3.884e+00 3.885e+00 3.276e-01
54 1 2.130e+00 5.694e+00 2.833e-01
55 1 3.489e-01 5.721e+00 2.110e+00
60 1 4.157e-01 7.383e+00 4.293e-01
62 1 2.244e+00 7.334e+00 2.076e+00
57 1 3.837e+00 5.661e+00 2.228e+00
64 1 4.024e+00 7.370e+00 3.453e-01
61 1 2.164e+00 9.183e+00 3.825e-01
63 1 4.598e-01 9.176e+00 2.121e+00
67 1 3.897e+00 9.263e+00 2.091e+00
19 1 3.087e-01 4.302e-01 3.898e+00
20 1 2.120e+00 2.143e+00 3.895e+00
21 1 3.955e+00 3.735e-01 3.937e+00
25 1 2.776e-01 3.906e+00 3.869e+00
26 1 3.831e+00 3.812e+00 3.729e+00
72 1 2.109e+00 5.603e+00 3.853e+00
75 1 5.496e-01 7.508e+00 3.904e+00
77 1 3.858e+00 7.523e+00 3.861e+00
76 1 2.177e+00 9.239e+00 3.785e+00
28 1 2.246e+00 3.555e-01 5.549e+00
29 1 3.212e-01 2.152e+00 5.635e+00
37 1 3.343e-01 3.691e-01 7.416e+00
38 1 2.195e+00 2.103e+00 7.336e+00
31 1 3.852e+00 2.086e+00 5.605e+00
41 1 3.881e+00 4.196e-01 7.502e+00
34 1 2.074e+00 3.907e+00 5.661e+00
48 1 3.316e-01 3.819e+00 7.457e+00
50 1 3.956e+00 3.866e+00 7.368e+00
81 1 4.201e-01 5.683e+00 5.733e+00
84 1 2.138e+00 7.453e+00 5.637e+00
90 1 2.249e+00 5.718e+00 7.508e+00
96 1 2.610e-01 7.414e+00 7.477e+00
82 1 3.785e+00 5.706e+00 5.600e+00
100 1 3.952e+00 7.453e+00 7.373e+00
85 1 3.384e-01 9.224e+00 5.665e+00
97 1 2.127e+00 9.258e+00 7.352e+00
87 1 3.983e+00 9.222e+00 5.597e+00
39 1 2.188e+00 4.383e-01 9.191e+00
40 1 3.800e-01 2.019e+00 9.289e+00
43 1 3.929e+00 2.074e+00 9.320e+00
49 1 2.109e+00 3.821e+00 9.320e+00
91 1 2.758e-01 5.687e+00 9.207e+00
98 1 2.156e+00 7.389e+00 9.239e+00
93 1 4.005e+00 5.594e+00 9.138e+00
99 1 3.634e-01 9.267e+00 9.188e+00
103 1 3.806e+00 9.249e+00 9.270e+00
6 1 5.772e+00 2.148e+00 3.416e-01
7 1 5.713e+00 3.724e-01 2.108e+00
9 1 7.435e+00 1.779e-01 3.248e-01
12 1 7.466e+00 2.096e+00 2.123e+00
10 1 9.065e+00 2.093e+00 4.104e-01
11 1 9.132e+00 3.398e-01 2.188e+00
16 1 5.640e+00 3.941e+00 2.175e+00
17 1 7.555e+00 3.922e+00 4.323e-01
18 1 9.247e+00 3.939e+00 2.078e+00
56 1 5.612e+00 5.539e+00 3.743e-01
59 1 7.502e+00 5.672e+00 2.176e+00
66 1 5.651e+00 7.431e+00 2.030e+00
68 1 7.408e+00 7.462e+00 2.524e-01
58 1 9.227e+00 5.555e+00 3.084e-01
70 1 9.153e+00 7.499e+00 2.092e+00
65 1 5.539e+00 9.275e+00 2.670e-01
71 1 7.436e+00 9.225e+00 2.107e+00
69 1 9.261e+00 9.248e+00 3.715e-01
22 1 5.670e+00 2.148e+00 3.895e+00
23 1 7.441e+00 3.536e-01 3.915e+00
24 1 9.091e+00 2.148e+00 3.942e+00
27 1 7.451e+00 3.961e+00 3.837e+00
73 1 5.636e+00 5.786e+00 3.842e+00
79 1 7.288e+00 7.465e+00 3.900e+00
74 1 9.262e+00 5.766e+00 3.844e+00
78 1 5.610e+00 9.225e+00 3.807e+00
80 1 9.269e+00 9.189e+00 3.883e+00
30 1 5.731e+00 3.977e-01 5.689e+00
33 1 7.434e+00 2.188e+00 5.679e+00
42 1 5.722e+00 2.182e+00 7.450e+00
44 1 7.432e+00 3.524e-01 7.421e+00
32 1 9.163e+00 3.139e-01 5.749e+00
45 1 9.151e+00 2.063e+00 7.354e+00
35 1 5.699e+00 3.999e+00 5.630e+00
52 1 7.421e+00 3.862e+00 7.504e+00
36 1 9.068e+00 3.919e+00 5.647e+00
83 1 7.422e+00 5.747e+00 5.650e+00
86 1 5.620e+00 7.378e+00 5.720e+00
92 1 5.659e+00 5.547e+00 7.489e+00
104 1 7.422e+00 7.434e+00 7.407e+00
88 1 9.126e+00 7.514e+00 5.667e+00
94 1 9.150e+00 5.572e+00 7.508e+00
89 1 7.421e+00 9.180e+00 5.599e+00
101 1 5.548e+00 9.264e+00 7.483e+00
105 1 9.191e+00 9.188e+00 7.440e+00
47 1 7.395e+00 2.053e+00 9.207e+00
46 1 9.198e+00 3.527e-01 9.243e+00
51 1 5.649e+00 3.784e+00 9.298e+00
53 1 9.213e+00 3.715e+00 9.194e+00
95 1 7.409e+00 5.587e+00 9.303e+00
102 1 5.650e+00 7.485e+00 9.193e+00
106 1 9.194e+00 7.385e+00 9.252e+00
107 1 7.500e+00 9.219e+00 9.092e+00
ITEM: TIMESTEP
300
ITEM: NUMBER OF ATOMS
107
ITEM: BOX BOUNDS pp pp pp
0.0000000000000000e+00 1.0619999999999999e+01
0.0000000000000000e+00 1.0619999999999999e+01
0.0000000000000000e+00 1.0619999999999999e+01
ITEM: ATOMS id type x y z
1 1 3.615e-01 2.750e-01 2.839e-01
2 1 2.093e+00 2.133e+00 1.541e-01
3 1 2.254e+00 2.951e-01 2.116e+00
4 1 3.841e-01 2.091e+00 2.042e+00
5 1 3.978e+00 2.712e-01 2.435e-01
8 1 3.857e+00 2.133e+00 2.277e+00
13 1 3.740e-01 3.883e+00 3.506e-01
14 1 2.179e+00 3.887e+00 2.235e+00
15 1 3.951e+00 3.736e+00 3.181e-01
54 1 2.030e+00 5.715e+00 4.825e-01
55 1 3.372e-01 5.649e+00 2.171e+00
60 1 3.852e-01 7.463e+00 3.119e-01
62 1 2.071e+00 7.539e+00 2.173e+00
57 1 3.910e+00 5.633e+00 2.040e+00
64 1 3.811e+00 7.506e+00 3.479e-01
61 1 2.126e+00 9.173e+00 3.807e-01
63 1 3.561e-01 9.219e+00 2.141e+00
67 1 3.901e+00 9.168e+00 2.142e+00
19 1 4.167e-01 3.048e-01 3.884e+00
20 1 2.088e+00 2.067e+00 3.907e+00
21 1 3.849e+00 3.926e-01 3.930e+00
25 1 4.312e-01 3.846e+00 3.899e+00
26 1 3.870e+00 3.922e+00 3.909e+00
72 1 2.117e+00 5.762e+00 3.858e+00
75 1 3.211e-01 7.437e+00 3.838e+00
77 1 3.845e+00 7.340e+00 3.874e+00
76 1 2.107e+00 9.197e+00 3.980e+00
28 1 2.107e+00 4.537e-01 5.812e+00
29 1 2.801e-01 2.117e+00 5.711e+00
37 1 3.361e-01 2.857e-01 7.478e+00
38 1 2.068e+00 2.049e+00 7.449e+00
31 1 3.816e+00 2.225e+00 5.685e+00
41 1 3.907e+00 4.581e-01 7.401e+00
34 1 2.085e+00 3.883e+00 5.700e+00
48 1 3.109e-01 3.918e+00 7.423e+00
50 1 3.886e+00 4.014e+00 7.458e+00
81 1 3.529e-01 5.745e+00 5.585e+00
84 1 2.143e+00 7.429e+00 5.623e+00
90 1 2.003e+00 5.600e+00 7.315e+00
96 1 4.300e-01 7.472e+00 7.454e+00
82 1 3.854e+00 5.713e+00 5.784e+00
100 1 3.807e+00 7.334e+00 7.475e+00
85 1 3.161e-01 9.157e+00 5.664e+00
97 1 2.120e+00 9.185e+00 7.494e+00
87 1 3.782e+00 9.230e+00 5.753e+00
39 1 2.059e+00 3.610e-01 9.180e+00
40 1 3.783e-01 2.183e+00 9.129e+00
43 1 3.949e+00 2.159e+00 9.063e+00
49 1 2.137e+00 3.861e+00 9.207e+00
91 1 4.170e-01 5.712e+00 9.242e+00
98 1 2.136e+00 7.398e+00 9.237e+00
93 1 3.875e+00 5.716e+00 9.262e+00
99 1 3.146e-01 9.154e+00 9.176e+00
103 1 4.015e+00 9.290e+00 9.096e+00
6 1 5.509e+00 2.008e+00 3.081e-01
7 1 5.584e+00 3.116e-01 2.173e+00
9 1 7.496e+00 5.264e-01 4.015e-01
12 1 7.424e+00 2.091e+00 2.167e+00
10 1 9.312e+00 2.124e+00 2.299e-01
11 1 9.148e+00 2.850e-01 2.105e+00
16 1 5.760e+00 3.908e+00 2.148e+00
17 1 7.393e+00 3.762e+00 3.033e-01
18 1 9.169e+00 3.870e+00 2.075e+00
56 1 5.663e+00 5.669e+00 3.954e-01
59 1 7.430e+00 5.591e+00 2.092e+00
66 1 5.591e+00 7.429e+00 2.189e+00
68 1 7.457e+00 7.416e+00 3.700e-01
58 1 9.166e+00 5.709e+00 4.189e-01
70 1 9.272e+00 7.326e+00 2.091e+00
65 1 5.700e+00 9.163e+00 3.589e-01
71 1 7.379e+00 9.317e+00 2.118e+00
69 1 9.100e+00 9.111e+00 3.461e-01
22 1 5.680e+00 2.172e+00 3.955e+00
23 1 7.411e+00 3.371e-01 3.906e+00
24 1 9.265e+00 2.052e+00 3.917e+00
27 1 7.439e+00 3.871e+00 3.957e+00
73 1 5.723e+00 5.616e+00 3.847e+00
79 1 7.524e+00 7.378e+00 3.838e+00
74 1 9.176e+00 5.547e+00 3.802e+00
78 1 5.602e+00 9.193e+00 3.933e+00
80 1 9.110e+00 9.187e+00 3.893e+00
30 1 5.618e+00 3.512e-01 5.603e+00
33 1 7.464e+00 2.166e+00 5.658e+00
42 1 5.748e+00 2.188e+00 7.387e+00
44 1 7.461e+00 3.634e-01 7.388e+00
32 1 9.130e+00 2.744e-01 5.672e+00
45 1 9.153e+00 2.180e+00 7.471e+00
35 1 5.766e+00 3.909e+00 5.724e+00
52 1 7.465e+00 4.004e+00 7.297e+00
36 1 9.181e+00 3.883e+00 5.690e+00
83 1 7.487e+00 5.714e+00 5.623e+00
86 1 5.637e+00 7.490e+00 5.663e+00
92 1 5.646e+00 5.725e+00 7.403e+00
104 1 7.483e+00 7.455e+00 7.422e+00
88 1 9.251e+00 7.517e+00 5.656e+00
94 1 9.280e+00 5.832e+00 7.386e+00
89 1 7.526e+00 9.134e+00 5.757e+00
101 1 5.726e+00 9.102e+00 7.490e+00
105 1 9.246e+00 9.217e+00 7.389e+00
47 1 7.342e+00 2.104e+00 9.153e+00
46 1 9.191e+00 2.217e-01 9.123e+00
51 1 5.690e+00 4.060e+00 9.106e+00
53 1 9.217e+00 4.059e+00 9.354e+00
95 1 7.587e+00 5.732e+00 9.163e+00
102 1 5.686e+00 7.346e+00 9.320e+00
106 1 9.273e+00 7.480e+00 9.227e+00
107 1 7.414e+00 9.155e+00 9.276e+00
ITEM: TIMESTEP
400
ITEM: NUMBER OF ATOMS
107
ITEM: BOX BOUNDS pp pp pp
0.0000000000000000e+00 1.0619999999999999e+01
0.0000000000000000e+00 1.0619999999999999e+01
0.0000000000000000e+00 1.0619999999999999e+01
ITEM: ATOMS id type x y z
1 1 3.379e-01 4.986e-01 3.530e-01
2 1 2.148e+00 2.141e+00 3.137e-01
3 1 2.095e+00 3.929e-01 2.120e+00
4 1 4.144e-01 2.149e+00 2.102e+00
5 1 3.912e+00 3.405e-01 3.964e-01
8 1 3.935e+00 2.092e+00 2.037e+00
13 1 3.839e-01 3.882e+00 2.958e-01
14 1 2.151e+00 3.892e+00 2.077e+00
15 1 3.844e+00 4.003e+00 3.428e-01
54 1 2.182e+00 5.717e+00 3.064e-01
55 1 3.258e-01 5.624e+00 2.120e+00
60 1 2.255e-01 7.416e+00 4.210e-01
62 1 2.123e+00 7.387e+00 2.131e+00
57 1 3.962e+00 5.679e+00 2.214e+00
64 1 3.940e+00 7.357e+00 4.111e-01
61 1 2.116e+00 9.231e+00 3.856e-01
63 1 4.105e-01 9.289e+00 2.085e+00
67 1 3.913e+00 9.219e+00 2.072e+00
19 1 3.632e-01 4.171e-01 3.909e+00
20 1 2.254e+00 2.174e+00 3.860e+00
21 1 3.931e+00 3.236e-01 3.812e+00
25 1 3.345e-01 3.838e+00 3.810e+00
26 1 3.881e+00 3.766e+00 3.893e+00
72 1 2.065e+00 5.568e+00 3.861e+00
75 1 3.510e-01 7.380e+00 3.872e+00
77 1 3.942e+00 7.457e+00 3.895e+00
76 1 2.086e+00 9.193e+00 3.820e+00
28 1 2.111e+00 2.805e-01 5.710e+00
29 1 4.852e-01 2.154e+00 5.644e+00
37 1 4.044e-01 3.961e-01 7.534e+00
38 1 2.152e+00 2.206e+00 7.476e+00
31 1 3.927e+00 2.020e+00 5.733e+00
41 1 3.920e+00 2.051e-01 7.437e+00
34 1 2.164e+00 3.948e+00 5.673e+00
48 1 4.829e-01 3.935e+00 7.400e+00
50 1 3.859e+00 3.948e+00 7.447e+00
81 1 3.893e-01 5.589e+00 5.694e+00
84 1 2.152e+00 7.407e+00 5.673e+00
90 1 2.212e+00 5.765e+00 7.416e+00
96 1 2.812e-01 7.410e+00 7.384e+00
82 1 3.883e+00 5.685e+00 5.678e+00
100 1 3.945e+00 7.453e+00 7.392e+00
85 1 3.130e-01 9.154e+00 5.701e+00
97 1 2.123e+00 9.162e+00 7.432e+00
87 1 3.964e+00 9.115e+00 5.612e+00
39 1 2.151e+00 4.119e-01 9.130e+00
40 1 4.456e-01 2.144e+00 9.302e+00
43 1 3.839e+00 2.193e+00 9.324e+00
49 1 2.039e+00 3.915e+00 9.149e+00
91 1 3.328e-01 5.695e+00 9.222e+00
98 1 2.024e+00 7.507e+00 9.222e+00
93 1 4.010e+00 5.763e+00 9.104e+00
99 1 2.822e-01 9.221e+00 9.223e+00
103 1 3.865e+00 9.040e+00 9.306e+00
6 1 5.746e+00 2.199e+00 2.924e-01
7 1 5.688e+00 3.766e-01 2.141e+00
9 1 7.247e+00 2.364e-01 3.251e-01
12 1 7.326e+00 2.103e+00 2.032e+00
10 1 9.086e+00 2.142e+00 4.567e-01
11 1 9.207e+00 4.615e-01 2.054e+00
16 1 5.602e+00 3.859e+00 2.091e+00
17 1 7.447e+00 4.046e+00 3.555e-01
18 1 9.253e+00 3.848e+00 2.127e+00
56 1 5.671e+00 5.711e+00 3.686e-01
59 1 7.463e+00 5.636e+00 2.189e+00
66 1 5.720e+00 7.336e+00 2.164e+00
68 1 7.445e+00 7.468e+00 3.370e-01
58 1 9.184e+00 5.609e+00 3.666e-01
70 1 9.147e+00 7.450e+00 2.205e+00
65 1 5.617e+00 9.233e+00 4.185e-01
71 1 7.444e+00 9.235e+00 2.184e+00
69 1 9.199e+00 9.328e+00 3.307e-01
22 1 5.632e+00 2.037e+00 3.943e+00
23 1 7.466e+00 4.042e-01 3.769e+00
24 1 9.231e+00 2.157e+00 3.890e+00
27 1 7.364e+00 3.824e+00 3.855e+00
73 1 5.706e+00 5.566e+00 3.868e+00
79 1 7.425e+00 7.432e+00 3.972e+00
74 1 9.159e+00 5.756e+00 3.890e+00
78 1 5.665e+00 9.240e+00 3.818e+00
80 1 9.244e+00 9.340e+00 3.928e+00
30 1 5.684e+00 3.713e-01 5.686e+00
33 1 7.406e+00 2.137e+00 5.731e+00
42 1 5.603e+00 2.141e+00 7.476e+00
44 1 7.399e+00 3.134e-01 7.579e+00
32 1 9.210e+00 3.679e-01 5.598e+00
45 1 9.256e+00 2.064e+00 7.368e+00
35 1 5.700e+00 3.823e+00 5.673e+00
52 1 7.357e+00 3.850e+00 7.408e+00
36 1 9.248e+00 3.806e+00 5.664e+00
83 1 7.428e+00 5.461e+00 5.688e+00
86 1 5.762e+00 7.356e+00 5.679e+00
92 1 5.633e+00 5.646e+00 7.422e+00
104 1 7.418e+00 7.448e+00 7.400e+00
88 1 9.174e+00 7.415e+00 5.609e+00
94 1 9.145e+00 5.622e+00 7.392e+00
89 1 7.454e+00 9.265e+00 5.577e+00
101 1 5.759e+00 9.211e+00 7.365e+00
105 1 9.146e+00 9.244e+00 7.388e+00
47 1 7.486e+00 2.139e+00 9.232e+00
46 1 9.203e+00 4.752e-01 9.240e+00
51 1 5.573e+00 3.811e+00 9.197e+00
53 1 9.267e+00 3.819e+00 9.220e+00
95 1 7.296e+00 5.677e+00 9.254e+00
102 1 5.664e+00 7.519e+00 9.135e+00
106 1 9.082e+00 7.437e+00 9.311e+00
107 1 7.319e+00 9.176e+00 9.287e+00
ITEM: TIMESTEP
500
ITEM: NUMBER OF ATOMS
107
ITEM: BOX BOUNDS pp pp pp
0.0000000000000000e+00 1.0619999999999999e+01
0.0000000000000000e+00 1.0619999999999999e+01
0.0000000000000000e+00 1.0619999999999999e+01
ITEM: ATOMS id type x y z
1 1 2.836e-01 2.756e-01 4.391e-01
2 1 2.086e+00 2.156e+00 4.531e-01
3 1 2.123e+00 3.220e-01 2.030e+00
4 1 2.247e-01 2.158e+00 2.221e+00
5 1 3.881e+00 3.009e-01 3.453e-01
8 1 3.830e+00 2.192e+00 2.155e+00
13 1 2.837e-01 3.964e+00 3.643e-01
14 1 2.020e+00 3.899e+00 2.176e+00
15 1 3.916e+00 3.890e+00 3.804e-01
54 1 2.040e+00 5.586e+00 3.866e-01
55 1 3.625e-01 5.745e+00 2.207e+00
60 1 3.856e-01 7.469e+00 2.755e-01
62 1 2.053e+00 7.417e+00 2.128e+00
57 1 3.855e+00 5.732e+00 1.995e+00
64 1 3.845e+00 7.462e+00 3.551e-01
61 1 2.160e+00 9.115e+00 3.457e-01
63 1 3.752e-01 9.192e+00 2.180e+00
67 1 3.851e+00 9.216e+00 2.210e+00
19 1 2.476e-01 3.054e-01 3.870e+00
20 1 2.066e+00 2.161e+00 3.875e+00
21 1 3.983e+00 3.896e-01 3.881e+00
25 1 4.143e-01 3.959e+00 4.031e+00
26 1 3.911e+00 3.989e+00 3.787e+00
72 1 2.146e+00 5.678e+00 3.965e+00
75 1 2.860e-01 7.447e+00 3.921e+00
77 1 3.900e+00 7.498e+00 3.884e+00
76 1 2.112e+00 9.237e+00 3.828e+00
28 1 2.122e+00 3.037e-01 5.570e+00
29 1 2.916e-01 2.115e+00 5.724e+00
37 1 4.256e-01 3.252e-01 7.320e+00
38 1 2.107e+00 2.055e+00 7.476e+00
31 1 3.949e+00 2.055e+00 5.551e+00
41 1 3.879e+00 3.212e-01 7.446e+00
34 1 2.158e+00 3.873e+00 5.705e+00
48 1 3.850e-01 3.871e+00 7.400e+00
50 1 3.949e+00 3.784e+00 7.464e+00
81 1 3.366e-01 5.726e+00 5.741e+00
84 1 2.086e+00 7.466e+00 5.722e+00
90 1 2.098e+00 5.627e+00 7.390e+00
96 1 3.776e-01 7.483e+00 7.387e+00
82 1 3.865e+00 5.669e+00 5.674e+00
100 1 3.883e+00 7.448e+00 7.427e+00
85 1 3.426e-01 9.284e+00 5.574e+00
97 1 2.089e+00 9.243e+00 7.358e+00
87 1 3.909e+00 9.222e+00 5.693e+00
39 1 2.014e+00 3.027e-01 9.293e+00
40 1 3.940e-01 2.053e+00 9.127e+00
43 1 3.878e+00 2.021e+00 9.214e+00
49 1 2.119e+00 3.863e+00 9.215e+00
91 1 2.848e-01 5.585e+00 9.222e+00
98 1 2.228e+00 7.432e+00 9.132e+00
93 1 3.812e+00 5.663e+00 9.225e+00
99 1 4.444e-01 9.182e+00 9.199e+00
103 1 3.911e+00 9.192e+00 9.182e+00
6 1 5.623e+00 2.112e+00 3.789e-01
7 1 5.664e+00 2.862e-01 2.074e+00
9 1 7.587e+00 4.529e-01 3.681e-01
12 1 7.617e+00 2.066e+00 2.146e+00
10 1 9.420e+00 2.130e+00 2.394e-01
11 1 9.252e+00 3.626e-01 2.191e+00
16 1 5.739e+00 3.953e+00 2.126e+00
17 1 7.420e+00 3.748e+00 3.276e-01
18 1 9.207e+00 3.990e+00 2.092e+00
56 1 5.695e+00 5.667e+00 4.138e-01
59 1 7.390e+00 5.737e+00 2.214e+00
66 1 5.598e+00 7.463e+00 2.121e+00
68 1 7.439e+00 7.341e+00 2.817e-01
58 1 9.190e+00 5.703e+00 2.629e-01
70 1 9.195e+00 7.350e+00 2.093e+00
65 1 5.748e+00 9.201e+00 2.083e-01
71 1 7.382e+00 9.228e+00 2.077e+00
69 1 9.230e+00 9.117e+00 3.297e-01
22 1 5.655e+00 2.145e+00 3.757e+00
23 1 7.443e+00 2.689e-01 3.973e+00
24 1 9.294e+00 2.188e+00 3.951e+00
27 1 7.407e+00 3.941e+00 4.046e+00
73 1 5.677e+00 5.773e+00 3.926e+00
79 1 7.479e+00 7.448e+00 3.819e+00
74 1 9.273e+00 5.666e+00 3.927e+00
78 1 5.730e+00 9.201e+00 3.919e+00
80 1 9.147e+00 9.123e+00 3.938e+00
30 1 5.632e+00 3.359e-01 5.716e+00
33 1 7.372e+00 2.144e+00 5.639e+00
42 1 5.644e+00 1.986e+00 7.442e+00
44 1 7.420e+00 3.988e-01 7.346e+00
32 1 9.297e+00 3.433e-01 5.704e+00
45 1 9.116e+00 2.116e+00 7.485e+00
35 1 5.657e+00 3.858e+00 5.717e+00
52 1 7.432e+00 3.795e+00 7.428e+00
36 1 9.136e+00 3.923e+00 5.726e+00
83 1 7.437e+00 5.839e+00 5.662e+00
86 1 5.590e+00 7.571e+00 5.650e+00
92 1 5.738e+00 5.701e+00 7.368e+00
104 1 7.378e+00 7.466e+00 7.434e+00
88 1 9.221e+00 7.426e+00 5.703e+00
94 1 9.224e+00 5.591e+00 7.346e+00
89 1 7.412e+00 9.175e+00 5.736e+00
101 1 5.624e+00 9.241e+00 7.523e+00
105 1 9.268e+00 9.214e+00 7.453e+00
47 1 7.345e+00 2.111e+00 9.192e+00
46 1 9.267e+00 4.025e-01 9.188e+00
51 1 5.673e+00 4.010e+00 9.237e+00
53 1 9.155e+00 3.876e+00 9.208e+00
95 1 7.512e+00 5.646e+00 9.249e+00
102 1 5.703e+00 7.261e+00 9.174e+00
106 1 9.208e+00 7.449e+00 9.157e+00
107 1 7.500e+00 9.312e+00 9.083e+00
ITEM: TIMESTEP
600
ITEM: NUMBER OF ATOMS
107
ITEM: BOX BOUNDS pp pp pp
0.0000000000000000e+00 1.0619999999999999e+01
0.0000000000000000e+00 1.0619999999999999e+01
0.0000000000000000e+00 1.0619999999999999e+01
ITEM: ATOMS id type x y z
1 1 4.124e-01 3.491e-01 2.467e-01
2 1 2.180e+00 2.050e+00 3.911e-01
3 1 2.099e+00 2.685e-01 2.183e+00
4 1 3.306e-01 2.066e+00 2.048e+00
5 1 3.878e+00 4.349e-01 3.712e-01
8 1 3.929e+00 2.078e+00 2.163e+00
13 1 3.910e-01 3.898e+00 3.611e-01
14 1 2.205e+00 3.896e+00 2.137e+00
15 1 3.846e+00 3.845e+00 4.584e-01
54 1 2.220e+00 5.689e+00 3.640e-01
55 1 3.444e-01 5.631e+00 2.130e+00
60 1 3.756e-01 7.361e+00 3.989e-01
62 1 2.209e+00 7.490e+00 2.093e+00
57 1 3.946e+00 5.607e+00 2.168e+00
64 1 3.883e+00 7.371e+00 3.482e-01
61 1 2.039e+00 9.261e+00 3.410e-01
63 1 3.230e-01 9.164e+00 2.101e+00
67 1 3.927e+00 9.129e+00 2.018e+00
19 1 3.432e-01 3.512e-01 3.950e+00
20 1 2.113e+00 2.184e+00 3.888e+00
21 1 3.810e+00 3.514e-01 3.922e+00
25 1 3.012e-01 3.859e+00 3.891e+00
26 1 3.861e+00 3.835e+00 3.894e+00
72 1 2.106e+00 5.662e+00 3.848e+00
75 1 3.710e-01 7.427e+00 3.844e+00
77 1 3.952e+00 7.416e+00 3.886e+00
76 1 2.131e+00 9.194e+00 3.966e+00
28 1 2.103e+00 3.849e-01 5.769e+00
29 1 2.963e-01 2.139e+00 5.599e+00
37 1 3.372e-01 3.854e-01 7.419e+00
38 1 2.054e+00 2.203e+00 7.436e+00
31 1 3.939e+00 2.230e+00 5.635e+00
41 1 4.030e+00 5.688e-01 7.358e+00
34 1 2.046e+00 3.966e+00 5.556e+00
48 1 2.810e-01 3.905e+00 7.429e+00
50 1 3.880e+00 3.911e+00 7.385e+00
81 1 3.387e-01 5.667e+00 5.657e+00
84 1 2.181e+00 7.362e+00 5.709e+00
90 1 2.157e+00 5.597e+00 7.438e+00
96 1 4.547e-01 7.368e+00 7.403e+00
82 1 3.854e+00 5.672e+00 5.615e+00
100 1 3.831e+00 7.513e+00 7.506e+00
85 1 4.697e-01 9.256e+00 5.794e+00
97 1 2.104e+00 9.182e+00 7.515e+00
87 1 3.894e+00 9.288e+00 5.691e+00
39 1 2.188e+00 3.996e-01 9.158e+00
40 1 1.618e-01 2.086e+00 9.202e+00
43 1 3.973e+00 2.147e+00 9.205e+00
49 1 2.218e+00 3.900e+00 9.208e+00
91 1 4.105e-01 5.589e+00 9.222e+00
98 1 2.164e+00 7.465e+00 9.330e+00
93 1 3.911e+00 5.571e+00 9.298e+00
99 1 3.367e-01 9.174e+00 9.211e+00
103 1 3.873e+00 9.351e+00 9.199e+00
6 1 5.730e+00 2.063e+00 3.451e-01
7 1 5.691e+00 3.952e-01 2.201e+00
9 1 7.404e+00 3.102e-01 3.613e-01
12 1 7.292e+00 2.271e+00 2.166e+00
10 1 9.004e+00 2.048e+00 4.802e-01
11 1 9.258e+00 3.155e-01 2.090e+00
16 1 5.573e+00 3.845e+00 2.123e+00
17 1 7.444e+00 3.872e+00 2.389e-01
18 1 9.226e+00 3.788e+00 2.174e+00
56 1 5.656e+00 5.567e+00 2.699e-01
59 1 7.433e+00 5.787e+00 1.990e+00
66 1 5.760e+00 7.462e+00 2.046e+00
68 1 7.445e+00 7.415e+00 3.328e-01
58 1 9.241e+00 5.640e+00 2.921e-01
70 1 9.204e+00 7.444e+00 2.135e+00
65 1 5.565e+00 9.335e+00 3.699e-01
71 1 7.435e+00 9.219e+00 2.151e+00
69 1 9.286e+00 9.173e+00 3.243e-01
22 1 5.612e+00 2.166e+00 4.013e+00
23 1 7.375e+00 3.119e-01 3.815e+00
24 1 9.123e+00 1.990e+00 3.786e+00
27 1 7.462e+00 3.926e+00 3.809e+00
73 1 5.671e+00 5.705e+00 3.788e+00
79 1 7.335e+00 7.432e+00 3.910e+00
74 1 9.150e+00 5.725e+00 3.915e+00
78 1 5.586e+00 9.170e+00 3.864e+00
80 1 9.314e+00 9.158e+00 3.861e+00
30 1 5.695e+00 3.399e-01 5.551e+00
33 1 7.436e+00 2.173e+00 5.706e+00
42 1 5.725e+00 2.233e+00 7.285e+00
44 1 7.407e+00 3.048e-01 7.465e+00
32 1 9.185e+00 3.236e-01 5.628e+00
45 1 9.190e+00 2.131e+00 7.345e+00
35 1 5.628e+00 3.980e+00 5.506e+00
52 1 7.530e+00 3.926e+00 7.445e+00
36 1 9.172e+00 4.020e+00 5.689e+00
83 1 7.409e+00 5.663e+00 5.698e+00
86 1 5.656e+00 7.358e+00 5.761e+00
92 1 5.597e+00 5.608e+00 7.556e+00
104 1 7.437e+00 7.436e+00 7.505e+00
88 1 9.248e+00 7.406e+00 5.694e+00
94 1 9.246e+00 5.750e+00 7.493e+00
89 1 7.376e+00 9.223e+00 5.616e+00
101 1 5.600e+00 9.254e+00 7.381e+00
105 1 9.220e+00 9.161e+00 7.446e+00
47 1 7.535e+00 2.032e+00 9.166e+00
46 1 9.143e+00 2.708e-01 9.257e+00
51 1 5.760e+00 3.727e+00 9.270e+00
53 1 9.143e+00 3.922e+00 9.213e+00
95 1 7.376e+00 5.701e+00 9.249e+00
102 1 5.679e+00 7.562e+00 9.221e+00
106 1 9.289e+00 7.416e+00 9.299e+00
107 1 7.471e+00 9.167e+00 9.229e+00
ITEM: TIMESTEP
700
ITEM: NUMBER OF ATOMS
107
ITEM: BOX BOUNDS pp pp pp
0.0000000000000000e+00 1.0619999999999999e+01
0.0000000000000000e+00 1.0619999999999999e+01
0.0000000000000000e+00 1.0619999999999999e+01
ITEM: ATOMS id type x y z
1 1 3.680e-01 3.342e-01 4.429e-01
2 1 2.125e+00 2.104e+00 3.047e-01
3 1 2.165e+00 5.342e-01 2.089e+00
4 1 3.102e-01 2.063e+00 2.182e+00
5 1 3.891e+00 3.446e-01 2.561e-01
8 1 3.883e+00 2.224e+00 2.030e+00
13 1 2.796e-01 3.865e+00 4.290e-01
14 1 2.113e+00 3.837e+00 2.091e+00
15 1 3.932e+00 3.960e+00 2.347e-01
54 1 2.120e+00 5.604e+00 2.732e-01
55 1 3.490e-01 5.680e+00 2.057e+00
60 1 3.707e-01 7.535e+00 2.914e-01
62 1 2.094e+00 7.422e+00 2.107e+00
57 1 3.832e+00 5.624e+00 2.084e+00
64 1 3.823e+00 7.512e+00 3.578e-01
61 1 2.208e+00 9.251e+00 2.956e-01
63 1 4.024e-01 9.211e+00 2.105e+00
67 1 3.825e+00 9.204e+00 2.222e+00
19 1 3.831e-01 3.103e-01 3.936e+00
20 1 2.146e+00 2.105e+00 3.995e+00
21 1 3.922e+00 3.256e-01 4.032e+00
25 1 3.585e-01 3.944e+00 3.827e+00
26 1 3.939e+00 3.911e+00 3.945e+00
72 1 2.100e+00 5.608e+00 3.914e+00
75 1 3.224e-01 7.434e+00 3.862e+00
77 1 3.776e+00 7.365e+00 3.921e+00
76 1 2.121e+00 9.259e+00 3.947e+00
28 1 2.051e+00 2.918e-01 5.674e+00
29 1 4.163e-01 2.065e+00 5.711e+00
37 1 3.305e-01 3.068e-01 7.427e+00
38 1 2.120e+00 2.124e+00 7.355e+00
31 1 3.910e+00 2.194e+00 5.727e+00
41 1 3.885e+00 2.026e-01 7.493e+00
34 1 2.144e+00 3.896e+00 5.627e+00
48 1 3.007e-01 3.981e+00 7.436e+00
50 1 3.823e+00 3.965e+00 7.482e+00
81 1 3.881e-01 5.639e+00 5.632e+00
84 1 2.074e+00 7.435e+00 5.700e+00
90 1 2.094e+00 5.710e+00 7.476e+00
96 1 2.963e-01 7.475e+00 7.496e+00
82 1 3.903e+00 5.641e+00 5.728e+00
100 1 3.966e+00 7.401e+00 7.324e+00
85 1 2.780e-01 9.104e+00 5.665e+00
97 1 2.162e+00 9.214e+00 7.433e+00
87 1 3.921e+00 9.129e+00 5.653e+00
39 1 2.111e+00 3.948e-01 9.229e+00
40 1 4.561e-01 2.228e+00 9.153e+00
43 1 3.811e+00 2.105e+00 9.155e+00
49 1 2.093e+00 3.979e+00 9.156e+00
91 1 3.122e-01 5.752e+00 9.231e+00
98 1 2.140e+00 7.433e+00 9.156e+00
93 1 3.810e+00 5.656e+00 9.214e+00
99 1 3.626e-01 9.292e+00 9.280e+00
103 1 4.012e+00 9.115e+00 9.198e+00