ITEM: TIMESTEP
0
ITEM: NUMBER OF ATOMS
107
ITEM: BOX BOUNDS pp pp pp
0.0000000000000000e+00 1.0619999999999999e+01
0.0000000000000000e+00 1.0619999999999999e+01
0.0000000000000000e+00 1.0619999999999999e+01
ITEM: ATOMS id type x y z
1 1 4.198e-01 4.037e-01 5.081e-01
2 1 2.337e+00 2.352e+00 3.846e-01
3 1 2.446e+00 4.490e-01 2.131e+00
4 1 4.780e-01 2.132e+00 2.195e+00
5 1 3.774e+00 1.361e-01 1.959e-01
7 1 5.299e+00 5.296e-01 2.147e+00
8 1 4.015e+00 2.167e+00 1.916e+00
13 1 1.391e-01 3.776e+00 2.619e-01
14 1 1.934e+00 3.922e+00 2.116e+00
15 1 4.033e+00 3.954e+00 2.571e-01
54 1 1.968e+00 5.488e+00 3.707e-01
55 1 1.379e-01 5.326e+00 2.080e+00
60 1 3.346e-01 7.489e+00 3.293e-01
62 1 1.584e+00 7.150e+00 2.090e+00
57 1 3.704e+00 5.395e+00 1.828e+00
64 1 3.866e+00 7.489e+00 7.510e-01
61 1 2.210e+00 9.138e+00 7.348e-01
63 1 3.246e-01 9.311e+00 1.969e+00
67 1 4.017e+00 9.302e+00 2.108e+00
19 1 6.697e-01 2.030e-01 3.870e+00
20 1 2.075e+00 2.197e+00 4.207e+00
21 1 3.838e+00 4.809e-01 3.913e+00
24 1 3.468e-01 3.880e+00 3.976e+00
25 1 3.571e+00 4.046e+00 3.797e+00
72 1 1.784e+00 5.637e+00 4.093e+00
75 1 2.544e-02 7.332e+00 3.805e+00
77 1 3.821e+00 7.509e+00 3.548e+00
76 1 2.140e+00 9.385e+00 3.610e+00
27 1 2.301e+00 3.693e-01 5.716e+00
28 1 4.725e-01 2.074e+00 5.648e+00
36 1 4.584e-01 3.282e-01 7.263e+00
37 1 2.306e+00 2.215e+00 7.276e+00
30 1 3.921e+00 2.340e+00 5.711e+00
40 1 3.896e+00 2.860e-01 7.385e+00
33 1 2.230e+00 4.101e+00 5.826e+00
48 1 5.334e-01 3.647e+00 7.520e+00
50 1 3.825e+00 4.167e+00 7.545e+00
81 1 5.149e-01 6.378e+00 5.643e+00
84 1 2.224e+00 7.707e+00 5.420e+00
90 1 2.036e+00 5.890e+00 7.353e+00
96 1 5.752e-01 7.715e+00 7.666e+00
82 1 3.818e+00 5.746e+00 5.659e+00
100 1 3.938e+00 7.413e+00 7.242e+00
85 1 4.807e-01 9.240e+00 5.547e+00
97 1 2.364e+00 9.200e+00 7.438e+00
87 1 3.839e+00 9.317e+00 5.384e+00
38 1 2.316e+00 8.424e-02 9.355e+00
39 1 7.753e-01 1.897e+00 8.961e+00
43 1 3.882e+00 2.151e+00 9.178e+00
49 1 2.234e+00 3.776e+00 9.162e+00
91 1 2.329e-01 5.776e+00 8.985e+00
98 1 1.992e+00 7.307e+00 9.127e+00
93 1 3.810e+00 5.709e+00 9.349e+00
99 1 5.241e-01 9.265e+00 9.486e+00
103 1 3.791e+00 8.756e+00 9.385e+00
6 1 5.650e+00 2.246e+00 1.666e-01
9 1 7.385e+00 4.837e-01 4.616e-01
12 1 7.307e+00 1.923e+00 2.067e+00
10 1 9.269e+00 2.108e+00 3.988e-01
11 1 9.264e+00 5.114e-01 2.286e+00
16 1 5.524e+00 3.861e+00 2.535e+00
17 1 7.408e+00 3.607e+00 5.274e-01
18 1 9.071e+00 3.808e+00 2.133e+00
56 1 5.840e+00 5.508e+00 3.380e-01
59 1 7.205e+00 5.549e+00 2.129e+00
66 1 5.820e+00 7.411e+00 2.102e+00
68 1 7.504e+00 7.267e+00 1.195e-01
58 1 9.107e+00 5.550e+00 3.327e-01
70 1 8.913e+00 7.292e+00 1.904e+00
65 1 5.806e+00 9.334e+00 4.474e-01
71 1 7.590e+00 9.014e+00 2.062e+00
69 1 9.289e+00 9.318e+00 3.669e-01
22 1 7.338e+00 2.278e-01 4.029e+00
23 1 9.168e+00 2.167e+00 3.934e+00
26 1 7.487e+00 3.539e+00 3.910e+00
73 1 5.523e+00 5.909e+00 3.945e+00
79 1 7.609e+00 7.312e+00 3.896e+00
74 1 9.301e+00 5.534e+00 4.240e+00
78 1 5.399e+00 9.105e+00 3.681e+00
80 1 9.197e+00 9.306e+00 3.926e+00
29 1 5.910e+00 1.883e-01 5.910e+00
32 1 7.205e+00 1.933e+00 5.656e+00
41 1 5.741e+00 2.015e+00 7.725e+00
31 1 9.248e+00 6.014e-01 5.470e+00
45 1 9.035e+00 2.327e+00 7.532e+00
34 1 5.516e+00 4.037e+00 5.919e+00
52 1 7.477e+00 4.038e+00 7.080e+00
35 1 9.637e+00 3.661e+00 5.715e+00
83 1 7.076e+00 5.851e+00 5.761e+00
86 1 5.589e+00 7.589e+00 5.579e+00
92 1 5.699e+00 6.034e+00 7.600e+00
104 1 7.476e+00 7.308e+00 7.427e+00
88 1 9.283e+00 7.639e+00 5.791e+00
94 1 9.097e+00 5.596e+00 7.219e+00
44 1 7.540e+00 1.052e+01 7.345e+00
89 1 7.453e+00 9.047e+00 5.736e+00
101 1 5.467e+00 9.085e+00 7.451e+00
105 1 9.266e+00 9.091e+00 7.597e+00
42 1 5.758e+00 1.543e-01 9.005e+00
47 1 7.563e+00 2.178e+00 9.236e+00
46 1 9.545e+00 4.188e-01 9.148e+00
51 1 5.659e+00 3.889e+00 8.838e+00
53 1 8.978e+00 3.929e+00 9.055e+00
95 1 7.451e+00 5.753e+00 9.046e+00
102 1 5.572e+00 7.511e+00 9.306e+00
106 1 9.293e+00 7.393e+00 9.377e+00
107 1 7.508e+00 9.383e+00 9.426e+00
ITEM: TIMESTEP
100
ITEM: NUMBER OF ATOMS
107
ITEM: BOX BOUNDS pp pp pp
0.0000000000000000e+00 1.0619999999999999e+01
0.0000000000000000e+00 1.0619999999999999e+01
0.0000000000000000e+00 1.0619999999999999e+01
ITEM: ATOMS id type x y z
1 1 3.644e-02 1.285e-01 3.665e-01
2 1 2.034e+00 2.244e+00 1.811e-01
3 1 1.935e+00 2.704e-01 1.934e+00
4 1 5.358e-01 2.349e+00 2.000e+00
5 1 3.614e+00 4.102e-01 5.710e-01
76 1 2.104e+00 9.349e+00 4.119e+00
8 1 3.911e+00 2.457e+00 1.965e+00
13 1 2.290e-01 4.120e+00 5.288e-01
14 1 2.155e+00 4.163e+00 1.923e+00
55 1 3.252e-01 5.472e+00 2.361e+00
54 1 2.329e+00 5.652e+00 1.614e-01
77 1 4.151e+00 7.477e+00 4.101e+00
75 1 3.337e-01 7.148e+00 4.209e+00
62 1 2.096e+00 7.425e+00 1.717e+00
57 1 4.068e+00 5.533e+00 2.191e+00
64 1 3.738e+00 7.717e+00 2.315e-01
61 1 1.819e+00 9.376e+00 3.368e-01
63 1 3.684e-01 9.203e+00 2.151e+00
67 1 3.872e+00 9.125e+00 2.255e+00
19 1 2.767e-01 2.237e-01 3.876e+00
20 1 2.377e+00 1.908e+00 3.686e+00
21 1 4.056e+00 2.256e-01 3.525e+00
24 1 4.185e-01 3.668e+00 3.936e+00
25 1 4.209e+00 3.863e+00 4.015e+00
72 1 2.144e+00 5.580e+00 3.826e+00
27 1 2.351e+00 2.610e-01 5.512e+00
28 1 5.912e-01 2.037e+00 5.681e+00
36 1 3.561e-01 3.842e-01 7.564e+00
37 1 1.955e+00 2.083e+00 7.522e+00
30 1 3.967e+00 2.076e+00 5.560e+00
40 1 3.825e+00 2.611e-01 7.427e+00
33 1 2.430e+00 3.467e+00 5.722e+00
48 1 3.293e-01 3.717e+00 7.385e+00
50 1 4.144e+00 3.506e+00 7.442e+00
81 1 7.836e-01 5.217e+00 5.505e+00
84 1 1.956e+00 7.209e+00 5.633e+00
90 1 2.306e+00 5.512e+00 7.591e+00
96 1 2.874e-01 7.201e+00 7.206e+00
82 1 3.620e+00 5.500e+00 5.742e+00
100 1 3.699e+00 7.483e+00 7.441e+00
85 1 2.567e-01 9.190e+00 5.722e+00
97 1 2.046e+00 9.232e+00 7.524e+00
87 1 3.946e+00 9.017e+00 5.701e+00
38 1 2.006e+00 4.093e-01 9.376e+00
39 1 1.477e-01 2.203e+00 9.393e+00
43 1 3.976e+00 2.142e+00 9.115e+00
49 1 1.772e+00 3.944e+00 9.052e+00
91 1 3.056e-01 5.913e+00 9.244e+00
98 1 1.817e+00 7.604e+00 9.055e+00
93 1 3.847e+00 5.813e+00 9.219e+00
99 1 1.527e-01 9.134e+00 9.341e+00
103 1 3.687e+00 9.331e+00 9.233e+00
15 1 3.769e+00 3.983e+00 1.060e+01
6 1 5.581e+00 2.099e+00 5.560e-01
9 1 7.401e+00 4.289e-01 4.655e-01
12 1 7.558e+00 2.393e+00 2.663e+00
10 1 8.850e+00 2.448e+00 3.767e-01
11 1 9.040e+00 5.355e-01 1.839e+00
16 1 5.818e+00 4.008e+00 1.962e+00
17 1 7.375e+00 4.111e+00 1.995e-01
18 1 9.228e+00 3.812e+00 2.373e+00
56 1 5.412e+00 5.763e+00 2.619e-01
59 1 7.866e+00 5.673e+00 2.354e+00
66 1 5.839e+00 7.354e+00 2.130e+00
80 1 9.118e+00 9.340e+00 3.715e+00
58 1 9.251e+00 5.705e+00 3.273e-01
70 1 9.253e+00 7.564e+00 2.386e+00
65 1 5.590e+00 9.199e+00 5.125e-01
71 1 7.597e+00 9.262e+00 2.130e+00
69 1 9.147e+00 9.196e+00 3.846e-01
22 1 7.625e+00 4.296e-01 3.916e+00
23 1 9.439e+00 2.001e+00 4.030e+00
26 1 7.453e+00 4.095e+00 4.066e+00
73 1 5.927e+00 5.673e+00 3.839e+00
79 1 7.566e+00 7.402e+00 3.795e+00
74 1 9.403e+00 5.786e+00 4.372e+00
78 1 5.730e+00 8.900e+00 3.776e+00
7 1 5.778e+00 2.193e-01 2.116e+00
68 1 7.761e+00 7.468e+00 6.081e-01
60 1 1.049e+01 7.473e+00 1.831e-01
29 1 5.802e+00 2.492e-01 5.369e+00
32 1 7.596e+00 2.025e+00 5.450e+00
41 1 5.718e+00 1.982e+00 7.333e+00
31 1 9.117e+00 2.855e-01 5.730e+00
45 1 9.424e+00 2.035e+00 7.226e+00
34 1 5.695e+00 3.792e+00 5.626e+00
52 1 7.461e+00 3.599e+00 7.541e+00
35 1 9.226e+00 3.956e+00 5.539e+00
83 1 7.582e+00 5.826e+00 5.934e+00
86 1 5.672e+00 7.193e+00 5.697e+00
92 1 5.583e+00 5.700e+00 7.210e+00
104 1 7.376e+00 7.633e+00 7.254e+00
88 1 9.047e+00 7.767e+00 5.693e+00
94 1 9.178e+00 5.439e+00 7.486e+00
44 1 7.392e+00 2.698e-01 7.590e+00
89 1 7.179e+00 9.330e+00 5.709e+00
101 1 5.636e+00 9.421e+00 7.589e+00
105 1 9.069e+00 9.289e+00 7.543e+00
42 1 5.920e+00 4.763e-01 9.324e+00
47 1 7.387e+00 2.085e+00 9.291e+00
46 1 9.310e+00 4.242e-01 9.272e+00
51 1 5.535e+00 3.876e+00 9.258e+00
53 1 9.254e+00 3.845e+00 9.066e+00
95 1 7.394e+00 5.790e+00 8.951e+00
102 1 5.689e+00 7.572e+00 8.986e+00
106 1 9.080e+00 7.484e+00 8.748e+00
107 1 7.333e+00 9.278e+00 9.499e+00
ITEM: TIMESTEP
200
ITEM: NUMBER OF ATOMS
107
ITEM: BOX BOUNDS pp pp pp
0.0000000000000000e+00 1.0619999999999999e+01
0.0000000000000000e+00 1.0619999999999999e+01
0.0000000000000000e+00 1.0619999999999999e+01
ITEM: ATOMS id type x y z
1 1 2.175e-01 1.056e+01 1.981e-01
2 1 2.088e+00 1.875e+00 6.868e-01
3 1 1.990e+00 1.337e-01 1.886e+00
4 1 2.575e-01 2.287e+00 2.328e+00
5 1 3.898e+00 3.596e-01 6.476e-01
76 1 2.451e+00 8.990e+00 3.884e+00
8 1 4.167e+00 1.923e+00 2.473e+00
13 1 5.953e-01 3.830e+00 4.593e-01
14 1 2.257e+00 3.922e+00 2.018e+00
55 1 5.060e-01 5.432e+00 1.964e+00
54 1 2.017e+00 5.757e+00 1.743e-01
77 1 4.012e+00 7.346e+00 3.724e+00
75 1 5.725e-01 7.383e+00 4.118e+00
62 1 2.273e+00 7.259e+00 2.118e+00
57 1 3.792e+00 5.694e+00 1.743e+00
30 1 4.004e+00 2.339e+00 5.205e+00
61 1 2.316e+00 9.066e+00 2.589e-01
63 1 3.842e-01 9.230e+00 2.332e+00
67 1 3.791e+00 9.186e+00 1.961e+00
19 1 6.473e-01 4.919e-01 3.980e+00
20 1 2.187e+00 2.116e+00 3.928e+00
21 1 3.679e+00 2.087e-01 4.014e+00
24 1 2.789e-01 4.353e+00 3.801e+00
25 1 4.092e+00 3.946e+00 3.515e+00
72 1 2.382e+00 5.473e+00 3.912e+00
15 1 4.164e+00 3.722e+00 5.369e-01
60 1 4.951e-01 7.504e+00 3.076e-01
78 1 5.252e+00 9.183e+00 3.947e+00
64 1 3.726e+00 7.198e+00 7.091e-02
27 1 2.150e+00 5.534e-01 5.731e+00
28 1 1.865e-01 2.292e+00 5.747e+00
36 1 2.860e-01 5.505e-01 7.519e+00
37 1 2.026e+00 2.128e+00 7.656e+00
103 1 3.919e+00 9.343e+00 9.062e+00
40 1 3.924e+00 6.208e-01 7.361e+00
33 1 2.103e+00 3.805e+00 5.556e+00
48 1 4.837e-01 3.749e+00 7.674e+00
50 1 3.668e+00 3.780e+00 7.337e+00
81 1 1.474e-01 5.822e+00 5.492e+00
84 1 2.664e+00 7.631e+00 5.642e+00
90 1 2.074e+00 5.661e+00 7.249e+00
96 1 1.417e-01 7.473e+00 7.583e+00
82 1 3.998e+00 5.889e+00 5.595e+00
100 1 4.040e+00 7.438e+00 7.530e+00
85 1 5.043e-01 9.156e+00 5.645e+00
97 1 2.329e+00 9.261e+00 7.442e+00
87 1 3.870e+00 9.623e+00 5.717e+00
38 1 1.990e+00 6.324e-02 9.135e+00
39 1 3.542e-01 2.101e+00 9.254e+00
43 1 3.762e+00 2.002e+00 9.541e+00
49 1 2.437e+00 3.746e+00 9.699e+00
91 1 4.049e-01 5.493e+00 9.119e+00
98 1 2.099e+00 7.480e+00 8.966e+00
93 1 3.726e+00 5.635e+00 9.060e+00
99 1 3.245e-01 9.185e+00 8.876e+00
6 1 5.810e+00 2.108e+00 1.448e-01
9 1 7.570e+00 2.000e-01 2.534e-01
12 1 7.381e+00 2.233e+00 2.390e+00
10 1 8.978e+00 2.400e+00 4.424e-01
11 1 9.377e+00 4.594e-02 2.575e+00
16 1 5.782e+00 4.106e+00 2.207e+00
17 1 7.367e+00 4.107e+00 5.062e-01
18 1 9.173e+00 4.148e+00 1.991e+00
56 1 5.418e+00 5.392e+00 1.453e-01
59 1 7.345e+00 6.047e+00 2.338e+00
66 1 5.535e+00 7.337e+00 2.096e+00
80 1 9.273e+00 9.038e+00 4.138e+00
58 1 9.372e+00 5.739e+00 5.232e-01
70 1 9.182e+00 7.418e+00 2.110e+00
65 1 5.646e+00 8.985e+00 1.696e-01
71 1 7.145e+00 9.009e+00 2.187e+00
69 1 9.246e+00 9.087e+00 6.103e-01
22 1 7.148e+00 8.205e-02 3.945e+00
23 1 9.128e+00 2.315e+00 3.736e+00
26 1 7.330e+00 3.864e+00 3.746e+00
73 1 5.615e+00 5.675e+00 3.919e+00
79 1 7.264e+00 7.524e+00 3.969e+00
74 1 9.148e+00 5.694e+00 3.871e+00
68 1 7.328e+00 7.460e+00 4.022e-01
7 1 5.751e+00 3.966e-01 1.947e+00
29 1 5.822e+00 3.499e-01 5.780e+00
32 1 7.422e+00 2.239e+00 5.525e+00
41 1 5.639e+00 2.345e+00 7.548e+00
31 1 9.117e+00 4.621e-01 5.621e+00
45 1 9.140e+00 2.351e+00 7.467e+00
34 1 5.363e+00 3.877e+00 5.676e+00
52 1 7.506e+00 4.009e+00 7.530e+00
35 1 9.188e+00 3.911e+00 5.619e+00
83 1 7.335e+00 5.415e+00 5.558e+00
86 1 5.364e+00 7.733e+00 5.710e+00
92 1 5.650e+00 5.735e+00 7.423e+00
104 1 7.401e+00 7.349e+00 7.377e+00
88 1 9.120e+00 7.119e+00 5.628e+00
94 1 9.147e+00 5.653e+00 7.419e+00
44 1 7.432e+00 5.390e-01 7.291e+00
89 1 7.460e+00 9.330e+00 5.728e+00
101 1 5.790e+00 9.347e+00 7.436e+00
105 1 9.002e+00 9.074e+00 7.274e+00
42 1 5.611e+00 2.460e-01 9.327e+00
47 1 7.481e+00 2.165e+00 9.094e+00
46 1 9.064e+00 4.978e-01 9.119e+00
51 1 5.534e+00 3.724e+00 9.158e+00
53 1 9.342e+00 3.988e+00 9.311e+00
95 1 7.614e+00 5.610e+00 9.326e+00
102 1 5.762e+00 7.379e+00 9.151e+00
106 1 9.401e+00 7.250e+00 9.437e+00
107 1 7.475e+00 9.129e+00 9.026e+00
ITEM: TIMESTEP
300
ITEM: NUMBER OF ATOMS
107
ITEM: BOX BOUNDS pp pp pp
0.0000000000000000e+00 1.0619999999999999e+01
0.0000000000000000e+00 1.0619999999999999e+01
0.0000000000000000e+00 1.0619999999999999e+01
ITEM: ATOMS id type x y z
1 1 3.599e-01 2.536e-01 8.151e-01
2 1 2.037e+00 2.133e+00 4.970e-01
3 1 2.201e+00 5.420e-01 2.383e+00
4 1 1.421e-01 1.900e+00 2.152e+00
5 1 3.990e+00 2.922e-01 1.755e-01
76 1 2.069e+00 9.319e+00 4.178e+00
8 1 3.802e+00 1.926e+00 2.212e+00
60 1 3.098e-01 7.455e+00 3.890e-01
14 1 1.933e+00 3.934e+00 2.291e+00
55 1 2.410e-01 5.814e+00 2.116e+00
54 1 2.149e+00 5.527e+00 7.073e-01
77 1 3.799e+00 7.796e+00 3.856e+00
75 1 2.538e-02 7.429e+00 4.168e+00
62 1 2.180e+00 7.642e+00 2.051e+00
57 1 3.987e+00 5.508e+00 2.040e+00
64 1 3.904e+00 7.347e+00 3.745e-01
61 1 2.183e+00 9.479e+00 3.232e-01
63 1 2.073e-01 9.201e+00 2.084e+00
67 1 3.689e+00 9.271e+00 2.074e+00
19 1 1.901e-01 2.722e-01 3.636e+00
20 1 2.274e+00 2.011e+00 4.051e+00
21 1 4.045e+00 2.690e-01 4.088e+00
24 1 2.399e-01 3.947e+00 4.106e+00
25 1 3.787e+00 4.012e+00 4.270e+00
72 1 2.018e+00 5.756e+00 3.648e+00
27 1 2.270e+00 3.529e-01 5.680e+00
28 1 3.702e-01 1.785e+00 5.492e+00
36 1 4.356e-01 4.346e-01 7.376e+00
37 1 1.995e+00 2.175e+00 7.410e+00
103 1 4.109e+00 9.193e+00 9.240e+00
40 1 4.035e+00 1.058e+01 7.454e+00
33 1 2.053e+00 3.986e+00 5.768e+00
48 1 1.762e-01 3.731e+00 7.530e+00
50 1 3.783e+00 4.029e+00 7.384e+00
81 1 3.306e-01 5.615e+00 5.683e+00
84 1 2.003e+00 7.385e+00 5.446e+00
90 1 2.260e+00 5.869e+00 7.868e+00
96 1 4.222e-01 7.462e+00 7.502e+00
82 1 3.878e+00 5.966e+00 5.600e+00
100 1 3.822e+00 7.538e+00 7.339e+00
85 1 2.601e-01 9.314e+00 5.412e+00
97 1 2.202e+00 9.409e+00 7.662e+00
87 1 3.927e+00 9.172e+00 5.596e+00
38 1 2.177e+00 6.852e-01 9.114e+00
39 1 3.754e-01 1.987e+00 9.072e+00
43 1 4.381e+00 2.311e+00 8.795e+00
49 1 1.997e+00 3.822e+00 9.007e+00
91 1 3.662e-01 5.800e+00 9.348e+00
98 1 2.310e+00 7.581e+00 9.467e+00
93 1 3.827e+00 5.668e+00 9.562e+00
99 1 4.563e-01 9.158e+00 9.224e+00
30 1 3.794e+00 2.209e+00 5.940e+00
15 1 3.710e+00 3.466e+00 1.058e+01
6 1 5.748e+00 1.907e+00 2.383e-01
9 1 7.593e+00 1.060e+01 9.266e-02
12 1 7.490e+00 1.909e+00 1.917e+00
10 1 9.232e+00 1.792e+00 4.135e-01
11 1 9.221e+00 2.297e-01 2.160e+00
16 1 5.587e+00 3.609e+00 2.101e+00
17 1 7.463e+00 3.683e+00 1.589e-01
18 1 9.041e+00 3.622e+00 2.228e+00
56 1 5.641e+00 5.914e+00 1.894e-01
59 1 7.423e+00 5.139e+00 1.884e+00
66 1 5.800e+00 7.637e+00 2.136e+00
80 1 9.141e+00 9.296e+00 3.788e+00
58 1 9.463e+00 5.683e+00 3.903e-01
70 1 9.068e+00 7.180e+00 1.999e+00
65 1 5.901e+00 9.165e+00 2.211e-01
71 1 7.641e+00 9.168e+00 2.110e+00
69 1 9.427e+00 9.179e+00 3.401e-01
22 1 7.303e+00 8.023e-01 3.873e+00
23 1 9.096e+00 2.012e+00 3.847e+00
26 1 7.315e+00 4.061e+00 3.846e+00
73 1 5.421e+00 5.732e+00 3.705e+00
79 1 7.358e+00 7.229e+00 3.681e+00
74 1 8.957e+00 5.631e+00 3.820e+00
68 1 7.791e+00 7.299e+00 2.058e-01
7 1 5.607e+00 2.694e-01 2.198e+00
78 1 5.897e+00 9.348e+00 4.081e+00
13 1 1.043e+01 3.698e+00 4.567e-01
29 1 5.821e+00 4.542e-01 5.588e+00
32 1 7.528e+00 2.320e+00 5.692e+00
41 1 5.914e+00 2.328e+00 7.344e+00
106 1 9.372e+00 7.531e+00 8.957e+00
45 1 9.177e+00 2.154e+00 7.376e+00
34 1 5.546e+00 3.846e+00 5.606e+00
52 1 7.400e+00 4.124e+00 7.481e+00
35 1 8.941e+00 4.463e+00 5.762e+00
83 1 7.287e+00 5.897e+00 5.753e+00
86 1 5.488e+00 7.477e+00 5.842e+00
92 1 5.517e+00 5.647e+00 7.600e+00
104 1 7.545e+00 7.593e+00 7.423e+00
88 1 9.365e+00 7.320e+00 5.884e+00
94 1 9.335e+00 5.633e+00 7.559e+00
44 1 7.869e+00 3.433e-01 7.250e+00
89 1 7.340e+00 9.316e+00 5.757e+00
101 1 5.745e+00 9.179e+00 7.564e+00
105 1 9.302e+00 9.206e+00 7.246e+00
42 1 5.827e+00 3.288e-01 9.131e+00
47 1 7.291e+00 2.093e+00 9.041e+00
46 1 9.410e+00 1.973e-01 9.083e+00
107 1 7.406e+00 8.967e+00 9.241e+00
53 1 9.190e+00 3.821e+00 9.169e+00
95 1 7.530e+00 5.599e+00 9.083e+00
102 1 5.603e+00 7.424e+00 9.183e+00
51 1 5.801e+00 4.102e+00 9.395e+00
31 1 9.121e+00 2.361e-01 5.601e+00
ITEM: TIMESTEP
400
ITEM: NUMBER OF ATOMS
107
ITEM: BOX BOUNDS pp pp pp
0.0000000000000000e+00 1.0619999999999999e+01
0.0000000000000000e+00 1.0619999999999999e+01
0.0000000000000000e+00 1.0619999999999999e+01
ITEM: ATOMS id type x y z
15 1 3.975e+00 4.026e+00 2.480e-01
13 1 5.135e-01 3.907e+00 4.356e-01
3 1 2.089e+00 6.149e-01 1.900e+00
4 1 3.264e-01 1.871e+00 2.027e+00
5 1 3.855e+00 4.221e-01 4.334e-01
76 1 2.416e+00 8.972e+00 3.779e+00
8 1 4.160e+00 2.201e+00 1.946e+00
60 1 4.293e-01 7.452e+00 6.312e-01
14 1 2.239e+00 3.591e+00 2.056e+00
55 1 4.793e-01 5.453e+00 2.113e+00
54 1 2.299e+00 5.680e+00 2.379e-01
77 1 3.922e+00 7.034e+00 3.853e+00
75 1 8.555e-02 7.301e+00 3.752e+00
62 1 2.122e+00 6.934e+00 2.296e+00
57 1 3.805e+00 5.366e+00 2.159e+00
64 1 3.780e+00 7.434e+00 8.438e-01
61 1 2.157e+00 9.080e+00 5.865e-01
63 1 1.379e-01 9.676e+00 1.888e+00
67 1 4.318e+00 9.375e+00 2.298e+00
19 1 3.460e-01 3.469e-01 4.202e+00
20 1 2.313e+00 2.242e+00 4.294e+00
21 1 3.793e+00 5.729e-01 3.810e+00
24 1 6.661e-01 3.790e+00 4.026e+00
25 1 4.224e+00 3.574e+00 3.808e+00
72 1 2.323e+00 5.474e+00 3.977e+00
1 1 2.308e-01 6.617e-01 8.457e-02
27 1 2.030e+00 2.342e-01 5.631e+00
28 1 5.157e-01 2.233e+00 5.999e+00
36 1 2.671e-01 3.862e-01 7.541e+00
37 1 2.332e+00 2.193e+00 7.309e+00
103 1 3.704e+00 9.190e+00 9.189e+00
40 1 3.791e+00 2.878e-01 7.329e+00
33 1 2.363e+00 3.965e+00 5.711e+00
48 1 5.489e-01 4.235e+00 7.475e+00
50 1 3.937e+00 3.819e+00 7.457e+00
81 1 5.679e-01 5.873e+00 5.639e+00
84 1 2.075e+00 7.626e+00 5.548e+00
90 1 2.117e+00 5.746e+00 7.254e+00
96 1 1.534e-01 7.520e+00 7.687e+00
82 1 3.998e+00 5.589e+00 5.705e+00
100 1 3.712e+00 7.491e+00 7.530e+00
85 1 2.810e-01 9.136e+00 5.742e+00
97 1 2.058e+00 9.277e+00 7.501e+00
87 1 4.028e+00 8.858e+00 5.431e+00
38 1 1.960e+00 2.697e-01 9.038e+00
39 1 4.753e-01 2.465e+00 8.812e+00
43 1 3.840e+00 2.191e+00 9.216e+00
49 1 2.310e+00 3.820e+00 9.112e+00
91 1 1.687e-01 5.639e+00 9.247e+00
98 1 1.973e+00 7.420e+00 9.372e+00
93 1 3.709e+00 5.916e+00 9.155e+00
99 1 3.922e-01 9.261e+00 9.415e+00
30 1 4.343e+00 2.159e+00 5.463e+00
2 1 2.238e+00 1.952e+00 1.061e+01
78 1 5.889e+00 9.194e+00 3.763e+00
9 1 7.100e+00 5.584e-01 2.975e-01
12 1 7.381e+00 2.104e+00 2.164e+00
10 1 9.426e+00 2.396e+00 3.109e-01
11 1 9.033e+00 6.244e-01 2.002e+00
16 1 5.959e+00 4.012e+00 2.148e+00
17 1 7.298e+00 3.699e+00 3.113e-01
18 1 8.994e+00 3.943e+00 2.056e+00
56 1 5.736e+00 5.709e+00 3.767e-01
59 1 7.694e+00 5.869e+00 2.448e+00
66 1 5.743e+00 7.139e+00 2.372e+00
80 1 9.240e+00 9.257e+00 3.465e+00
58 1 8.898e+00 5.630e+00 4.023e-01
70 1 9.148e+00 7.583e+00 1.843e+00
65 1 5.328e+00 9.422e+00 3.045e-01
71 1 7.104e+00 9.570e+00 1.959e+00
69 1 9.100e+00 9.521e+00 4.088e-01
22 1 7.521e+00 1.888e-01 3.930e+00
23 1 9.131e+00 1.951e+00 3.704e+00
26 1 7.128e+00 3.493e+00 3.942e+00
73 1 5.802e+00 5.393e+00 3.940e+00
79 1 7.690e+00 7.422e+00 4.148e+00
74 1 9.338e+00 5.506e+00 4.015e+00
68 1 6.992e+00 7.804e+00 5.088e-01
7 1 5.717e+00 6.661e-01 2.297e+00
6 1 5.651e+00 2.274e+00 1.467e-01
29 1 5.629e+00 1.057e+01 5.485e+00
32 1 7.047e+00 1.720e+00 5.832e+00
41 1 5.474e+00 2.228e+00 7.730e+00
106 1 9.154e+00 7.559e+00 9.571e+00
45 1 9.326e+00 2.011e+00 7.415e+00
34 1 5.574e+00 3.992e+00 5.773e+00
52 1 7.567e+00 3.817e+00 7.287e+00
35 1 9.188e+00 3.763e+00 5.671e+00
83 1 7.661e+00 5.225e+00 5.523e+00
86 1 5.837e+00 7.235e+00 5.359e+00
92 1 5.575e+00 5.895e+00 7.120e+00
104 1 7.475e+00 7.373e+00 7.267e+00
88 1 9.294e+00 7.209e+00 5.615e+00
94 1 9.191e+00 5.883e+00 7.565e+00
44 1 7.451e+00 1.468e-01 7.506e+00
89 1 7.606e+00 9.123e+00 5.833e+00
101 1 5.562e+00 8.876e+00 7.323e+00
105 1 9.220e+00 9.016e+00 7.617e+00
42 1 5.417e+00 3.570e-01 9.180e+00
47 1 7.345e+00 2.284e+00 9.097e+00
46 1 9.131e+00 4.156e-01 9.264e+00
107 1 7.395e+00 9.246e+00 9.507e+00
53 1 9.178e+00 4.017e+00 8.943e+00
95 1 7.030e+00 5.785e+00 9.396e+00
31 1 9.051e+00 2.110e-01 5.673e+00
51 1 5.692e+00 4.101e+00 8.887e+00
102 1 5.593e+00 7.700e+00 9.420e+00
ITEM: TIMESTEP
500
ITEM: NUMBER OF ATOMS
107
ITEM: BOX BOUNDS pp pp pp
0.0000000000000000e+00 1.0619999999999999e+01
0.0000000000000000e+00 1.0619999999999999e+01
0.0000000000000000e+00 1.0619999999999999e+01
ITEM: ATOMS id type x y z
15 1 3.876e+00 3.932e+00 5.088e-01
13 1 2.813e-01 3.917e+00 2.152e-01
3 1 2.434e+00 3.219e-01 1.860e+00
4 1 3.672e-01 2.389e+00 1.807e+00
2 1 2.226e+00 2.425e+00 4.528e-01
76 1 1.772e+00 9.406e+00 4.085e+00
8 1 3.903e+00 2.347e+00 2.330e+00
60 1 3.542e-01 7.537e+00 4.365e-01
14 1 2.084e+00 4.011e+00 2.259e+00
55 1 2.778e-01 5.537e+00 2.208e+00
54 1 2.104e+00 5.773e+00 5.077e-01
77 1 3.641e+00 7.373e+00 3.761e+00
75 1 5.696e-01 7.371e+00 3.807e+00
62 1 2.154e+00 7.337e+00 2.018e+00
57 1 3.990e+00 5.604e+00 2.294e+00
64 1 3.883e+00 7.370e+00 2.894e-01
5 1 3.967e+00 3.388e-01 1.575e-01
63 1 4.246e-01 9.198e+00 1.950e+00
67 1 3.839e+00 9.067e+00 2.045e+00
19 1 4.639e-01 5.689e-01 3.634e+00
20 1 2.128e+00 2.102e+00 3.793e+00
21 1 3.954e+00 4.449e-02 3.909e+00
24 1 4.362e-01 3.661e+00 4.049e+00
25 1 3.934e+00 3.739e+00 4.285e+00
72 1 2.092e+00 5.511e+00 3.787e+00
1 1 3.220e-01 6.317e-01 1.391e-01
27 1 2.017e+00 3.477e-01 5.721e+00
28 1 5.573e-01 1.794e+00 5.838e+00
36 1 4.200e-01 1.767e-01 7.610e+00
37 1 2.423e+00 2.028e+00 7.351e+00
103 1 4.087e+00 8.943e+00 9.090e+00
40 1 3.702e+00 1.049e+01 7.530e+00
33 1 1.875e+00 3.716e+00 5.689e+00
48 1 3.484e-01 3.943e+00 7.670e+00
50 1 4.026e+00 4.061e+00 7.503e+00
81 1 4.849e-01 5.488e+00 5.441e+00
84 1 2.000e+00 7.206e+00 5.524e+00
90 1 2.049e+00 5.663e+00 7.303e+00
96 1 2.271e-01 7.062e+00 7.229e+00
82 1 3.877e+00 5.775e+00 5.527e+00
100 1 3.902e+00 7.512e+00 7.247e+00
85 1 3.200e-01 9.214e+00 5.652e+00
97 1 1.892e+00 8.909e+00 7.199e+00
87 1 3.483e+00 8.996e+00 5.521e+00
38 1 2.045e+00 2.020e-01 9.031e+00
39 1 3.455e-01 2.195e+00 9.038e+00
43 1 3.716e+00 2.215e+00 9.330e+00
49 1 2.069e+00 4.109e+00 9.301e+00
91 1 3.098e-01 5.869e+00 9.170e+00
98 1 2.075e+00 7.439e+00 9.170e+00
93 1 4.010e+00 6.112e+00 8.923e+00
99 1 2.555e-01 9.210e+00 9.263e+00
30 1 3.502e+00 1.776e+00 5.390e+00
61 1 2.128e+00 9.121e+00 1.062e+01
78 1 5.385e+00 9.061e+00 3.829e+00
9 1 7.199e+00 2.600e-01 3.128e-01
12 1 7.330e+00 2.091e+00 2.395e+00
10 1 8.659e+00 2.302e+00 2.809e-01
11 1 9.384e+00 6.323e-01 1.981e+00
16 1 5.866e+00 3.958e+00 2.234e+00
6 1 5.505e+00 2.050e+00 5.890e-01
18 1 9.187e+00 3.770e+00 2.297e+00
56 1 5.535e+00 5.627e+00 5.134e-01
59 1 7.363e+00 5.651e+00 2.409e+00
66 1 5.782e+00 7.568e+00 2.042e+00
80 1 9.333e+00 9.508e+00 4.038e+00
58 1 9.222e+00 5.648e+00 4.357e-01
70 1 9.575e+00 7.550e+00 2.238e+00
65 1 5.914e+00 9.005e+00 4.562e-01
71 1 7.589e+00 9.307e+00 2.153e+00
69 1 8.886e+00 9.171e+00 2.683e-01
22 1 7.547e+00 4.023e-01 3.707e+00
23 1 9.427e+00 1.975e+00 4.247e+00
26 1 7.723e+00 4.002e+00 4.226e+00
73 1 5.732e+00 5.630e+00 4.078e+00
79 1 7.734e+00 7.498e+00 3.741e+00
74 1 9.166e+00 5.735e+00 4.067e+00
68 1 7.489e+00 6.947e+00 3.422e-01
7 1 5.612e+00 1.050e-01 2.196e+00
17 1 7.596e+00 4.267e+00 1.888e-01
102 1 5.988e+00 7.353e+00 9.326e+00
32 1 7.505e+00 1.880e+00 5.486e+00
41 1 5.543e+00 2.088e+00 7.500e+00
106 1 9.269e+00 7.558e+00 9.167e+00
45 1 9.074e+00 2.120e+00 7.466e+00
34 1 5.759e+00 4.171e+00 5.795e+00
52 1 7.432e+00 3.962e+00 7.779e+00
35 1 9.411e+00 3.620e+00 5.883e+00
83 1 7.593e+00 6.223e+00 5.647e+00
86 1 5.774e+00 7.589e+00 5.814e+00
92 1 5.938e+00 5.664e+00 7.491e+00
104 1 7.498e+00 7.718e+00 7.432e+00
88 1 9.242e+00 7.660e+00 5.640e+00
94 1 9.306e+00 5.485e+00 6.994e+00
44 1 7.273e+00 3.926e-01 7.386e+00
89 1 7.429e+00 9.370e+00 5.484e+00
101 1 5.738e+00 9.239e+00 7.282e+00
105 1 9.107e+00 9.190e+00 7.565e+00
42 1 5.402e+00 3.220e-01 9.286e+00
47 1 6.931e+00 2.106e+00 9.389e+00
46 1 9.173e+00 5.383e-01 9.272e+00
107 1 7.389e+00 9.152e+00 9.185e+00
53 1 9.208e+00 3.985e+00 9.171e+00
95 1 7.689e+00 5.736e+00 9.004e+00
31 1 9.260e+00 4.028e-01 5.757e+00
51 1 5.644e+00 3.779e+00 9.260e+00
29 1 5.659e+00 3.782e-01 5.735e+00
ITEM: TIMESTEP
600
ITEM: NUMBER OF ATOMS
107
ITEM: BOX BOUNDS pp pp pp
0.0000000000000000e+00 1.0619999999999999e+01
0.0000000000000000e+00 1.0619999999999999e+01
0.0000000000000000e+00 1.0619999999999999e+01
ITEM: ATOMS id type x y z
15 1 3.939e+00 3.758e+00 5.765e-01
13 1 4.470e-01 3.767e+00 4.704e-01
3 1 1.995e+00 3.029e-01 2.072e+00
4 1 4.099e-01 2.063e+00 2.373e+00
2 1 2.262e+00 2.018e+00 5.415e-01
76 1 2.217e+00 9.123e+00 3.686e+00
8 1 4.057e+00 1.996e+00 2.150e+00
60 1 4.472e-01 7.439e+00 2.907e-01
14 1 1.994e+00 3.867e+00 2.017e+00
55 1 5.090e-01 5.776e+00 2.253e+00
54 1 1.874e+00 5.696e+00 3.482e-01
77 1 4.030e+00 7.635e+00 4.015e+00
75 1 3.991e-01 7.620e+00 3.997e+00
62 1 2.031e+00 7.283e+00 1.952e+00
57 1 3.629e+00 5.854e+00 1.942e+00
64 1 3.811e+00 7.362e+00 9.980e-02
5 1 4.033e+00 2.308e-01 1.941e-01
63 1 4.639e-01 9.008e+00 2.096e+00
67 1 4.021e+00 8.867e+00 2.084e+00
19 1 3.291e-01 3.551e-01 4.278e+00
20 1 2.030e+00 2.247e+00 3.972e+00
21 1 3.646e+00 2.982e-01 3.849e+00
24 1 2.462e-01 4.013e+00 3.873e+00
25 1 3.668e+00 4.113e+00 3.648e+00
72 1 2.007e+00 6.032e+00 4.187e+00
1 1 5.046e-01 4.149e-02 2.767e-01
61 1 2.237e+00 8.963e+00 3.563e-01
27 1 2.455e+00 2.668e-01 5.560e+00
28 1 1.993e-01 2.308e+00 5.328e+00
36 1 3.336e-01 5.788e-01 7.536e+00
37 1 2.157e+00 1.981e+00 7.455e+00
103 1 3.833e+00 9.264e+00 9.337e+00
40 1 4.219e+00 6.117e-01 7.358e+00
33 1 2.206e+00 3.859e+00 5.505e+00
48 1 4.841e-02 3.746e+00 7.226e+00
50 1 3.755e+00 3.848e+00 7.316e+00
81 1 4.459e-01 5.718e+00 6.054e+00
84 1 2.273e+00 7.779e+00 5.831e+00
90 1 2.137e+00 5.500e+00 7.542e+00
96 1 3.676e-01 7.697e+00 7.428e+00
82 1 3.847e+00 5.578e+00 5.645e+00
100 1 3.970e+00 7.342e+00 7.691e+00
85 1 3.284e-01 9.360e+00 5.625e+00
97 1 2.479e+00 9.698e+00 7.642e+00
87 1 4.388e+00 9.436e+00 5.795e+00
38 1 2.285e+00 4.695e-01 9.342e+00
39 1 4.954e-01 2.055e+00 9.699e+00
43 1 4.270e+00 2.129e+00 9.291e+00
49 1 2.137e+00 3.516e+00 9.315e+00
91 1 4.168e-01 5.250e+00 9.135e+00
98 1 2.064e+00 7.282e+00 9.218e+00
93 1 3.730e+00 5.375e+00 9.489e+00
99 1 4.170e-01 9.128e+00 9.078e+00
30 1 3.761e+00 2.224e+00 5.553e+00
78 1 5.522e+00 9.535e+00 3.746e+00
9 1 7.427e+00 2.991e-01 2.177e-01
12 1 7.008e+00 2.250e+00 2.431e+00
10 1 9.380e+00 1.965e+00 5.140e-01
11 1 8.895e+00 5.064e-02 2.192e+00
16 1 5.470e+00 4.016e+00 2.236e+00
6 1 5.722e+00 1.905e+00 3.881e-01
18 1 9.220e+00 3.930e+00 1.891e+00
56 1 5.882e+00 5.656e+00 3.139e-01
59 1 7.636e+00 5.794e+00 1.887e+00
66 1 5.643e+00 7.417e+00 1.816e+00
80 1 9.234e+00 9.181e+00 3.927e+00
58 1 9.332e+00 5.811e+00 1.773e-01
70 1 9.380e+00 7.553e+00 2.114e+00
65 1 5.749e+00 9.314e+00 3.392e-01
71 1 7.253e+00 9.016e+00 2.090e+00
69 1 9.322e+00 9.058e+00 2.094e-01
22 1 7.584e+00 4.565e-01 3.922e+00
23 1 9.142e+00 2.045e+00 3.609e+00
26 1 7.301e+00 4.225e+00 3.601e+00
73 1 5.444e+00 5.775e+00 3.748e+00
79 1 7.481e+00 7.475e+00 4.085e+00
74 1 9.073e+00 5.681e+00 3.704e+00
68 1 7.516e+00 7.639e+00 1.231e-01
7 1 6.010e+00 4.529e-01 2.030e+00
17 1 7.379e+00 3.707e+00 5.665e-01
34 1 5.379e+00 3.742e+00 5.310e+00
102 1 5.727e+00 7.249e+00 9.110e+00
32 1 7.318e+00 2.196e+00 5.340e+00
29 1 5.510e+00 6.026e-01 5.389e+00
106 1 9.163e+00 7.304e+00 9.083e+00
45 1 9.190e+00 2.179e+00 7.560e+00
41 1 5.830e+00 2.283e+00 7.464e+00
52 1 7.320e+00 3.815e+00 7.512e+00
35 1 9.002e+00 4.389e+00 5.513e+00
83 1 7.049e+00 5.298e+00 5.820e+00
86 1 5.539e+00 7.333e+00 5.959e+00
92 1 5.525e+00 5.447e+00 7.560e+00
104 1 7.374e+00 7.325e+00 7.320e+00
88 1 9.163e+00 7.445e+00 5.716e+00
94 1 9.040e+00 5.521e+00 7.565e+00
44 1 7.394e+00 5.284e-01 7.383e+00
89 1 7.231e+00 9.287e+00 5.834e+00
101 1 5.812e+00 9.150e+00 7.584e+00
105 1 9.108e+00 9.170e+00 7.332e+00
42 1 5.837e+00 3.732e-01 9.151e+00
47 1 7.677e+00 2.160e+00 9.451e+00
46 1 9.216e+00 3.102e-01 9.415e+00
107 1 7.395e+00 9.113e+00 9.062e+00
53 1 9.122e+00 3.820e+00 9.507e+00
95 1 7.501e+00 5.371e+00 9.291e+00
31 1 9.008e+00 6.860e-01 5.442e+00
51 1 5.910e+00 3.835e+00 9.160e+00
ITEM: TIMESTEP
700
ITEM: NUMBER OF ATOMS
107
ITEM: BOX BOUNDS pp pp pp
0.0000000000000000e+00 1.0619999999999999e+01
0.0000000000000000e+00 1.0619999999999999e+01
0.0000000000000000e+00 1.0619999999999999e+01
ITEM: ATOMS id type x y z
15 1 3.682e+00 3.702e+00 2.367e-01
13 1 3.549e-01 3.732e+00 2.358e-01
3 1 2.121e+00 2.512e-01 2.406e+00
4 1 2.378e-01 2.339e+00 2.203e+00
2 1 2.172e+00 2.148e+00 5.382e-01
76 1 2.151e+00 9.069e+00 4.185e+00
8 1 4.288e+00 2.455e+00 2.181e+00
60 1 4.171e-01 7.643e+00 2.180e-01
14 1 2.035e+00 4.046e+00 2.175e+00
55 1 5.848e-01 5.986e+00 1.850e+00
54 1 2.465e+00 5.583e+00 2.067e-01
77 1 3.827e+00 7.323e+00 3.848e+00
61 1 2.041e+00 9.344e+00 4.742e-01
62 1 2.200e+00 7.559e+00 2.324e+00
57 1 3.883e+00 5.352e+00 2.053e+00
64 1 3.694e+00 7.458e+00 5.080e-01
5 1 3.750e+00 5.808e-01 4.099e-01
63 1 6.373e-01 8.920e+00 2.273e+00
67 1 4.039e+00 9.164e+00 2.140e+00
19 1 1.211e-01 1.161e-01 3.719e+00
20 1 2.223e+00 2.276e+00 3.595e+00
21 1 4.261e+00 4.966e-01 4.108e+00
24 1 3.438e-01 4.113e+00 3.881e+00
25 1 3.886e+00 3.953e+00 3.938e+00
72 1 2.290e+00 5.668e+00 3.680e+00
1 1 3.025e-01 7.719e-01 2.121e-01
27 1 1.736e+00 6.517e-01 5.297e+00
30 1 3.799e+00 2.156e+00 5.468e+00
28 1 2.056e-01 2.140e+00 5.723e+00
36 1 6.378e-01 1.786e-01 7.201e+00
37 1 2.021e+00 2.167e+00 7.295e+00
103 1 3.657e+00 9.469e+00 9.390e+00
40 1 3.886e+00 4.230e-01 7.036e+00
33 1 2.184e+00 3.807e+00 5.687e+00
48 1 3.998e-01 4.134e+00 7.624e+00
50 1 4.092e+00 3.498e+00 7.392e+00
81 1 4.319e-01 5.945e+00 5.445e+00
84 1 2.161e+00 7.045e+00 5.689e+00
90 1 1.917e+00 5.635e+00 7.374e+00
96 1 6.853e-01 7.483e+00 7.715e+00
82 1 3.980e+00 5.449e+00 5.902e+00
100 1 3.818e+00 7.354e+00 7.549e+00
85 1 3.497e-01 8.736e+00 5.945e+00
97 1 2.250e+00 9.120e+00 7.623e+00
87 1 3.923e+00 9.529e+00 5.487e+00
38 1 1.900e+00 4.389e-01 9.149e+00
39 1 2.299e-01 1.925e+00 8.561e+00
43 1 3.537e+00 1.863e+00 9.210e+00
49 1 1.913e+00 3.746e+00 9.150e+00
91 1 6.138e-01 5.607e+00 9.686e+00
98 1 2.259e+00 7.493e+00 9.504e+00
93 1 3.901e+00 5.531e+00 9.017e+00
99 1 2.604e-01 9.435e+00 9.266e+00
78 1 5.675e+00 8.675e+00 3.828e+00