LAMMPS data file via write_data, version 27 May 2021, timestep = 68

1371 atoms
3 atom types

-0.05602134787105045 24.836021347871153 xlo xhi
-0.05602134787105045 24.836021347871153 ylo yhi
-0.05602134787105045 24.836021347871153 zlo zhi

Masses

1 58.69
2 58.93
3 52

Atoms # atomic

143 1 0.2753592316862398 0.3296732826729269 0.2918019866562733 0 0 0
277 3 2.067277681548176 0.29951165180229394 2.0374499855396366 0 0 0
441 2 0.3105023593884182 2.0981597714241 2.102825288058195 0 0 0
1217 1 2.0430544152637493 2.102483043199973 0.29624740117271925 0 0 0
141 3 3.8883389937097994 2.076742225405371 2.058526536389107 0 0 0
448 3 5.647359481298634 2.0761740547924465 0.2563545677595323 0 0 0
858 3 3.838871535174742 0.346465261375134 0.2732010872102346 0 0 0
1180 2 5.649176719033612 0.32048505470308625 2.0321112432605566 0 0 0
62 1 9.209991365793355 0.29176637313590364 2.074894032092102 0 0 0
627 1 7.437018886729691 2.0624962884771767 2.0647125516310836 0 0 0
678 3 7.411504134108475 0.25883452707349386 0.26114403668863523 0 0 0
1313 1 9.21992396366808 2.048984925067262 0.3025744989496745 0 0 0
126 3 11.042159581594746 0.3094985662856079 0.337743187092229 0 0 0
422 3 11.005832568635805 2.015497056936957 2.1429707999459966 0 0 0
74 2 0.2887314413832251 5.656321584679172 2.1355255256066554 0 0 0
222 3 2.0274537451605212 3.8839923372228875 2.094407192766232 0 0 0
650 1 0.2833709456511005 3.8954503775728693 0.30167095296749025 0 0 0
1211 1 2.063423622097549 5.647119736406155 0.29035100564383653 0 0 0
824 3 5.667109059539538 5.66099869817708 0.26707688841162947 0 0 0
861 1 3.869878458369153 5.607505129083997 2.049322122811095 0 0 0
948 3 5.676082304712286 3.8466545718991063 2.0524242903895122 0 0 0
1137 3 3.819473544893377 3.841079151682957 0.24687974075677813 0 0 0
54 3 7.446192244582535 3.850732486057717 0.2917160466997793 0 0 0
768 1 9.21844872510514 3.8274060422085996 2.0833515146339323 0 0 0
1008 3 7.436523242217995 5.651307109922778 2.0628575794035724 0 0 0
1221 2 9.155135695486024 5.574890126054198 0.32273241299134203 0 0 0
398 1 10.956365507356166 5.606215853349014 2.075586133675679 0 0 0
466 2 11.005125544889806 3.7611895569602716 0.3107926739608926 0 0 0
324 3 0.31437250815143564 9.126316099759379 2.158814233372271 0 0 0
413 2 2.080966103552267 9.19814066767904 0.37415704733029514 0 0 0
798 2 2.098014852502673 7.432115031593444 2.1246519984883596 0 0 0
926 1 0.31867029437600053 7.410335380540862 0.300062713211793 0 0 0
32 3 3.865221754469178 9.178936593730157 2.1155470031448056 0 0 0
400 2 5.667253213136913 9.189553275115966 0.3273576037222421 0 0 0
599 1 3.860855146625813 7.421123337755138 0.3060816975204748 0 0 0
699 3 5.679793555805899 7.426870718533771 2.0987778518329305 0 0 0
242 2 9.182750946561681 7.384785966239204 2.097573329068559 0 0 0
581 2 9.202028155495848 9.204295351329295 0.3427321797985321 0 0 0
677 1 7.451848261698302 7.409369721967988 0.27064256006674076 0 0 0
1282 3 7.50324930936738 9.13488155261509 2.088022107880077 0 0 0
200 1 10.966330290434351 7.372576914211542 0.31001838683416055 0 0 0
407 2 10.975037512340268 9.191428725471207 2.0964394669316 0 0 0
1131 2 0.28078086067207736 10.898368454316188 0.3370605110431373 0 0 0
1153 1 2.0587747191513808 10.967941941780815 2.1096973650638122 0 0 0
550 3 3.8536031998733438 10.927005468897628 0.3774412586530302 0 0 0
1106 1 5.667618030580419 10.964893060868663 2.0833226958006534 0 0 0
210 3 7.477705946744789 10.91502405314258 0.30565226327029865 0 0 0
240 2 9.201667337893818 11.006324292854096 2.0858095526950318 0 0 0
6 2 11.022967969300023 10.948017349371346 0.29348601443061306 0 0 0
381 3 2.0914111493793524 2.0155225205560092 3.8651820136964394 0 0 0
966 1 0.26164248349385105 2.093651678136713 5.648423262626692 0 0 0
1173 3 0.278096810509776 0.3692466769322554 3.8340626026130096 0 0 0
1281 2 2.0513831985615743 0.28030163108403067 5.618064304662888 0 0 0
244 1 5.66739478169337 0.3010744245660656 5.600824402544073 0 0 0
767 2 3.8476671201275154 0.33322035988714693 3.8029018305853266 0 0 0
967 1 5.65988877496885 2.0797989416422444 3.850502913386825 0 0 0
1144 2 3.8289173784108037 2.0523607961570893 5.616960071553385 0 0 0
2 2 9.194936653600942 2.0463155474395434 3.873741712531416 0 0 0
477 2 9.177524346307079 0.30743608045440596 5.627426131924269 0 0 0
823 3 7.461693477234953 0.29861661245208454 3.8272025512260384 0 0 0
1044 2 7.465007665519764 2.0652808383834143 5.657507134524997 0 0 0
243 2 10.979365478211626 0.3288307415188315 3.8308250982475336 0 0 0
1193 2 10.968434032102374 2.069964044850551 5.623101209950268 0 0 0
11 3 0.29957479024533196 3.8670875090334076 3.842285273714148 0 0 0
192 1 2.062515428949733 3.852680795653247 5.631218335941359 0 0 0
481 3 0.28984569709246794 5.667154258288587 5.619935129382766 0 0 0
1329 1 2.082369775095764 5.64319001994037 3.871959088339599 0 0 0
697 1 3.8536355295759117 3.856248540886494 3.8527349057678806 0 0 0
831 1 5.656307723327871 3.8533624573643968 5.646910636893919 0 0 0
1111 1 3.8595101726049803 5.632882056798834 5.6750071197007665 0 0 0
1159 2 5.659151285913169 5.633589341659462 3.8327747979641003 0 0 0
549 3 7.422633960873048 5.649047008864379 5.668158384783279 0 0 0
636 3 9.19650574241242 5.6454403018536095 3.8502174591702065 0 0 0
746 1 7.436811599127531 3.857252380797267 3.8595231459680193 0 0 0
790 1 9.20690575653481 3.859494089019627 5.626255356139648 0 0 0
871 1 10.992464479752519 3.8518494223987423 3.874951305648105 0 0 0
913 3 10.969618899653282 5.650412591321447 5.656603499241134 0 0 0
1091 3 2.036374607367767 9.15715345636691 3.87229345812795 0 0 0
1116 2 0.3094782759364945 7.419336250230908 3.8876319152216663 0 0 0
1129 3 0.2876194794497553 9.166017947210923 5.641578460080229 0 0 0
1133 2 2.0874468370474935 7.440139289820759 5.6290445685483 0 0 0
312 1 3.867996740870174 9.194136544291394 5.631085227824943 0 0 0
328 2 5.690022996623748 9.194304657070385 3.870165580867714 0 0 0
443 1 5.639756032754672 7.406608888726453 5.65210664396555 0 0 0
1322 3 3.892532941074135 7.400703869663947 3.8278597154088883 0 0 0
130 3 9.209269375405434 7.434759657502281 5.621100361206487 0 0 0
700 3 7.449267453087202 9.193276493481694 5.563557207057644 0 0 0
724 2 7.430097685323968 7.383425541612093 3.8583192637506336 0 0 0
1113 3 9.27290453725185 9.179640718436 3.8164106431664204 0 0 0
31 2 10.957589825920044 9.22473000226372 5.649824223110632 0 0 0
1332 2 10.9641234691673 7.4163509049638545 3.8694254315782883 0 0 0
48 3 2.055391570496212 10.943578380953655 5.675514029974323 0 0 0
166 2 0.311687598829022 10.970532953930375 3.8926373663558818 0 0 0
205 1 5.650333388539386 10.975178640625636 5.654681779297644 0 0 0
682 1 3.8559104738896934 10.981154615558724 3.8647072899306494 0 0 0
478 3 7.443990319597684 10.977375831359502 3.8281629491198457 0 0 0
840 2 9.139488847885891 10.963270186956684 5.624939041992026 0 0 0
741 1 10.983594615146542 11.011801203734663 3.8663306150744168 0 0 0
342 3 0.356949544632201 0.2889727359851828 7.436092634723126 0 0 0
659 2 2.0790363168501074 0.30391193701886393 9.207438046080805 0 0 0
740 1 0.2663577100216547 2.0730994550514015 9.179335140440935 0 0 0
1016 3 2.124549241109161 2.0029725380872465 7.387455463954763 0 0 0
139 3 3.8787616538134753 1.9731654378189425 9.204028379898723 0 0 0
219 2 3.841547519153884 0.28763901615671594 7.422202230840512 0 0 0
291 1 5.671126612576228 2.052637265375381 7.382365251237789 0 0 0
371 1 5.680238312002367 0.2613779708397746 9.168112402524601 0 0 0
455 3 9.215466876030593 2.039734705854254 7.368116572493345 0 0 0
729 3 7.445843264586406 0.2524521379439356 7.406325856120445 0 0 0
818 1 9.211919860101633 0.2863790330115521 9.173969852609396 0 0 0
1063 2 7.436125874404842 2.0455082646371507 9.175774304120784 0 0 0
642 1 10.971944821662689 2.072085039940597 9.155054242528275 0 0 0
865 2 10.967578731214621 0.2870555465698384 7.382373412124787 0 0 0
4 1 2.095636837786399 5.627621238780642 7.422737781398286 0 0 0
188 3 2.0681792076355214 3.819030440180628 9.219394689103323 0 0 0
236 1 0.2937652876903761 3.855520876697634 7.402842058507892 0 0 0
393 2 0.2986731077445404 5.624292777395862 9.198956728885278 0 0 0
46 1 5.616953532867318 5.638526411436696 7.418447106943814 0 0 0
333 1 5.63010255771936 3.8439660097710973 9.152940376287816 0 0 0
499 3 3.8536928179769205 5.690323879052988 9.192262229575727 0 0 0
772 3 3.8159950655684263 3.7395622254776884 7.403365411351545 0 0 0
155 2 7.418152093966589 5.6383595034740654 9.185504225359754 0 0 0
555 2 9.158346033015043 3.8418408357844314 9.150146611107406 0 0 0
1062 3 7.494733612341336 3.8621565458320575 7.454783037396217 0 0 0
1348 2 9.195244695208455 5.642485945576165 7.386803970086767 0 0 0
512 2 10.933112861292921 3.8553545657048978 7.404285093712742 0 0 0
1087 2 10.960648723401393 5.628860633636964 9.2059548675151 0 0 0
100 1 0.29004549587056355 7.4028355472515885 7.424807580627111 0 0 0
108 2 2.0827444336058862 7.409027775322845 9.189281647098337 0 0 0
426 2 0.26673325739344506 9.145175621961599 9.199026228400122 0 0 0
1034 2 2.0384693984526834 9.195666202668159 7.370701405617832 0 0 0
102 2 3.873431561223345 9.161419501339177 9.144655949899443 0 0 0
295 2 5.703926239340597 9.193577250427573 7.4120367255589255 0 0 0
360 3 3.812394535628974 7.519605626526795 7.480535904550935 0 0 0
559 1 5.657687262829177 7.426561674391276 9.179164447682046 0 0 0
13 3 7.470011403729117 7.401885728778026 7.443469275583368 0 0 0
279 2 9.187618657418849 7.4127322142023795 9.189265873248706 0 0 0
1315 3 7.4357152730162515 9.18124523643688 9.2471591019081 0 0 0
1339 1 9.170959446647943 9.211180264299225 7.418974545602948 0 0 0
120 1 10.95945336590805 7.418342542721828 7.415946483869238 0 0 0
216 3 10.94115179342654 9.193587324140038 9.187978410436507 0 0 0
494 2 0.2982908147456199 10.971042500390329 7.415100962751085 0 0 0
998 1 2.069701165066606 10.921287568714297 9.189364666649896 0 0 0
446 2 5.641516525126059 10.944284674206308 9.201556234696056 0 0 0
1228 2 3.8480125478836467 10.953249567065711 7.424767963287202 0 0 0
696 3 7.401903517474352 10.99755546926256 7.471513689254414 0 0 0
1056 2 9.187069661677612 10.964144860502401 9.199924531701118 0 0 0
154 3 10.929199463559677 11.002108285597565 7.405822859361911 0 0 0
76 3 1.9903096198321346 1.9738915224491607 10.999755293496763 0 0 0
1086 2 0.2757311844913631 0.310415686483024 10.97040121688054 0 0 0
90 3 3.8423199139591295 0.23489242464883572 10.937696686754776 0 0 0
1263 3 5.7345934445305105 2.046647362607488 10.919138400970432 0 0 0
604 2 9.168100203957449 2.0602988050430473 10.948618354605951 0 0 0
706 2 7.431176460677935 0.2194938384251851 10.947532296433604 0 0 0
1160 1 10.973394314491761 0.30564665166205934 10.967474621499678 0 0 0
482 1 0.2659592088384 3.8335391003842574 10.95462194644978 0 0 0
914 3 2.064792901425807 5.659087211494423 10.944063838507093 0 0 0
875 3 3.8605747512893567 3.8720511390315875 10.96859026920187 0 0 0
1196 3 5.666826573529294 5.615540347706289 10.958722683285167 0 0 0
380 2 7.415983398769537 3.863501081928873 10.947808905306292 0 0 0
1012 2 9.196783197336963 5.6233033224571 10.974030462263226 0 0 0
250 1 10.942652533182601 3.82658225014332 10.94056412179723 0 0 0
88 2 2.080461573563582 9.143378804191363 10.980881758444278 0 0 0
528 3 0.29795146879039663 7.437611048154262 10.863739885904552 0 0 0
128 2 5.639581746903919 9.20419865188837 10.9695987709149 0 0 0
539 1 3.879867458657029 7.4252108862119375 10.961038102326775 0 0 0
71 2 7.4181069828353134 7.41632558737382 10.953671284657899 0 0 0
887 2 9.215709883483122 9.206803861524389 10.943952151860035 0 0 0
186 2 10.97803198242424 7.400734960194084 10.979601794738123 0 0 0
270 1 0.3056464746624478 10.941665501030089 10.985579022613546 0 0 0
814 1 3.8348269872574012 10.932238795461899 10.95802922610386 0 0 0
1344 2 7.4103063352240115 10.972097890506031 10.966919512291005 0 0 0
479 2 10.98561823641377 10.982218488096393 10.92749341917934 0 0 0
293 3 2.001928406634579 0.2801663894954052 12.76282096534336 0 0 0
390 2 0.301204886917861 2.070662352137959 12.752412413243942 0 0 0
419 3 2.0618034285877975 2.0503891707443422 14.49519440366531 0 0 0
918 2 0.2890611141184778 0.3051762310138479 14.535854734938484 0 0 0
124 1 5.640189074181325 2.0225404576874455 14.531475551178575 0 0 0
147 1 3.868231126506279 0.29342491493294076 14.515619477369667 0 0 0
625 3 5.671396866940553 0.299526064913608 12.669183606991911 0 0 0
780 2 3.863462278858038 2.0268136373976215 12.695681834566953 0 0 0
56 1 7.446863169860122 2.061365330638054 12.735937704079573 0 0 0
468 2 9.182172116935272 0.2604107600365376 12.705842415544634 0 0 0
805 1 9.192758636800816 2.0578553698929234 14.50555328165476 0 0 0
1145 3 7.41688465509104 0.24331563756143398 14.500475978776217 0 0 0
661 2 10.96709625946275 2.091386519001991 12.716110231049441 0 0 0
1175 1 10.960563057014731 0.31456585675180393 14.49719165430453 0 0 0
519 3 2.0675990589168367 5.626363505126134 14.424525065324175 0 0 0
596 2 0.33788707493726533 3.863850720135558 14.511873173535392 0 0 0
901 3 2.0890893652442313 3.817430642573514 12.691276434242422 0 0 0
1319 1 0.2571331909313878 5.612229634255535 12.702378689719607 0 0 0
357 2 5.641829155500119 5.627149419837193 14.474195983737443 0 0 0
467 2 3.8379929498079086 5.6224667083981 12.724139066458878 0 0 0
1177 1 5.653432416263933 3.822387306867846 12.742428989068626 0 0 0
1289 1 3.8599546790909005 3.822632634584077 14.500872190574734 0 0 0
265 3 7.4319200369798395 5.623603000615015 12.691663064824274 0 0 0
307 2 9.185829659740213 3.9105582792788764 12.730007838225703 0 0 0
860 1 7.419282301614328 3.8494296961703935 14.525300892948101 0 0 0
942 3 9.166316823558425 5.646734223404355 14.491407623095448 0 0 0
84 3 10.93404326886173 5.659323269475536 12.669505957885077 0 0 0
367 1 10.951916638462796 3.8654438219855156 14.478086953253872 0 0 0
214 3 0.2606767326049579 7.37054058863953 14.53656819569137 0 0 0
374 3 2.0435054451312045 7.442738113210421 12.652020558148688 0 0 0
1103 1 2.060389030352622 9.106214039799847 14.537667429904682 0 0 0
1214 1 0.2838949278430639 9.180043114497437 12.750488095178746 0 0 0
518 2 3.8629645429668695 9.16995690176104 12.771662845188262 0 0 0
638 3 5.647733625099348 7.3822120889832545 12.718505564507717 0 0 0
734 3 3.888276350852323 7.346023378842225 14.491859124160625 0 0 0
1235 1 5.644881607852767 9.206027941929625 14.492560185195941 0 0 0
884 1 7.4133117292435955 9.210151862501142 12.721720267418991 0 0 0
1101 2 9.210830680273896 9.176277331434191 14.539039961416561 0 0 0
1179 1 9.171740213372297 7.427575492671773 12.71905212246742 0 0 0
1292 1 7.421329447982162 7.407262161449542 14.501848585756333 0 0 0
368 3 10.918017384682802 7.444387040303174 14.509825676289267 0 0 0
960 2 10.97572867197927 9.185530223184507 12.744746958952506 0 0 0
198 2 2.125840135845251 10.93854678609061 12.78422618903868 0 0 0
1060 2 0.3465390664753308 10.917962032365507 14.55997702218511 0 0 0
688 3 3.771641527368902 10.9553738666288 14.492799557856197 0 0 0
1168 3 5.596372479799886 11.01436738928617 12.712652463714171 0 0 0
61 3 9.262972439796217 10.926609886379879 12.72920260022866 0 0 0
199 3 7.489926256530281 10.979372781836263 14.46212806591337 0 0 0
193 2 10.968902402801364 10.959428759779259 14.53840486850785 0 0 0
377 1 0.31924209924315167 2.1122663970087605 16.300175715209686 0 0 0
705 1 0.3053316235745201 0.34143864660509166 18.085400789033738 0 0 0
713 2 2.061758222702704 2.144010787561804 18.065932758870787 0 0 0
1110 2 2.0721959592367964 0.3143587099477158 16.289747139973162 0 0 0
721 1 3.8451012113183514 2.0841536383926846 16.306788307716477 0 0 0
995 2 5.667711731663105 2.0745578312825312 18.06106815979489 0 0 0
1128 1 3.8254065533522374 0.32874877432335115 18.102756110600037 0 0 0
1230 3 5.606531053056965 0.22638930470152632 16.403888283011863 0 0 0
327 2 7.413511571884569 0.27728756284217804 18.06715180274365 0 0 0
608 3 9.101049410197044 2.1163551792244673 18.12152049124638 0 0 0
880 2 9.157244476775883 0.28555596641091957 16.344213012484385 0 0 0
961 1 7.39627923940658 2.03934278517672 16.27960266422606 0 0 0
994 1 10.97861924211683 0.339781737885639 18.06835027488983 0 0 0
1032 1 10.967419854253174 2.0767497543527367 16.300118419116195 0 0 0
73 3 2.04474655550298 5.578508684511538 18.219407051134837 0 0 0
104 3 2.103075479032355 3.9549349322321943 16.357939152651763 0 0 0
174 2 0.3072630366427666 3.8716697502299087 18.09632973331622 0 0 0
176 2 0.3340186115677698 5.631170565868064 16.29380002278597 0 0 0
428 3 3.9619545504830587 5.570272359767349 16.295069429000176 0 0 0
656 2 3.8656873305504225 3.8558115060075564 18.07135561023756 0 0 0
743 2 5.62421562082639 3.8773727071409403 16.315994677025003 0 0 0
1075 2 5.670126395411567 5.620466574359487 18.101873721430717 0 0 0
127 1 9.185171347506971 3.837699329797988 16.28438052482648 0 0 0
783 3 7.390706245833708 3.8106215150238323 18.048483330958014 0 0 0
868 1 9.182141512723915 5.5848858503207355 18.05905703537976 0 0 0
946 2 7.419383957033012 5.6353788645145135 16.300678735633195 0 0 0
49 2 10.966509243242209 3.7930129834668858 18.090615636941905 0 0 0
830 1 10.96218542296438 5.618544330101031 16.262153401892782 0 0 0
303 3 2.135244806257545 7.230748320482191 16.372117291581425 0 0 0
384 2 0.32560558611431545 7.39860834570915 18.07315973193539 0 0 0
837 3 2.1309213186507745 9.11929711516863 18.11963800799019 0 0 0
912 3 0.3090198606772526 9.134248718977652 16.331389803489483 0 0 0
116 1 5.651417985928191 7.390248038098201 16.280283218685305 0 0 0
647 2 3.894680206949026 7.357155335651878 18.07085906035718 0 0 0
1202 2 5.651950739786483 9.205137136666135 18.04960785362226 0 0 0
1367 1 3.8541299849925 9.154702303226333 16.2919616294143 0 0 0
692 3 9.17953408857006 9.163393658485525 18.05268402852003 0 0 0
943 2 9.192585557418555 7.4093790037039104 16.293425309822187 0 0 0
1007 3 7.40929381580998 7.400819089436878 18.0404206608403 0 0 0
1298 3 7.40650671592648 9.17814623896078 16.28748902443293 0 0 0
314 1 10.964713277795466 7.362514802212443 18.05110042108523 0 0 0
1201 3 10.958974799999616 9.167362248866349 16.292689432017006 0 0 0
332 3 0.31197707057441815 10.903855962593418 18.067985781963998 0 0 0
841 3 2.0871780378504634 10.977712987304582 16.311630896176492 0 0 0
577 3 5.635243652615268 10.964591081364878 16.25191595962375 0 0 0
1219 2 3.8686579799882783 10.96724264019263 18.10075748795307 0 0 0
849 1 7.424032932897349 10.981802501618326 18.05749901898465 0 0 0
1070 1 9.20599608410954 10.980265345578388 16.286151336103977 0 0 0
579 1 10.969003655217188 10.958080163501014 18.082238265832103 0 0 0
339 3 0.3094152226820792 0.34295905587848585 21.639580009878326 0 0 0
554 2 2.0422927998477522 2.1178633991109717 21.6478925977314 0 0 0
693 2 2.038726055030639 0.32867352260572025 19.861341696246765 0 0 0
969 2 0.303084625979623 2.119330902038012 19.886383964673147 0 0 0
137 2 5.658647490476979 0.3229037822656811 19.831013867736377 0 0 0
758 1 3.8396063541028917 0.34566647674317946 21.636071319910382 0 0 0
787 2 5.652915379398947 2.119267219694064 21.671178707306698 0 0 0
1004 1 3.8610402216606223 2.070021918062148 19.875312568219172 0 0 0
233 2 7.414873960631044 2.0864493080103874 19.81171677084138 0 0 0
765 1 9.177804410730769 2.086054850282912 21.63215133277565 0 0 0
883 3 9.135609995664096 0.3488974615532423 19.812153709022947 0 0 0
927 1 7.411968949775716 0.32587283347509916 21.643071526822045 0 0 0
67 2 10.969860616889969 2.074402070959732 19.83314046861383 0 0 0
175 3 10.980640119208884 0.3277595851622613 21.60831938971882 0 0 0
465 2 2.090667663294906 3.8557566556730505 19.86718472753204 0 0 0
1104 2 0.2859721347214326 5.629122351813647 19.88437059250627 0 0 0
1256 3 0.3157915280196468 3.83277750231209 21.62509393694008 0 0 0
1276 3 2.069438044546902 5.580541288347674 21.572440797055023 0 0 0
53 1 3.90957438398748 5.603108309157823 19.89536857171403 0 0 0
423 2 3.8552082867199227 3.8406386700562707 21.680523415822968 0 0 0
444 1 5.636278986870357 3.8227491559798805 19.863056672492185 0 0 0
556 3 5.732129376524448 5.562615642857703 21.682157747963515 0 0 0
365 2 7.387198930696697 3.852393098964134 21.648769428516918 0 0 0
388 2 9.170944878817693 5.618381983757565 21.594512881730697 0 0 0
1200 2 9.169065594084378 3.7900779332382424 19.805340771799525 0 0 0
1369 1 7.42697123204843 5.595831713676128 19.847414903541996 0 0 0
178 1 10.971952063216397 3.847993917044611 21.627094796969825 0 0 0
1174 1 10.980750040908648 5.5717480742012695 19.85535568595568 0 0 0
26 2 2.1368760664403252 7.373916692625204 19.856918039460652 0 0 0
383 2 2.143404118095992 9.184600822144711 21.599977791537047 0 0 0
1031 1 0.33113780201966586 7.410888066451987 21.633280040620804 0 0 0
1301 1 0.3043756220151949 9.16424175225785 19.86096092267509 0 0 0
653 2 5.670058543859899 9.186754076590274 21.632006704367633 0 0 0
947 3 5.629477778778846 7.430293820691298 19.848367994582752 0 0 0
1154 2 3.9262597395779637 7.393679309755902 21.634296526626194 0 0 0
1327 2 3.9048175872185995 9.170305535396302 19.844541030906058 0 0 0
490 2 7.436155763982939 7.413152247460435 21.600366413621142 0 0 0
587 3 9.21514396079356 9.150124087122267 21.611711114852028 0 0 0
977 3 9.184609533220927 7.371424115779031 19.85678493789067 0 0 0
1124 3 7.406722599282717 9.163981737095568 19.85272914651114 0 0 0
745 2 10.8923106279275 9.131490467656525 19.830035442684547 0 0 0
1029 1 10.974467478232237 7.3563180105887405 21.625316327895156 0 0 0
228 1 0.31420850404556333 10.941389997628097 21.63920306127135 0 0 0
363 1 2.0803066813159035 10.958173530687237 19.860787716343566 0 0 0
511 3 5.665285924023765 10.924283497178498 19.865314206508902 0 0 0
534 3 3.8870800338814457 10.926708371329713 21.589508123929296 0 0 0
872 2 9.172343658182264 10.935064639049795 19.858770251650004 0 0 0
956 1 7.460692160243428 10.961148394024805 21.664690853052765 0 0 0
1050 3 11.027145972444078 10.855230810202903 21.567231029868683 0 0 0
95 2 0.27506202663061924 2.1118280377850835 23.390846221316806 0 0 0
1052 2 2.0502890211028117 0.3216522364092336 23.413092795848918 0 0 0
325 1 5.633061536594056 0.30966851188872363 23.387383211629196 0 0 0
895 2 3.8632128057194763 2.0992644545837855 23.460674163959347 0 0 0
893 2 7.4083695589897225 2.0940969451959326 23.461338683913723 0 0 0
920 2 9.240966270609892 0.28772790913701046 23.4244454985013 0 0 0
134 1 10.991971506385273 2.0447468948725707 23.4184346157455 0 0 0
412 2 2.044365872114163 3.8775572117905077 23.394526744507914 0 0 0
622 2 0.2558365576789763 5.633348556543815 23.360809395662894 0 0 0
220 1 3.8499177128783417 5.641063010884917 23.386308455791347 0 0 0
1095 2 5.651087378318446 3.884389222750176 23.488025684197833 0 0 0
96 2 7.403695542082373 5.631380213982268 23.412928166344763 0 0 0
614 1 9.201143627936112 3.8533995371015926 23.412599258497686 0 0 0
52 1 10.988140731688805 5.56587003983417 23.41777192897772 0 0 0
480 1 0.3229036031183241 9.174346866186129 23.426032155678747 0 0 0
873 1 2.08681353869771 7.40356447233705 23.37593073447613 0 0 0
633 3 5.678978157443687 7.425203471053048 23.367950516094094 0 0 0
1096 1 3.8621644403399533 9.184429125429102 23.429164206412487 0 0 0
51 1 9.21321649619415 7.368480418736074 23.397662204571326 0 0 0
857 2 7.429353718946321 9.176606524361079 23.40487163623644 0 0 0
809 1 10.966911794294635 9.147679594365327 23.42737089825913 0 0 0
1258 1 2.090022910559317 10.945158005138259 23.418645528922447 0 0 0
1150 3 5.674603756777603 10.920573073151395 23.444766433458373 0 0 0
298 1 9.271384638806419 10.950703376071337 23.421614881532896 0 0 0
340 2 0.287462173763815 14.53336810253424 0.2974942480460775 0 0 0
362 1 2.0722237080211676 12.708485612284358 0.30190210224857356 0 0 0
421 3 2.0243454038708055 14.504630065980034 2.035298712708841 0 0 0
959 2 0.3094327263398072 12.74595341832522 2.110365607060557 0 0 0
168 2 3.88435791314564 12.75090774557047 2.0880103974366273 0 0 0
436 3 5.67608157899162 12.721812558342219 0.28075701212405907 0 0 0
438 1 5.656008042205393 14.523079334144626 2.0609323344609174 0 0 0
651 1 3.8741969463329067 14.504610971995682 0.306316391286413 0 0 0
217 1 9.230091548907561 12.76581086885085 0.3154555776380614 0 0 0
432 3 7.4530211025842705 12.807835497366383 2.079310180217649 0 0 0
833 3 9.245221206763825 14.687872111063973 1.9885615055712629 0 0 0
1019 2 7.455505143553043 14.519099965732389 0.32548665353709516 0 0 0
761 2 11.003488943871734 14.534666853534732 0.2796994834101572 0 0 0
937 1 10.986857557277496 12.787041433637002 2.071654726290764 0 0 0
609 3 0.21519563139840428 16.277443319177756 2.098785270667273 0 0 0
1119 3 2.0379547795309896 16.279655505421612 0.27413936473193334 0 0 0
1192 3 0.20400861067016487 18.106362723699704 0.33343727291788205 0 0 0
1224 1 2.0908461182974705 18.024067920284732 2.09345579791884 0 0 0
165 1 5.670460204904923 16.29806492721417 0.28363419677614365 0 0 0
687 3 3.8809841689192908 18.08208892076912 0.31329528736530876 0 0 0
889 3 3.8990361522576684 16.303157502038196 2.0781783129620015 0 0 0
1140 1 5.671799415873707 18.088821603516212 2.0756552398822024 0 0 0
434 1 7.46216622772622 18.067326821577364 0.31805528857841525 0 0 0
632 1 7.436687092651704 16.32655981554749 2.099520377636298 0 0 0
1065 2 9.224253636489918 16.314861886880614 0.3006973151766282 0 0 0
41 2 10.951551750988342 16.31630763995629 2.080014175379242 0 0 0
1061 2 10.965070104661667 18.081752546306127 0.32854065554407663 0 0 0
1151 3 9.304259273207888 18.00417935243603 2.112543760351636 0 0 0
57 2 0.29076598764110234 21.64191827765319 0.3382767455407829 0 0 0
447 1 2.0877766983203716 21.673418764862497 2.1122614486597553 0 0 0
923 3 0.3532465658703306 19.866770012185203 2.0781449320174556 0 0 0
1356 2 2.0726683614468557 19.822298200187575 0.29510144264493743 0 0 0
580 2 3.859404789557818 19.834542685086372 2.0414591658510037 0 0 0
940 1 3.847201488515738 21.647097993437235 0.3012974669621237 0 0 0
1198 3 5.661762062732559 21.63325735799334 2.0015120344561574 0 0 0
1274 2 5.660421625207447 19.857652152629605 0.27392803972308755 0 0 0
3 1 9.203421414569473 21.62669898443314 2.083052548316117 0 0 0
812 2 7.403568920742432 21.656691852951734 0.3162205721323508 0 0 0
863 1 9.238912010659623 19.83284983764165 0.32498960437798063 0 0 0
1346 1 7.453506646199975 19.85874621425938 2.0861676489422503 0 0 0
354 2 11.00339210627858 21.653662972067316 0.2806994728191795 0 0 0
1092 2 11.010007587815549 19.85673481276334 2.077966621898612 0 0 0
145 1 0.28519586328460816 23.441486033385175 2.112071822405359 0 0 0
1358 2 2.066204838146356 23.455755973189323 0.3159777003994075 0 0 0
757 1 3.87653579139136 23.443869884624007 2.068150205308364 0 0 0
1268 2 5.6268825445449435 23.44539293610318 0.28024780734697835 0 0 0
170 3 7.3979545365183 23.45445583453518 2.004510959411906 0 0 0
644 1 9.225695565381214 23.404197657015846 0.2932697819921365 0 0 0
1169 1 10.982641405009144 23.397071418132995 2.09178098296922 0 0 0
47 3 2.0593575881444584 12.820525261740602 3.817691188384459 0 0 0
617 1 0.2913658265786304 14.51763696626844 3.884866936786796 0 0 0
852 3 2.0707641189156196 14.524542386435433 5.7390563302681645 0 0 0
949 3 0.32311119653479964 12.758370828201107 5.672646703044946 0 0 0
187 3 3.8753218543791665 14.521394652023004 3.836839390802428 0 0 0
590 1 3.8509735509534524 12.746776293060625 5.6498299405309105 0 0 0
1105 2 5.638545719195414 14.510446535025963 5.606181639326226 0 0 0
1132 3 5.685354125243193 12.77449292029102 3.880185425184208 0 0 0
573 3 9.190244179262598 12.7982488963116 3.8733202862679112 0 0 0
712 2 7.446957406742922 12.760361076353853 5.616259714132759 0 0 0
882 2 7.4717303896990215 14.519942014967459 3.8295763606699986 0 0 0
1227 3 9.16420759841226 14.531084010673835 5.659493978110182 0 0 0
351 3 10.94249233430247 12.724928446619192 5.68977966106096 0 0 0
752 1 10.970533189152238 14.553067662625521 3.8692640482262473 0 0 0
329 3 2.125062820163297 18.11031986292413 5.663644547175245 0 0 0
361 3 2.110710731487833 16.252548236392215 3.904083239221133 0 0 0
406 1 0.30615150037952754 16.32514153234897 5.6641783697313235 0 0 0
730 1 0.3142287344629836 18.095547371904246 3.8857566928210345 0 0 0
109 1 3.878404159985992 16.295063549603658 5.658731931224768 0 0 0
408 2 5.617197523847958 16.27191743742864 3.853544202695234 0 0 0
603 1 3.890932326238162 18.073389396969866 3.8602429400549836 0 0 0
850 2 5.615311174191102 18.104915402404032 5.646593835464141 0 0 0
59 1 9.189602530464336 18.081767095990244 5.630097407856796 0 0 0
204 2 7.44973627176816 18.109201961984322 3.848118591720627 0 0 0
592 2 9.219245239995013 16.294597661463243 3.8899232916429534 0 0 0
974 1 7.40241312955217 16.324049821551114 5.613485209627345 0 0 0
602 2 10.972157862645009 18.074971983149933 3.880626607315013 0 0 0
876 3 10.9252315425497 16.363355282882683 5.667527485847501 0 0 0
349 3 0.2873470118780327 21.58995021472262 3.8628226546135087 0 0 0
538 2 0.28278243296123784 19.90200228807013 5.626743637623731 0 0 0
561 1 2.098564580699034 21.66118179923827 5.612032046521042 0 0 0
694 3 2.101823842860924 19.832513629533928 3.8634616660204646 0 0 0
575 1 5.658603036750054 21.639071835389544 5.609090533235278 0 0 0
658 2 3.8645846093823386 19.871987131037322 5.632911567728357 0 0 0
986 1 5.661019174539559 19.880607655856462 3.8281408723677077 0 0 0
1343 1 3.87899497383918 21.63484405223505 3.831035854253176 0 0 0
44 3 7.419969663770262 21.63704567875114 3.8173866810131383 0 0 0
132 2 7.433228976939229 19.87965183602433 5.616298581436577 0 0 0
707 1 9.182573391557023 21.625761046513464 5.604639667554586 0 0 0
870 1 9.21413004162304 19.844385227750575 3.840036512001212 0 0 0
663 1 10.978604500350725 21.626696597391927 3.862860296102105 0 0 0
1033 2 10.968925569928473 19.846549911614723 5.691976603210845 0 0 0
36 3 0.2780273489632412 23.410098868706086 5.607126155388802 0 0 0
1277 3 2.0921930325249987 23.524313252765207 3.8633436783741955 0 0 0
427 1 3.880581473004922 23.42744930384939 5.6138246175953 0 0 0
701 1 5.671916630346383 23.411711336812893 3.8096952736860814 0 0 0
1025 2 9.141628806339668 23.429276468210624 3.8276328247924156 0 0 0