         292
Lattice=" 110.7612   0.0000   0.0000   0.0000 121.9364   0.0000   0.0000   0.0000   8.6222 " Time=0.000E+00  Step=0
Ni     0.61590520    4.84464840    2.01654030       3
Ni     1.86090440    2.83185060    1.30688200       4
Ni     3.09979890    4.84449480    2.01726580       9
Ni    36.97875600    0.70268660    2.85470460      90
Ni    38.28083040    0.70021730    0.72752690      91
NiV   39.58328630    0.70585630    2.91022760      96
NiV   40.87912380    0.71754080    0.77648820      97
NiV   42.16643140    0.73199530    2.94800640     102
NiV   43.44443900    0.74638980    0.80415000     103
NiV   44.71488190    0.75921780    2.96867020     108
NiV   45.97890480    0.76912760    0.82047050     109
NiV   47.23829270    0.77741550    2.98202180     114
NiV   48.49410250    0.78390530    0.83150090     115
NiV   49.74742510    0.78891700    2.99134740     120
NiV   50.99879460    0.79267440    0.83947860     121
NiV   52.24915310    0.79509370    2.99821040     126
NiV   53.49823760    0.79747380    0.84522760     127
NiV   54.74673850    0.79930760    3.00296710     132
NiV   55.99472820    0.80062280    0.84914500     133
NiV   57.24259570    0.80102450    3.00613430     138
NiV   58.49028780    0.80132080    0.85132200     139
NiV   59.73798370    0.80132770    3.00687220     144
NiV   60.98567200    0.80104080    0.85058240     145
NiV   62.23354340    0.80065980    3.00469110     150
NiV   63.48151020    0.79937730    0.84740960     151
NiV   64.73003390    0.79755390    3.00080560     156
NiV   65.97911840    0.79508550    0.84265100     157
NiV   67.22947690    0.79261650    2.99506500     162
NiV   68.48086550    0.78885520    0.83580860     163
NiV   69.73416900    0.78388480    2.98706700     168
NiV   70.98997500    0.77741330    0.82648920     169
NiV   72.24935150    0.76913680    2.97604280     174
NiV   73.51335910    0.75923990    0.81314400     175
NiV   74.78379060    0.74642120    2.95973140     180
NiV   76.06177520    0.73202970    0.79249410     181
NiV   77.34906010    0.71757590    2.93209120     186
NiV   78.64488220    0.70588110    0.75474150     187
Ni    79.94734200    0.70022630    2.88314880     192
Ni    81.24943540    0.70267920    0.69922110     193
Ni     0.61242530    6.85503960    0.57852030     265
Ni     3.09670520    6.85370220    0.57837490     271
Ni    38.23228460   59.58304980    1.45347780    2469
Ni    39.53486250   59.58525850    3.58033560    2471
NiV   40.83684920   59.57931520    1.39791300    2475
NiV   42.13154600   59.56770330    3.53226570    2477
NiV   43.41755680   59.55388260    1.36134360    2481
NiV   44.69427490   59.54019930    3.50554870    2483
NiV   45.96370700   59.52834320    1.34124940    2487
NiV   47.22695160   59.51937110    3.48958850    2489
NiV   48.48575980   59.51199340    1.32812380    2493
NiV   49.74123000   59.50631330    3.47875030    2495
NiV   50.99424740   59.50207900    1.31902300    2499
NiV   52.24570080   59.49917990    3.47099310    2501
NiV   53.49583820   59.49683380    1.31255080    2505
NiV   54.74500280   59.49478150    3.46568560    2507
NiV   55.99366000   59.49348070    1.30831990    2511
NiV   57.24182890   59.49273300    3.46248610    2513
NiV   58.49006660   59.49285510    1.30599710    2517
NiV   59.73817830   59.49285510    3.46154760    2519
NiV   60.98641600   59.49273300    1.30693410    2523
NiV   62.23458860   59.49348070    3.46386940    2525
NiV   63.48324210   59.49478150    1.31013250    2529
NiV   64.73240660   59.49683380    3.46809910    2531
NiV   65.98254400   59.49917990    1.31543860    2535
NiV   67.23399350   59.50207900    3.47457010    2537
NiV   68.48701480   59.50631330    1.32319440    2541
NiV   69.74247740   59.51198960    3.48366910    2543
NiV   71.00128170   59.51936720    1.33403060    2547
NiV   72.26451880   59.52833560    3.49679190    2549
NiV   73.53394320   59.54019550    1.34998680    2553
NiV   74.81065370   59.55387500    3.51688010    2555
NiV   76.09665680   59.56769560    1.37669490    2559
NiV   77.39134220   59.57931520    3.55343850    2561
Ni    78.69332130   59.58526610    1.42475620    2565
Ni    79.99590300   59.58306890    3.60899810    2567
Ni    38.92549140   61.67014320    2.47586230    2736
Ni    40.11638260   61.66670230    0.37100210    2737
NiV   41.30966570   61.65089040    2.57537890    2742
NiV   42.50738530   61.62801360    0.46205410    2743
NiV   43.71180730   61.60511020    2.65072780    2748
NiV   44.92412200   61.58474350    0.51900750    2749
NiV   46.14269260   61.56883620    2.69021420    2754
NiV   47.36713790   61.55665210    0.54442030    2755
NiV   48.59588240   61.54753880    2.70559120    2760
NiV   49.82801440   61.54074860    0.55303560    2761
NiV   51.06259540   61.53573230    2.70998290    2766
NiV   52.29896170   61.53199770    0.55493810    2767
NiV   53.53668980   61.52911000    2.71047570    2772
NiV   54.77509690   61.52637480    0.55470660    2773
NiV   56.01440430   61.52476500    2.71002100    2778
NiV   57.25411230   61.52379990    0.55431760    2779
NiV   58.49403380   61.52296450    2.71002940    2784
NiV   59.73422630   61.52296450    0.55447860    2785
NiV   60.97414780   61.52379990    2.70986870    2790
NiV   62.21385960   61.52476500    0.55447010    2791
NiV   63.45316320   61.52637480    2.71025780    2796
NiV   64.69157410   61.52911000    0.55492500    2797
NiV   65.92930600   61.53199770    2.71049000    2802
NiV   67.16567230   61.53573230    0.55443370    2803
NiV   68.40025330   61.54074480    2.70859010    2808
NiV   69.63239290   61.54753500    0.55004620    2809
NiV   70.86113740   61.55664830    2.69998100    2814
NiV   72.08558660   61.56882480    0.53467870    2815
NiV   73.30416870   61.58473210    2.67458180    2820
NiV   74.51648710   61.60509490    0.49521030    2821
NiV   75.72091680   61.62799840    2.61764960    2826
NiV   76.91864780   61.65087890    0.41988140    2827
Ni    78.11193090   61.66670230    2.52661110    2832
Ni    79.30281830   61.67015840    0.32036710    2833
Ni    37.69036100  120.55236820    1.84380140    5163
Ni    38.88134380  120.55444340    3.94870960    5165
NiV   40.07427980  120.56937410    1.74354540    5169
NiV   41.27119070  120.59234620    3.85547580    5171
NiV   42.47463990  120.61602790    1.66516890    5175
NiV   43.68589400  120.63754270    3.79534490    5177
NiV   44.90356060  120.65460970    1.62287820    5181
NiV   46.12728120  120.66793060    3.76775530    5183
NiV   47.35547640  120.67801670    1.60594070    5187
NiV   48.58724220  120.68569950    3.75806790    5189
NiV   49.82157900  120.69148260    1.60087080    5193
NiV   51.05783080  120.69579320    3.75582150    5195
NiV   52.29544830  120.69907380    1.60018630    5199
NiV   53.53411870  120.70171360    3.75601370    5201
NiV   54.77322390  120.70432280    1.60071330    5205
NiV   56.01317220  120.70580290    3.75648360    5207
NiV   57.25328450  120.70718390    1.60083870    5211
NiV   58.49386220  120.70793920    3.75621850    5213
NiV   59.73451620  120.70794680    1.60066400    5217
NiV   60.97509780  120.70721440    3.75637920    5219
NiV   62.21523670  120.70585630    1.60091940    5223
NiV   63.45517350  120.70439150    3.75623940    5225
NiV   64.69438940  120.70199590    1.60043170    5229
NiV   65.93295300  120.69909670    3.75570250    5231
NiV   67.17060090  120.69579320    1.60024310    5235
NiV   68.40682220  120.69145970    3.75640040    5237
NiV   69.64116670  120.68568420    1.60250140    5241
NiV   70.87292480  120.67802430    3.76147110    5243
NiV   72.10112760  120.66795350    1.61217220    5247
NiV   73.32485960  120.65464790    3.77838180    5249
NiV   74.54254150  120.63759620    1.63972550    5253
NiV   75.75380710  120.61608890    3.82062650    5255
NiV   76.95727540  120.59241490    1.69980680    5259
NiV   78.15420530  120.56942750    3.89895780    5261
Ni    79.34714510  120.55447390    1.79301180    5265
Ni    80.53813170  120.55236820    3.99921320    5267
Ni     0.62234000    2.83561260    7.78909400    5342
Ni     0.61550500    4.84632360    6.35370210    5343
Ni     3.10016130    2.83393960    7.78879880    5347
Ni     3.09944730    4.84607980    6.35442590    5348
Ni     4.34617950    4.84493780    8.49677280    5350
Ni    36.97875600    0.70268660    7.16580630    5429
Ni    38.28083040    0.70021730    5.03862910    5430
NiV   39.58328630    0.70585630    7.22132920    5435
NiV   40.87912380    0.71754080    5.08759020    5436
NiV   42.16643140    0.73199530    7.25910810    5441
NiV   43.44443900    0.74638980    5.11525200    5442
NiV   44.71488190    0.75921780    7.27977180    5447
NiV   45.97890480    0.76912760    5.13157230    5448
NiV   47.23829270    0.77741550    7.29312370    5453
NiV   48.49410250    0.78390530    5.14260290    5454
NiV   49.74742510    0.78891700    7.30244920    5459
NiV   50.99879460    0.79267440    5.15058040    5460
NiV   52.24915310    0.79509370    7.30931240    5465
NiV   53.49823760    0.79747380    5.15632960    5466
NiV   54.74673850    0.79930760    7.31406930    5471
NiV   55.99472820    0.80062280    5.16024690    5472
NiV   57.24259570    0.80102450    7.31723640    5477
NiV   58.49028780    0.80132080    5.16242360    5478
NiV   59.73798370    0.80132770    7.31797410    5483
NiV   60.98567200    0.80104080    5.16168400    5484
NiV   62.23354340    0.80065980    7.31579300    5489
NiV   63.48151020    0.79937730    5.15851160    5490
NiV   64.73003390    0.79755390    7.31190780    5495
NiV   65.97911840    0.79508550    5.15375280    5496
NiV   67.22947690    0.79261650    7.30616710    5501
NiV   68.48086550    0.78885520    5.14691070    5502
NiV   69.73416900    0.78388480    7.29816910    5507
NiV   70.98997500    0.77741330    5.13759140    5508
NiV   72.24935150    0.76913680    7.28714470    5513
NiV   73.51335910    0.75923990    5.12424610    5514
NiV   74.78379060    0.74642120    7.27083350    5519
NiV   76.06177520    0.73202970    5.10359620    5520
NiV   77.34906010    0.71757590    7.24319320    5525
NiV   78.64488220    0.70588110    5.06584360    5526
Ni    79.94734200    0.70022630    7.19425060    5531
Ni    81.24943540    0.70267920    5.01032300    5532
Ni   110.13014980    4.84531780    8.49632170    5602
Ni     1.85491280    6.85806700    7.06042580    5609
Ni    38.23228460   59.58304980    5.76457980    7808
Ni    39.53486250   59.58525850    7.89143760    7810
NiV   40.83684920   59.57931520    5.70901490    7814
NiV   42.13154600   59.56770330    7.84336760    7816
NiV   43.41755680   59.55388260    5.67244580    7820
NiV   44.69427490   59.54019930    7.81665040    7822
NiV   45.96370700   59.52834320    5.65235140    7826
NiV   47.22695160   59.51937110    7.80069070    7828
NiV   48.48575980   59.51199340    5.63922550    7832
NiV   49.74123000   59.50631330    7.78985220    7834
NiV   50.99424740   59.50207900    5.63012510    7838
NiV   52.24570080   59.49917990    7.78209500    7840
NiV   53.49583820   59.49683380    5.62365300    7844
NiV   54.74500280   59.49478150    7.77678780    7846
NiV   55.99366000   59.49348070    5.61942200    7850
NiV   57.24182890   59.49273300    7.77358820    7852
NiV   58.49006660   59.49285510    5.61709930    7856
NiV   59.73817830   59.49285510    7.77264980    7858
NiV   60.98641600   59.49273300    5.61803630    7862
NiV   62.23458860   59.49348070    7.77497150    7864
NiV   63.48324210   59.49478150    5.62123440    7868
NiV   64.73240660   59.49683380    7.77920110    7870
NiV   65.98254400   59.49917990    5.62654070    7874
NiV   67.23399350   59.50207900    7.78567220    7876
NiV   68.48701480   59.50631330    5.63429640    7880
NiV   69.74247740   59.51198960    7.79477120    7882
NiV   71.00128170   59.51936720    5.64513260    7886
NiV   72.26451880   59.52833560    7.80789380    7888
NiV   73.53394320   59.54019550    5.66108900    7892
NiV   74.81065370   59.55387500    7.82798200    7894
NiV   76.09665680   59.56769560    5.68779710    7898
NiV   77.39134220   59.57931520    7.86454020    7900
Ni    78.69332130   59.58526610    5.73585800    7904
Ni    79.99590300   59.58306890    7.92010020    7906
Ni    38.92549140   61.67014320    6.78696400    8075
Ni    40.11638260   61.66670230    4.68210410    8076
NiV   41.30966570   61.65089040    6.88648080    8081
NiV   42.50738530   61.62801360    4.77315620    8082
NiV   43.71180730   61.60511020    6.96182980    8087
NiV   44.92412200   61.58474350    4.83010960    8088
NiV   46.14269260   61.56883620    7.00131610    8093
NiV   47.36713790   61.55665210    4.85552220    8094
NiV   48.59588240   61.54753880    7.01669310    8099
NiV   49.82801440   61.54074860    4.86413760    8100
NiV   51.06259540   61.53573230    7.02108480    8105
NiV   52.29896170   61.53199770    4.86604020    8106
NiV   53.53668980   61.52911000    7.02157780    8111
NiV   54.77509690   61.52637480    4.86580860    8112
NiV   56.01440430   61.52476500    7.02112290    8117
NiV   57.25411230   61.52379990    4.86541940    8118
NiV   58.49403380   61.52296450    7.02113150    8123
NiV   59.73422630   61.52296450    4.86558060    8124
NiV   60.97414780   61.52379990    7.02097030    8129
NiV   62.21385960   61.52476500    4.86557200    8130
NiV   63.45316320   61.52637480    7.02135990    8135
NiV   64.69157410   61.52911000    4.86602700    8136
NiV   65.92930600   61.53199770    7.02159210    8141
NiV   67.16567230   61.53573230    4.86553580    8142
NiV   68.40025330   61.54074480    7.01969190    8147
NiV   69.63239290   61.54753500    4.86114800    8148
NiV   70.86113740   61.55664830    7.01108310    8153
NiV   72.08558660   61.56882480    4.84578080    8154
NiV   73.30416870   61.58473210    6.98568400    8159
NiV   74.51648710   61.60509490    4.80631210    8160
NiV   75.72091680   61.62799840    6.92875160    8165
NiV   76.91864780   61.65087890    4.73098330    8166
Ni    78.11193090   61.66670230    6.83771280    8171
Ni    79.30281830   61.67015840    4.63146930    8172
Ni    37.69036100  120.55236820    6.15490290   10502
Ni    38.88134380  120.55444340    8.25981140   10504
NiV   40.07427980  120.56937410    6.05464740   10508
NiV   41.27119450  120.59234620    8.16657730   10510
NiV   42.47463990  120.61602790    5.97627080   10514
NiV   43.68589400  120.63754270    8.10644630   10516
NiV   44.90356060  120.65460970    5.93398000   10520
NiV   46.12728120  120.66793060    8.07885740   10522
NiV   47.35547640  120.67801670    5.91704280   10526
NiV   48.58724220  120.68569950    8.06917000   10528
NiV   49.82157900  120.69148260    5.91197260   10532
NiV   51.05783080  120.69579320    8.06692310   10534
NiV   52.29544830  120.69907380    5.91128840   10538
NiV   53.53411870  120.70171360    8.06711580   10540
NiV   54.77322390  120.70432280    5.91181520   10544
NiV   56.01317220  120.70580290    8.06758500   10546
NiV   57.25328450  120.70718390    5.91194060   10550
NiV   58.49386220  120.70793920    8.06732080   10552
NiV   59.73451620  120.70794680    5.91176620   10556
NiV   60.97509780  120.70721440    8.06748100   10558
NiV   62.21523670  120.70585630    5.91202120   10562
NiV   63.45517350  120.70439150    8.06734180   10564
NiV   64.69438940  120.70199590    5.91153380   10568
NiV   65.93295300  120.69909670    8.06680490   10570
NiV   67.17060090  120.69579320    5.91134500   10574
NiV   68.40682220  120.69145970    8.06750200   10576
NiV   69.64116670  120.68568420    5.91360340   10580
NiV   70.87292480  120.67802430    8.07257270   10582
NiV   72.10112760  120.66795350    5.92327400   10586
NiV   73.32485960  120.65464790    8.08948330   10588
NiV   74.54254150  120.63759620    5.95082760   10592
NiV   75.75380710  120.61608890    8.13172820   10594
NiV   76.95727540  120.59241490    6.01090860   10598
NiV   78.15420530  120.56942750    8.21005920   10600
Ni    79.34714510  120.55447390    6.10411360   10604
Ni    80.53813170  120.55236820    8.31031510   10606
