         292
Lattice=" 110.7612   0.0000   0.0000   0.0000 121.9364   0.0000   0.0000   0.0000   8.6222 " Time=0.000E+00  Step=0
Ni     0.61590520    4.84464840    2.01654030       3
Ni     1.86090440    2.83185060    1.30688200       4
Ni     3.09979890    4.84449480    2.01726580       9
Ni    36.97875600    0.70268660    2.85470460      90
Ni    38.28083040    0.70021730    0.72752690      91
NiV   39.58328630    0.70585630    2.91022760      96
NiV   40.87912380    0.71754080    0.77648820      97
NiV   42.16643140    0.73199530    2.94800640     102
NiV   43.44443900    0.74638980    0.80415000     103
NiV   44.71488190    0.75921780    2.96867020     108
NiV   45.97890480    0.76912760    0.82047050     109
NiV   47.23829270    0.77741550    2.98202180     114
NiV   48.49410250    0.78390530    0.83150090     115
NiV   49.74742510    0.78891700    2.99134740     120
NiV   50.99879460    0.79267440    0.83947860     121
NiV   52.24915310    0.79509370    2.99821040     126
NiV   53.49823760    0.79747380    0.84522760     127
NiV   54.74673850    0.79930760    3.00296710     132
NiV   55.99472820    0.80062280    0.84914500     133
NiV   57.24259570    0.80102450    3.00613430     138
NiV   58.49028780    0.80132080    0.85132200     139
NiV   59.73798370    0.80132770    3.00687220     144
NiV   60.98567200    0.80104080    0.85058240     145
NiV   62.23354340    0.80065980    3.00469110     150
NiV   63.48151020    0.79937730    0.84740960     151
NiV   64.73003390    0.79755390    3.00080560     156
NiV   65.97911840    0.79508550    0.84265100     157
NiV   67.22947690    0.79261650    2.99506500     162
NiV   68.48086550    0.78885520    0.83580860     163
NiV   69.73416900    0.78388480    2.98706700     168
NiV   70.98997500    0.77741330    0.82648920     169
NiV   72.24935150    0.76913680    2.97604280     174
NiV   73.51335910    0.75923990    0.81314400     175
NiV   74.78379060    0.74642120    2.95973140     180
NiV   76.06177520    0.73202970    0.79249410     181
NiV   77.34906010    0.71757590    2.93209120     186
NiV   78.64488220    0.70588110    0.75474150     187
Ni    79.94734200    0.70022630    2.88314880     192
Ni    81.24943540    0.70267920    0.69922110     193
Ni     0.61242530    6.85503960    0.57852030     265
Ni     3.09670520    6.85370220    0.57837490     271
Ni    38.23228460   59.58304980    1.45347780    2469
Ni    39.53486250   59.58525850    3.58033560    2471
NiV   40.83684920   59.57931520    1.39791300    2475
NiV   42.13154600   59.56770330    3.53226570    2477
NiV   43.41755680   59.55388260    1.36134360    2481
NiV   44.69427490   59.54019930    3.50554870    2483
NiV   45.96370700   59.52834320    1.34124940    2487
NiV   47.22695160   59.51937110    3.48958850    2489
NiV   48.48575980   59.51199340    1.32812380    2493
NiV   49.74123000   59.50631330    3.47875030    2495
NiV   50.99424740   59.50207900    1.31902300    2499
NiV   52.24570080   59.49917990    3.47099310    2501
NiV   53.49583820   59.49683380    1.31255080    2505
NiV   54.74500280   59.49478150    3.46568560    2507
NiV   55.99366000   59.49348070    1.30831990    2511
NiV   57.24182890   59.49273300    3.46248610    2513
NiV   58.49006660   59.49285510    1.30599710    2517
NiV   59.73817830   59.49285510    3.46154760    2519
NiV   60.98641600   59.49273300    1.30693410    2523
NiV   62.23458860   59.49348070    3.46386940    2525
NiV   63.48324210   59.49478150    1.31013250    2529
NiV   64.73240660   59.49683380    3.46809910    2531
NiV   65.98254400   59.49917990    1.31543860    2535
NiV   67.23399350   59.50207900    3.47457010    2537
NiV   68.48701480   59.50631330    1.32319440    2541
NiV   69.74247740   59.51198960    3.48366910    2543
NiV   71.00128170   59.51936720    1.33403060    2547
NiV   72.26451880   59.52833560    3.49679190    2549
NiV   73.53394320   59.54019550    1.34998680    2553
NiV   74.81065370   59.55387500    3.51688010    2555
NiV   76.09665680   59.56769560    1.37669490    2559
NiV   77.39134220   59.57931520    3.55343850    2561
Ni    78.69332130   59.58526610    1.42475620    2565
Ni    79.99590300   59.58306890    3.60899810    2567
Ni    38.92549140   61.67014320    2.47586230    2736
Ni    40.11638260   61.66670230    0.37100210    2737
NiV   41.30966570   61.65089040    2.57537890    2742
NiV   42.50738530   61.62801360    0.46205410    2743
NiV   43.71180730   61.60511020    2.65072780    2748
NiV   44.92412200   61.58474350    0.51900750    2749
NiV   46.14269260   61.56883620    2.69021420    2754
NiV   47.36713790   61.55665210    0.54442030    2755
NiV   48.59588240   61.54753880    2.70559120    2760
NiV   49.82801440   61.54074860    0.55303560    2761
NiV   51.06259540   61.53573230    2.70998290    2766
NiV   52.29896170   61.53199770    0.55493810    2767
NiV   53.53668980   61.52911000    2.71047570    2772
NiV   54.77509690   61.52637480    0.55470660    2773
NiV   56.01440430   61.52476500    2.71002100    2778
NiV   57.25411230   61.52379990    0.55431760    2779
NiV   58.49403380   61.52296450    2.71002940    2784
NiV   59.73422630   61.52296450    0.55447860    2785
NiV   60.97414780   61.52379990    2.70986870    2790
NiV   62.21385960   61.52476500    0.55447010    2791
NiV   63.45316320   61.52637480    2.71025780    2796
NiV   64.69157410   61.52911000    0.55492500    2797
NiV   65.92930600   61.53199770    2.71049000    2802
NiV   67.16567230   61.53573230    0.55443370    2803
NiV   68.40025330   61.54074480    2.70859010    2808
NiV   69.63239290   61.54753500    0.55004620    2809
NiV   70.86113740   61.55664830    2.69998100    2814
NiV   72.08558660   61.56882480    0.53467870    2815
NiV   73.30416870   61.58473210    2.67458180    2820
NiV   74.51648710   61.60509490    0.49521030    2821
NiV   75.72091680   61.62799840    2.61764960    2826
NiV   76.91864780   61.65087890    0.41988140    2827
Ni    78.11193090   61.66670230    2.52661110    2832
Ni    79.30281830   61.67015840    0.32036710    2833
Ni    37.69036100  120.55236820    1.84380140    5163
Ni    38.88134380  120.55444340    3.94870960    5165
NiV   40.07427980  120.56937410    1.74354540    5169
NiV   41.27119070  120.59234620    3.85547580    5171
NiV   42.47463990  120.61602790    1.66516890    5175
NiV   43.68589400  120.63754270    3.79534490    5177
NiV   44.90356060  120.65460970    1.62287820    5181
NiV   46.12728120  120.66793060    3.76775530    5183
NiV   47.35547640  120.67801670    1.60594070    5187
NiV   48.58724220  120.68569950    3.75806790    5189
NiV   49.82157900  120.69148260    1.60087080    5193
NiV   51.05783080  120.69579320    3.75582150    5195
NiV   52.29544830  120.69907380    1.60018630    5199
NiV   53.53411870  120.70171360    3.75601370    5201
NiV   54.77322390  120.70432280    1.60071330    5205
NiV   56.01317220  120.70580290    3.75648360    5207
NiV   57.25328450  120.70718390    1.60083870    5211
NiV   58.49386220  120.70793920    3.75621850    5213
NiV   59.73451620  120.70794680    1.60066400    5217
NiV   60.97509780  120.70721440    3.75637920    5219
NiV   62.21523670  120.70585630    1.60091940    5223
NiV   63.45517350  120.70439150    3.75623940    5225
NiV   64.69438940  120.70199590    1.60043170    5229
NiV   65.93295300  120.69909670    3.75570250    5231
NiV   67.17060090  120.69579320    1.60024310    5235
NiV   68.40682220  120.69145970    3.75640040    5237
NiV   69.64116670  120.68568420    1.60250140    5241
NiV   70.87292480  120.67802430    3.76147110    5243
NiV   72.10112760  120.66795350    1.61217220    5247
NiV   73.32485960  120.65464790    3.77838180    5249
NiV   74.54254150  120.63759620    1.63972550    5253
NiV   75.75380710  120.61608890    3.82062650    5255
NiV   76.95727540  120.59241490    1.69980680    5259
NiV   78.15420530  120.56942750    3.89895780    5261
Ni    79.34714510  120.55447390    1.79301180    5265
Ni    80.53813170  120.55236820    3.99921320    5267
Ni     0.62234000    2.83561260    7.78909400    5342
Ni     0.61550500    4.84632360    6.35370210    5343
Ni     3.10016130    2.83393960    7.78879880    5347
Ni     3.09944730    4.84607980    6.35442590    5348
Ni     4.34617950    4.84493780    8.49677280    5350
Ni    36.97875600    0.70268660    7.16580630    5429
Ni    38.28083040    0.70021730    5.03862910    5430
NiV   39.58328630    0.70585630    7.22132920    5435
NiV   40.87912380    0.71754080    5.08759020    5436
NiV   42.16643140    0.73199530    7.25910810    5441
NiV   43.44443900    0.74638980    5.11525200    5442
NiV   44.71488190    0.75921780    7.27977180    5447
NiV   45.97890480    0.76912760    5.13157230    5448
NiV   47.23829270    0.77741550    7.29312370    5453
NiV   48.49410250    0.78390530    5.14260290    5454
NiV   49.74742510    0.78891700    7.30244920    5459
NiV   50.99879460    0.79267440    5.15058040    5460
NiV   52.24915310    0.79509370    7.30931240    5465
NiV   53.49823760    0.79747380    5.15632960    5466
NiV   54.74673850    0.79930760    7.31406930    5471
NiV   55.99472820    0.80062280    5.16024690    5472
NiV   57.24259570    0.80102450    7.31723640    5477
NiV   58.49028780    0.80132080    5.16242360    5478
NiV   59.73798370    0.80132770    7.31797410    5483
NiV   60.98567200    0.80104080    5.16168400    5484
NiV   62.23354340    0.80065980    7.31579300    5489
NiV   63.48151020    0.79937730    5.15851160    5490
NiV   64.73003390    0.79755390    7.31190780    5495
NiV   65.97911840    0.79508550    5.15375280    5496
NiV   67.22947690    0.79261650    7.30616710    5501
NiV   68.48086550    0.78885520    5.14691070    5502
NiV   69.73416900    0.78388480    7.29816910    5507
NiV   70.98997500    0.77741330    5.13759140    5508
NiV   72.24935150    0.76913680    7.28714470    5513
NiV   73.51335910    0.75923990    5.12424610    5514
NiV   74.78379060    0.74642120    7.27083350    5519
NiV   76.06177520    0.73202970    5.10359620    5520
NiV   77.34906010    0.71757590    7.24319320    5525
NiV   78.64488220    0.70588110    5.06584360    5526
Ni    79.94734200    0.70022630    7.19425060    5531
Ni    81.24943540    0.70267920    5.01032300    5532
Ni   110.13014980    4.84531780    8.49632170    5602
Ni     1.85491280    6.85806700    7.06042580    5609
Ni    38.23228460   59.58304980    5.76457980    7808
Ni    39.53486250   59.58525850    7.89143760    7810
NiV   40.83684920   59.57931520    5.70901490    7814
NiV   42.13154600   59.56770330    7.84336760    7816
NiV   43.41755680   59.55388260    5.67244580    7820
NiV   44.69427490   59.54019930    7.81665040    7822
NiV   45.96370700   59.52834320    5.65235140    7826
NiV   47.22695160   59.51937110    7.80069070    7828
NiV   48.48575980   59.51199340    5.63922550    7832
NiV   49.74123000   59.50631330    7.78985220    7834
NiV   50.99424740   59.50207900    5.63012510    7838
NiV   52.24570080   59.49917990    7.78209500    7840
NiV   53.49583820   59.49683380    5.62365300    7844
NiV   54.74500280   59.49478150    7.77678780    7846
NiV   55.99366000   59.49348070    5.61942200    7850
NiV   57.24182890   59.49273300    7.77358820    7852
NiV   58.49006660   59.49285510    5.61709930    7856
NiV   59.73817830   59.49285510    7.77264980    7858
NiV   60.98641600   59.49273300    5.61803630    7862
NiV   62.23458860   59.49348070    7.77497150    7864
NiV   63.48324210   59.49478150    5.62123440    7868
NiV   64.73240660   59.49683380    7.77920110    7870
NiV   65.98254400   59.49917990    5.62654070    7874
NiV   67.23399350   59.50207900    7.78567220    7876
NiV   68.48701480   59.50631330    5.63429640    7880
NiV   69.74247740   59.51198960    7.79477120    7882
NiV   71.00128170   59.51936720    5.64513260    7886
NiV   72.26451880   59.52833560    7.80789380    7888
NiV   73.53394320   59.54019550    5.66108900    7892
NiV   74.81065370   59.55387500    7.82798200    7894
NiV   76.09665680   59.56769560    5.68779710    7898
NiV   77.39134220   59.57931520    7.86454020    7900
Ni    78.69332130   59.58526610    5.73585800    7904
Ni    79.99590300   59.58306890    7.92010020    7906
Ni    38.92549140   61.67014320    6.78696400    8075
Ni    40.11638260   61.66670230    4.68210410    8076
NiV   41.30966570   61.65089040    6.88648080    8081
NiV   42.50738530   61.62801360    4.77315620    8082
NiV   43.71180730   61.60511020    6.96182980    8087
NiV   44.92412200   61.58474350    4.83010960    8088
NiV   46.14269260   61.56883620    7.00131610    8093
NiV   47.36713790   61.55665210    4.85552220    8094
NiV   48.59588240   61.54753880    7.01669310    8099
NiV   49.82801440   61.54074860    4.86413760    8100
NiV   51.06259540   61.53573230    7.02108480    8105
NiV   52.29896170   61.53199770    4.86604020    8106
NiV   53.53668980   61.52911000    7.02157780    8111
NiV   54.77509690   61.52637480    4.86580860    8112
NiV   56.01440430   61.52476500    7.02112290    8117
NiV   57.25411230   61.52379990    4.86541940    8118
NiV   58.49403380   61.52296450    7.02113150    8123
NiV   59.73422630   61.52296450    4.86558060    8124
NiV   60.97414780   61.52379990    7.02097030    8129
NiV   62.21385960   61.52476500    4.86557200    8130
NiV   63.45316320   61.52637480    7.02135990    8135
NiV   64.69157410   61.52911000    4.86602700    8136
NiV   65.92930600   61.53199770    7.02159210    8141
NiV   67.16567230   61.53573230    4.86553580    8142
NiV   68.40025330   61.54074480    7.01969190    8147
NiV   69.63239290   61.54753500    4.86114800    8148
NiV   70.86113740   61.55664830    7.01108310    8153
NiV   72.08558660   61.56882480    4.84578080    8154
NiV   73.30416870   61.58473210    6.98568400    8159
NiV   74.51648710   61.60509490    4.80631210    8160
NiV   75.72091680   61.62799840    6.92875160    8165
NiV   76.91864780   61.65087890    4.73098330    8166
Ni    78.11193090   61.66670230    6.83771280    8171
Ni    79.30281830   61.67015840    4.63146930    8172
Ni    37.69036100  120.55236820    6.15490290   10502
Ni    38.88134380  120.55444340    8.25981140   10504
NiV   40.07427980  120.56937410    6.05464740   10508
NiV   41.27119450  120.59234620    8.16657730   10510
NiV   42.47463990  120.61602790    5.97627080   10514
NiV   43.68589400  120.63754270    8.10644630   10516
NiV   44.90356060  120.65460970    5.93398000   10520
NiV   46.12728120  120.66793060    8.07885740   10522
NiV   47.35547640  120.67801670    5.91704280   10526
NiV   48.58724220  120.68569950    8.06917000   10528
NiV   49.82157900  120.69148260    5.91197260   10532
NiV   51.05783080  120.69579320    8.06692310   10534
NiV   52.29544830  120.69907380    5.91128840   10538
NiV   53.53411870  120.70171360    8.06711580   10540
NiV   54.77322390  120.70432280    5.91181520   10544
NiV   56.01317220  120.70580290    8.06758500   10546
NiV   57.25328450  120.70718390    5.91194060   10550
NiV   58.49386220  120.70793920    8.06732080   10552
NiV   59.73451620  120.70794680    5.91176620   10556
NiV   60.97509780  120.70721440    8.06748100   10558
NiV   62.21523670  120.70585630    5.91202120   10562
NiV   63.45517350  120.70439150    8.06734180   10564
NiV   64.69438940  120.70199590    5.91153380   10568
NiV   65.93295300  120.69909670    8.06680490   10570
NiV   67.17060090  120.69579320    5.91134500   10574
NiV   68.40682220  120.69145970    8.06750200   10576
NiV   69.64116670  120.68568420    5.91360340   10580
NiV   70.87292480  120.67802430    8.07257270   10582
NiV   72.10112760  120.66795350    5.92327400   10586
NiV   73.32485960  120.65464790    8.08948330   10588
NiV   74.54254150  120.63759620    5.95082760   10592
NiV   75.75380710  120.61608890    8.13172820   10594
NiV   76.95727540  120.59241490    6.01090860   10598
NiV   78.15420530  120.56942750    8.21005920   10600
Ni    79.34714510  120.55447390    6.10411360   10604
Ni    80.53813170  120.55236820    8.31031510   10606
         292
Lattice=" 110.7612   0.0000   0.0000   0.0000 121.9364   0.0000   0.0000   0.0000   8.6222 " Time=2.778E+02  Step=0.5
Ni     0.47477280    4.78624399    2.12296227       3
Ni     1.76892413    2.68668149    1.37960236       4
Ni     1.84928151    4.82943862    4.17650731       5
Ni     3.08094839    2.83340529    3.45408221       8
Ni     2.48205531    4.84474748    0.95298189       9
Ni     4.29930991    2.89184549    1.31678607      10
Ni     4.32980046    4.85138253    4.13599140      11
Ni     5.58680691    4.86465209    1.99416982      15
Ni    36.97882178    0.70267084    2.85479174      90
Ni    38.28089573    0.70020132    0.72761410      91
NiV   39.58335144    0.70584009    2.91031466      96
NiV   40.87919055    0.71752452    0.77657544      97
NiV   42.16649581    0.73197901    2.94809363     102
NiV   43.44450606    0.74637369    0.80423730     103
NiV   44.71494843    0.75920184    2.96875736     108
NiV   45.97897276    0.76911191    0.82055778     109
NiV   47.23835966    0.77740006    2.98210916     114
NiV   48.49416738    0.78389001    0.83158828     115
NiV   49.74749283    0.78890178    2.99143495     120
NiV   50.99886313    0.79265928    0.83956636     121
NiV   52.24921850    0.79507853    2.99829854     126
NiV   53.49830303    0.79745846    0.84531594     127
NiV   54.74680530    0.79929222    3.00305588     132
NiV   55.99479499    0.80060734    0.84923405     133
NiV   57.24266106    0.80100887    3.00622380     138
NiV   58.49035562    0.80130501    0.85141174     139
NiV   59.73805003    0.80131180    3.00696243     144
NiV   60.98574058    0.80102483    0.85067283     145
NiV   62.23361044    0.80064389    3.00478198     150
NiV   63.48157832    0.79936144    0.84750065     151
NiV   64.73010423    0.79753814    3.00089689     156
NiV   65.97918284    0.79506987    0.84274244     157
NiV   67.22954233    0.79260106    2.99515656     162
NiV   68.48093543    0.78883994    0.83590028     163
NiV   69.73423788    0.78386970    2.98715883     168
NiV   70.99004376    0.77739846    0.82658112     169
NiV   72.24941703    0.76912213    2.97613484     174
NiV   73.51342833    0.75922541    0.81323603     175
NiV   74.78385283    0.74640689    2.95982342     180
NiV   76.06184136    0.73201543    0.79258617     181
NiV   77.34912621    0.71756159    2.93218326     186
NiV   78.64494902    0.70586625    0.75483339     187
Ni    79.94740237    0.70021070    2.88324043     192
Ni    81.24948778    0.70266230    0.69931223     193
Ni     1.88583872    6.79713624    2.69584794     270
Ni     3.19934838    7.00147214    0.52234648     271
Ni     4.34965604    6.85962796    2.69059236     276
Ni    38.23235794   59.58303525    1.45356418    2469
Ni    39.53493516   59.58524192    3.58042218    2471
NiV   40.83692114   59.57929854    1.39799967    2475
NiV   42.13161646   59.56768524    3.53235277    2477
NiV   43.41762648   59.55386674    1.36143113    2481
NiV   44.69434485   59.54018403    3.50563647    2483
NiV   45.96377649   59.52832586    1.34133746    2487
NiV   47.22701963   59.51935303    3.48967679    2489
NiV   48.48582723   59.51197595    1.32821230    2493
NiV   49.74129640   59.50629892    3.47883889    2495
NiV   50.99431387   59.50206371    1.31911205    2499
NiV   52.24576872   59.49916376    3.47108222    2501
NiV   53.49590620   59.49681687    1.31264028    2505
NiV   54.74507145   59.49476583    3.46577538    2507
NiV   55.99372755   59.49346419    1.30840988    2511
NiV   57.24189786   59.49271836    3.46257631    2513
NiV   58.49013550   59.49284022    1.30608758    2517
NiV   59.73824608   59.49284062    3.46163830    2519
NiV   60.98648374   59.49271868    1.30702492    2523
NiV   62.23465377   59.49346460    3.46396029    2525
NiV   63.48330930   59.49476639    1.31022350    2529
NiV   64.73247409   59.49681753    3.46819007    2531
NiV   65.98260978   59.49916601    1.31552954    2535
NiV   67.23406385   59.50206467    3.47466082    2537
NiV   68.48707912   59.50629924    1.32328508    2541
NiV   69.74254554   59.51197529    3.48375959    2543
NiV   71.00134921   59.51935114    1.33412101    2547
NiV   72.26458702   59.52832238    3.49688211    2549
NiV   73.53401186   59.54017911    1.35007684    2553
NiV   74.81072170   59.55386190    3.51696996    2555
NiV   76.09672297   59.56768187    1.37678473    2559
NiV   77.39140997   59.57930018    3.55352809    2561
Ni    78.69339366   59.58525224    1.42484575    2565
Ni    79.99597099   59.58305245    3.60908747    2567
Ni    38.92555731   61.67012654    2.47595383    2736
Ni    40.11644558   61.66668648    0.37109390    2737
NiV   41.30973048   61.65087287    2.57547055    2742
NiV   42.50744977   61.62799794    0.46214521    2743
NiV   43.71187341   61.60509180    2.65081825    2748
NiV   44.92418932   61.58472542    0.51909749    2749
NiV   46.14275770   61.56881869    2.69030387    2754
NiV   47.36720441   61.55663582    0.54450968    2755
NiV   48.59594892   61.54752250    2.70568065    2760
NiV   49.82808315   61.54073188    0.55312498    2761
NiV   51.06266243   61.53571482    2.71007237    2766
NiV   52.29902828   61.53198100    0.55502767    2767
NiV   53.53675534   61.52909438    2.71056547    2772
NiV   54.77516520   61.52636017    0.55479655    2773
NiV   56.01447077   61.52474750    2.71011118    2778
NiV   57.25418023   61.52378504    0.55440800    2779
NiV   58.49410114   61.52294773    2.71012002    2784
NiV   59.73429405   61.52294747    0.55456936    2785
NiV   60.97421515   61.52378521    2.70995960    2790
NiV   62.21392481   61.52474760    0.55456114    2791
NiV   63.45323129   61.52635988    2.71034897    2796
NiV   64.69164181   61.52909480    0.55501611    2797
NiV   65.92937005   61.53198181    2.71058106    2802
NiV   67.16573763   61.53571525    0.55452454    2803
NiV   68.40031905   61.54073134    2.70868051    2808
NiV   69.63245634   61.54752049    0.55013648    2809
NiV   70.86120485   61.55663174    2.70007093    2814
NiV   72.08565676   61.56881179    0.53476823    2815
NiV   73.30423133   61.58471547    2.67467092    2820
NiV   74.51655463   61.60507893    0.49529875    2821
NiV   75.72098488   61.62798506    2.61773744    2826
NiV   76.91871004   61.65086372    0.41996886    2827
Ni    78.11199782   61.66668824    2.52669818    2832
Ni    79.30288578   61.67014260    0.32045412    2833
Ni    37.69042874  120.55235590    1.84389197    5163
Ni    38.88141396  120.55443070    3.94880017    5165
NiV   40.07434773  120.56935777    1.74363587    5169
NiV   41.27126162  120.59232974    3.85556558    5171
NiV   42.47471044  120.61600895    1.66525815    5175
NiV   43.68596138  120.63753016    3.79543347    5177
NiV   44.90362689  120.65459141    1.62296649    5181
NiV   46.12734928  120.66791542    3.76784315    5183
NiV   47.35554262  120.67799937    1.60602853    5187
NiV   48.58730902  120.68568059    3.75815558    5189
NiV   49.82164570  120.69146649    1.60095859    5193
NiV   51.05789644  120.69577866    3.75590947    5195
NiV   52.29551450  120.69905670    1.60027446    5199
NiV   53.53418682  120.70169944    3.75610228    5201
NiV   54.77328964  120.70430950    1.60080218    5205
NiV   56.01323761  120.70578852    3.75657282    5207
NiV   57.25335091  120.70717048    1.60092846    5211
NiV   58.49393029  120.70792162    3.75630851    5213
NiV   59.73458342  120.70792976    1.60075442    5217
NiV   60.97516471  120.70719898    3.75646994    5219
NiV   62.21530541  120.70583784    1.60101040    5223
NiV   63.45524223  120.70437810    3.75633072    5225
NiV   64.69445873  120.70197829    1.60052306    5229
NiV   65.93301870  120.69908259    3.75579403    5231
NiV   67.17066461  120.69578063    1.60033469    5235
NiV   68.40688806  120.69144159    3.75649209    5237
NiV   69.64123317  120.68566551    1.60259313    5241
NiV   70.87299139  120.67800643    3.76156258    5243
NiV   72.10119418  120.66793738    1.61226370    5247
NiV   73.32492584  120.65463010    3.77847304    5249
NiV   74.54260770  120.63758298    1.63981645    5253
NiV   75.75387707  120.61607481    3.82071704    5255
NiV   76.95734292  120.59239987    1.69989701    5259
NiV   78.15427042  120.56941720    3.89904749    5261
Ni    79.34720824  120.55446208    1.79310149    5265
Ni    80.53818917  120.55235155    3.99930273    5267
Ni     4.48981549    4.90545798    8.40589777    5350
Ni    36.97882184    0.70267083    7.16589385    5429
Ni    38.28089590    0.70020124    5.03871605    5430
NiV   39.58335146    0.70584008    7.22141665    5435
NiV   40.87919058    0.71752450    5.08767739    5436
NiV   42.16649581    0.73197900    7.25919559    5441
NiV   43.44450607    0.74637369    5.11533925    5442
NiV   44.71494844    0.75920185    7.27985931    5447
NiV   45.97897276    0.76911191    5.13165973    5448
NiV   47.23835966    0.77740006    7.29321111    5453
NiV   48.49416738    0.78389001    5.14269022    5454
NiV   49.74749283    0.78890178    7.30253690    5459
NiV   50.99886313    0.79265928    5.15066831    5460
NiV   52.24921850    0.79507853    7.30940049    5465
NiV   53.49830303    0.79745846    5.15641789    5466
NiV   54.74680530    0.79929222    7.31415783    5471
NiV   55.99479499    0.80060734    5.16033600    5472
NiV   57.24266106    0.80100887    7.31732575    5477
NiV   58.49035562    0.80130500    5.16251369    5478
NiV   59.73805003    0.80131180    7.31806438    5483
NiV   60.98574057    0.80102483    5.16177478    5484
NiV   62.23361044    0.80064390    7.31588393    5489
NiV   63.48157832    0.79936144    5.15860260    5490
NiV   64.73010423    0.79753814    7.31199884    5495
NiV   65.97918284    0.79506987    5.15384439    5496
NiV   67.22954233    0.79260106    7.30625851    5501
NiV   68.48093543    0.78883994    5.14700223    5502
NiV   69.73423788    0.78386971    7.29826078    5507
NiV   70.99004375    0.77739846    5.13768307    5508
NiV   72.24941703    0.76912213    7.28723678    5513
NiV   73.51342833    0.75922543    5.12433798    5514
NiV   74.78385283    0.74640691    7.27092535    5519
NiV   76.06184139    0.73201550    5.10368812    5520
NiV   77.34912621    0.71756162    7.24328513    5525
NiV   78.64494924    0.70586644    5.06593532    5526
Ni    79.94740239    0.70021067    7.19434208    5531
Ni    81.24948888    0.70266268    5.01041402    5532
Ni    38.23235794   59.58303525    5.76466613    7808
Ni    39.53493516   59.58524192    7.89152413    7810
NiV   40.83692114   59.57929854    5.70910162    7814
NiV   42.13161646   59.56768524    7.84345472    7816
NiV   43.41762648   59.55386674    5.67253307    7820
NiV   44.69434485   59.54018403    7.81673842    7822
NiV   45.96377649   59.52832586    5.65243941    7826
NiV   47.22701963   59.51935303    7.80077874    7828
NiV   48.48582723   59.51197595    5.63931425    7832
NiV   49.74129640   59.50629891    7.78994084    7834
NiV   50.99431387   59.50206371    5.63021400    7838
NiV   52.24576872   59.49916376    7.78218417    7840
NiV   53.49590619   59.49681687    5.62374223    7844
NiV   54.74507145   59.49476583    7.77687733    7846
NiV   55.99372756   59.49346419    5.61951183    7850
NiV   57.24189786   59.49271836    7.77367826    7852
NiV   58.49013550   59.49284022    5.61718953    7856
NiV   59.73824608   59.49284062    7.77274025    7858
NiV   60.98648374   59.49271868    5.61812687    7862
NiV   62.23465376   59.49346460    7.77506224    7864
NiV   63.48330930   59.49476638    5.62132545    7868
NiV   64.73247409   59.49681752    7.77929202    7870
NiV   65.98260978   59.49916601    5.62663149    7874
NiV   67.23406385   59.50206467    7.78576277    7876
NiV   68.48707912   59.50629924    5.63438703    7880
NiV   69.74254554   59.51197530    7.79486154    7882
NiV   71.00134921   59.51935114    5.64522297    7886
NiV   72.26458702   59.52832237    7.80798406    7888
NiV   73.53401186   59.54017911    5.66117879    7892
NiV   74.81072170   59.55386190    7.82807191    7894
NiV   76.09672297   59.56768187    5.68788669    7898
NiV   77.39140996   59.57930017    7.86463004    7900
Ni    78.69339366   59.58525224    5.73594770    7904
Ni    79.99597099   59.58305245    7.92018942    7906
Ni    38.92555730   61.67012654    6.78705578    8075
Ni    40.11644559   61.66668648    4.68219585    8076
NiV   41.30973049   61.65087287    6.88657250    8081
NiV   42.50744976   61.62799794    4.77324717    8082
NiV   43.71187340   61.60509180    6.96192020    8087
NiV   44.92418932   61.58472542    4.83019944    8088
NiV   46.14275771   61.56881869    7.00140582    8093
NiV   47.36720440   61.55663582    4.85561163    8094
NiV   48.59594892   61.54752250    7.01678259    8099
NiV   49.82808315   61.54073188    4.86422693    8100
NiV   51.06266243   61.53571482    7.02117432    8105
NiV   52.29902828   61.53198100    4.86612962    8106
NiV   53.53675534   61.52909438    7.02166742    8111
NiV   54.77516520   61.52636017    4.86589850    8112
NiV   56.01447077   61.52474750    7.02121313    8117
NiV   57.25418023   61.52378504    4.86550995    8118
NiV   58.49410114   61.52294773    7.02122197    8123
NiV   59.73429405   61.52294747    4.86567131    8124
NiV   60.97421515   61.52378521    7.02106155    8129
NiV   62.21392481   61.52474760    4.86566309    8130
NiV   63.45323130   61.52635988    7.02145092    8135
NiV   64.69164181   61.52909480    4.86611806    8136
NiV   65.92937005   61.53198181    7.02168301    8141
NiV   67.16573762   61.53571525    4.86562648    8142
NiV   68.40031905   61.54073134    7.01978246    8147
NiV   69.63245634   61.54752049    4.86123843    8148
NiV   70.86120484   61.55663174    7.01117287    8153
NiV   72.08565676   61.56881179    4.84587018    8154
NiV   73.30423133   61.58471548    6.98577287    8159
NiV   74.51655462   61.60507893    4.80640070    8160
NiV   75.72098487   61.62798505    6.92883939    8165
NiV   76.91871005   61.65086371    4.73107081    8166
Ni    78.11199782   61.66668825    6.83780012    8171
Ni    79.30288576   61.67014260    4.63155607    8172
Ni    37.69042850  120.55235592    6.15499402   10502
Ni    38.88141363  120.55443070    8.25990212   10504