       10679
Lattice=" 110.7612   0.0000   0.0000   0.0000 121.9364   0.0000   0.0000   0.0000   8.6222 " Time=0.000E+00  Step=0  Energy=-47497.545  Barrier=0.000
Ni     0.61825480    0.79382490    0.60067510       1
Ni     0.61219060    2.81864500    3.46683220       2
Ni     0.61590520    4.84464840    2.01654030       3
Ni     1.86090440    2.83185060    1.30688200       4
Ni     1.85768600    4.84538900    4.18552830       5
Ni     1.86406720    0.79314430    2.75265980       6
Ni     3.10994080    0.79340020    0.60089660       7
Ni     3.10926720    2.81855920    3.46708060       8
Ni     3.09979890    4.84449480    2.01726580       9
Ni     4.36459110    2.81192730    1.32106460      10
Ni     4.35164690    4.84530400    4.18577190      11
Ni     4.35739800    0.78591690    2.75789930      12
Ni     5.60400870    0.78590930    0.60202420      13
Ni     5.60556510    2.81716420    3.47636650      14
Ni     5.60402630    4.84406140    2.03014490      15
Ni     6.85540540    2.81671000    1.31901420      16
Ni     6.85631140    4.84512000    4.18557070      17
Ni     6.84862180    0.78730800    2.75868130      18
Ni     8.09562870    0.78669370    0.60292080      19
Ni     8.10229590    2.81712250    3.47491460      20
Ni     8.10739710    4.84488880    2.02968980      21
Ni     9.35150150    2.81674170    1.31878850      22
Ni     9.35905650    4.84488680    4.18529130      23
Ni     9.34126380    0.78703000    2.75864720      24
Ni    10.58807760    0.78664840    0.60276530      25
Ni    10.59999560    2.81668740    3.47424340      26
Ni    10.61014750    4.84468040    2.02949880      27
Ni    11.84918320    2.81638770    1.31835310      28
Ni    11.86167620    4.84443200    4.18491170      29
Ni    11.83439350    0.78658790    2.75818420      30
Ni    13.08122730    0.78624610    0.60232800      31
Ni    13.09835240    2.81611850    3.47373960      32
Ni    13.11306480    4.84408280    2.02911500      33
Ni    14.34784410    2.81571890    1.31796420      34
Ni    14.36483000    4.84361800    4.18445680      35
Ni    14.32797150    0.78595030    2.75765870      36
Ni    15.57500460    0.78549070    0.60185270      37
Ni    15.59754850    2.81523160    3.47337730      38
Ni    15.61672400    4.84301720    2.02865930      39
Ni    16.84756480    2.81459190    1.31770580      40
Ni    16.86901660    4.84223940    4.18399140      41
Ni    16.82214360    0.78494260    2.75721810      42
Ni    18.06955150    0.78421830    0.60152650      43
Ni    18.09793280    2.81377790    3.47321890      44
Ni    18.12163160    4.84124960    2.02822950      45
Ni    19.34872440    2.81273610    1.31770450      46
Ni    19.37473110    4.83999440    4.18361570      47
Ni    19.31720730    0.78330770    2.75704310      48
Ni    20.56522370    0.78214870    0.60158550      49
Ni    20.60002710    2.81141550    3.47341110      50
Ni    20.62833220    4.83841560    2.02795390      51
Ni    21.85194020    2.80974650    1.31815670      52
Ni    21.88256260    4.83643920    4.18348270      53
Ni    21.81367110    0.78069370    2.75742100      54
Ni    23.06269070    0.77887000    0.60240710      55
Ni    23.10459140    2.80764820    3.47419380      56
Ni    23.13748930    4.83397630    2.02802800      57
Ni    24.35813330    2.80501540    1.31936630      58
Ni    24.39323620    4.83091980    4.18384410      59
Ni    24.31245040    0.77659750    2.75884390      60
Ni    25.56320000    0.77376840    0.60464940      61
Ni    25.61275100    2.80171870    3.47594910      62
Ni    25.64991190    4.82713750    2.02878980      63
Ni    26.86867720    2.79758980    1.32182680      64
Ni    26.90764240    4.82247550    4.18516590      65
Ni    26.81526760    0.77025180    2.76220060      66
Ni    28.06913570    0.76586460    0.60952850      67
Ni    28.12617680    2.79242280    3.47933340      68
Ni    28.16654210    4.81675480    2.03090260      69
Ni    29.38557630    2.78595620    1.32644590      70
Ni    29.42671400    4.80979920    4.18840120      71
Ni    29.32543950    0.76038640    2.76916910      72
Ni    30.58509830    0.75350630    0.61937220      73
Ni    30.64721490    2.77793100    3.48564250      74
Ni    30.68822290    4.80146220    2.03572060      75
Ni    31.91147240    2.76812060    1.33509460      76
Ni    31.95104220    4.79175670    4.19540310      77
Ni    31.84924140    0.74496490    2.78296930      78
Ni    33.11938860    0.73453570    0.63856610      79
Ni    33.17860410    2.75662620    3.49752550      80
Ni    33.21507650    4.78096630    2.04558680      81
Ni    34.44879150    2.74410040    1.35126070      82
Ni    34.48008730    4.76988560    4.20872740      83
Ni    34.39703370    0.72275020    2.80934650      84
Ni    35.68354800    0.71110930    0.67400280      85
Ni    35.72188950    2.73218680    3.51890330      86
Ni    35.74588780    4.75979240    2.06260470      87
Ni    36.99774180    2.72319080    1.37814320      88
Ni    37.01224520    4.75251340    4.22911740      89
Ni    36.97875600    0.70268660    2.85470460      90
Ni    38.28083040    0.70021730    0.72752690      91
Ni    38.27561950    2.71996450    3.55059650      92
Ni    38.27918240    4.74970150    2.08544780      93
Ni    39.55477140    2.72384740    1.41268150      94
Ni    39.54668810    4.75256730    4.25324680      95
NiV   39.58328630    0.70585630    2.91022760      96
NiV   40.87912380    0.71754080    0.77648820      97
Ni    40.83352660    2.73482900    3.58567570      98
Ni    40.81489180    4.76064780    2.10987260      99
Ni    42.11033630    2.74936080    1.44638550     100
Ni    42.08359910    4.77244760    4.27755020     101
NiV   42.16643140    0.73199530    2.94800640     102
NiV   43.44443900    0.74638980    0.80415000     103
Ni    43.38418580    2.76468230    3.61671520     104
Ni    43.35223770    4.78566980    2.13396100     105
Ni    44.65454490    2.77828310    1.47442810     106
Ni    44.62015150    4.79873990    4.30119940     107
NiV   44.71488190    0.75921780    2.96867020     108
NiV   45.97890480    0.76912760    0.82047050     109
Ni    45.92161180    2.79032520    3.64145970     110
Ni    45.88679900    4.81059120    2.15661120     111
Ni    47.18546680    2.80006360    1.49560060     112
Ni    47.15202710    4.82093480    4.32224230     113
NiV   47.23829270    0.77741550    2.98202180     114
NiV   48.49410250    0.78390530    0.83150090     115
Ni    48.44678120    2.80794550    3.65933950     116
Ni    48.41566470    4.82949350    2.17569380     117
Ni    49.70590980    2.81408600    1.51066400     118
Ni    49.67784500    4.83643630    4.33915900     119
NiV   49.74742510    0.78891700    2.99134740     120
NiV   50.99879460    0.79267440    0.83947860     121
Ni    50.96333320    2.81869320    3.67199110     122
Ni    50.93871320    4.84180500    2.19045090     123
Ni    52.21950530    2.82178810    1.52131070     124
Ni    52.19833370    4.84601640    4.35185820     125
NiV   52.24915310    0.79509370    2.99821040     126
NiV   53.49823760    0.79747380    0.84522760     127
Ni    53.47429280    2.82458980    3.68075610     128
Ni    53.45695880    4.84926560    2.20104790     129
Ni    54.72835160    2.82667310    1.52836640     130
Ni    54.71488190    4.85166040    4.36036300     131
NiV   54.74673850    0.79930760    3.00296710     132
NiV   55.99472820    0.80062280    0.84914500     133
Ni    55.98187640    2.82777720    3.68650060     134
Ni    55.97222900    4.85325960    2.20771150     135
Ni    57.23496250    2.82836990    1.53282450     136
Ni    57.22913740    4.85419280    4.36523820     137
NiV   57.24259570    0.80102450    3.00613430     138
NiV   58.49028780    0.80132080    0.85132200     139
Ni    58.48774720    2.82867480    3.68928670     140
Ni    58.48580550    4.85464380    2.21067880     141
Ni    59.74046710    2.82868050    1.53373600     142
Ni    59.74238970    4.85464820    4.36623000     143
NiV   59.73798370    0.80132770    3.00687220     144
NiV   60.98567200    0.80104080    0.85058240     145
Ni    60.99324800    2.82838510    3.68837690     146
Ni    60.99905780    4.85420700    2.20968840     147
Ni    62.24632260    2.82780720    1.53095060     148
Ni    62.25596620    4.85328060    4.36326310     149
NiV   62.23354340    0.80065980    3.00469110     150
NiV   63.48151020    0.79937730    0.84740960     151
Ni    63.49984740    2.82671670    3.68391280     152
Ni    63.51331710    4.85167940    2.20481130     153
Ni    64.75388340    2.82460170    1.52520150     154
Ni    64.77124030    4.84927080    4.35660600     155
NiV   64.73003390    0.79755390    3.00080560     156
NiV   65.97911840    0.79508550    0.84265100     157
Ni    66.00868990    2.82178000    3.67687990     158
Ni    66.02987670    4.84596060    2.19632320     159
Ni    67.26474000    2.81843140    1.51647830     160
Ni    67.28948210    4.84172780    4.34605700     161
NiV   67.22947690    0.79261650    2.99506500     162
NiV   68.48086550    0.78885520    0.83580860     163
Ni    68.52227790    2.81403160    3.66625170     164
Ni    68.55030830    4.83633040    2.18362640     165
Ni    69.78139500    2.80790950    1.50381110     166
Ni    69.81252290    4.82945870    4.33125970     167
NiV   69.73416900    0.78388480    2.98706700     168
NiV   70.98997500    0.77741330    0.82648920     169
Ni    71.04273990    2.80005410    3.65117340     170
Ni    71.07615660    4.82091290    2.16670200     171
Ni    72.30659490    2.79033230    1.48593230     172
Ni    72.34140020    4.81058980    4.31217340     173
NiV   72.24935150    0.76913680    2.97604280     174
NiV   73.51335910    0.75923990    0.81314400     175
Ni    73.57366180    2.77830320    3.63000470     176
Ni    73.60805510    4.79874950    2.14566040     177
Ni    74.84402480    2.76471090    1.46119360     178
Ni    74.87596900    4.78568700    4.28952410     179
NiV   74.78379060    0.74642120    2.95973140     180
NiV   76.06177520    0.73202970    0.79249410     181
Ni    76.11787420    2.74939300    3.60196950     182
Ni    76.14461520    4.77246620    2.12201120     183
Ni    77.39468390    2.73485710    1.43015980     184
Ni    77.41333770    4.76066260    4.26543480     185
NiV   77.34906010    0.71757590    2.93209120     186
NiV   78.64488220    0.70588110    0.75474150     187
Ni    78.67344670    2.72386310    3.56826780     188
Ni    78.68154910    4.75257260    2.09770610     189
Ni    79.95260620    2.71996480    1.39507880     190
Ni    79.94905860    4.74969480    4.24100730     191
Ni    79.94734200    0.70022630    2.88314880     192
Ni    81.24943540    0.70267920    0.69922110     193
Ni    81.23049930    2.72317560    3.53372240     194
Ni    81.21601110    4.75249530    2.07357190     195
Ni    82.50636290    2.73216270    1.36337320     196
Ni    82.48237610    4.75976660    4.21815640     197
Ni    82.54467010    0.71109210    2.82960970     198
Ni    83.83121490    0.72273230    0.65383750     199
Ni    83.77947240    2.74407480    3.50682450     200
Ni    83.74818420    4.76985740    2.05317090     201
Ni    85.04967500    2.75660450    1.34197960     202
Ni    85.01320650    4.78094010    4.20112560     203
Ni    85.10888670    0.73452390    2.79414730     204
Ni    86.37905890    0.74496160    0.62743920     205
Ni    86.31682590    2.76810620    3.49064450     206
Ni    86.27725220    4.79173420    2.03983330     207
Ni    87.58110050    2.77792480    1.33008560     208
Ni    87.54008490    4.80144600    4.19124700     209
Ni    87.64322660    0.75351250    2.77493810     210
Ni    88.90290080    0.76040160    0.61362870     211
Ni    88.84275060    2.78595860    3.48198820     212
Ni    88.80160520    4.80978920    2.03281970     213
Ni    90.10216520    2.79243300    1.32377100     214
Ni    90.06179050    4.81675100    4.18641900     215
Ni    90.15921780    0.76588900    2.76508880     216
Ni    91.41310120    0.77028500    0.60665790     217
Ni    91.35968020    2.79760820    3.47736620     218
Ni    91.32070920    4.82247740    2.02957490     219
Ni    92.61562350    2.80174470    1.32038520     220
Ni    92.57845310    4.82714460    4.18429710     221
Ni    92.66518400    0.77381200    2.76021150     222
Ni    93.91593940    0.77665060    0.60330510     223
Ni    93.87026220    2.80505020    3.47490790     224
Ni    93.83515930    4.83093170    2.02824260     225
Ni    95.12382510    2.80769160    1.31863310     226
Ni    95.09091950    4.83399350    4.18352560     227
Ni    95.16571810    0.77893770    2.75797820     228
Ni    96.41474150    0.78077130    0.60189080     229
Ni    96.37649540    2.80980230    3.47370870     230
Ni    96.34589390    4.83646110    2.02786830     231
Ni    97.62843330    2.81148170    1.31786010     232
Ni    97.60012820    4.83844280    4.18344070     233
Ni    97.66322330    0.78225110    2.75717430     234
Ni    98.91121680    0.78341490    0.60152430     235
Ni    98.87975320    2.81282310    3.47328240     236
Ni    98.85382080    4.84002740    2.02798180     237
Ni   100.13056180    2.81387550    1.31768930     238
Ni   100.10691830    4.84128760    4.18370250     239
Ni   100.15892790    0.78437720    2.75714450     240
Ni   101.40623480    0.78507600    0.60170150     241
Ni   101.38096620    2.81473310    3.47334530     242
Ni   101.35971830    4.84228480    2.02832290     243
Ni   102.63091280    2.81536530    1.31788410     244
Ni   102.61197660    4.84306860    4.18411490     245
Ni   102.65351870    0.78574780    2.75751070     246
Ni   103.90020760    0.78606330    0.60208670     247
Ni   103.88072980    2.81596110    3.47374630     248
Ni   103.86425020    4.84366320    2.02872010     249
Ni   105.12976840    2.81624680    1.31828700     250
Ni   105.11594390    4.84415540    4.18454930     251
Ni   105.14732360    0.78666040    2.75801140     252
Ni   106.39320370    0.78648210    0.60234550     253
Ni   106.37939450    2.81681640    3.47445060     254
Ni   106.36812590    4.84438800    2.02899670     255
Ni   107.62667090    2.81657270    1.31858760     256
Ni   107.61959080    4.84479620    4.18491890     257
Ni   107.64040380    0.78723230    2.75819300     258
Ni   108.88516240    0.78594130    0.60163410     259
Ni   108.87673200    2.81711870    3.47603060     260
Ni   108.87223820    4.84393880    2.02954480     261
Ni   110.11798100    2.81206940    1.32082250     262
Ni   110.12477880    4.84523500    4.18505000     263
Ni   110.13186650    0.78598540    2.75755840     264
Ni     0.61242530    6.85503960    0.57852030     265
Ni     0.59910220    8.89743240    3.44721870     266
Ni     0.59698790   10.91867540    1.99208180     267
Ni     1.85293160    8.89019400    1.28961760     268
Ni     1.85113060   10.92046260    4.14968680     269
Ni     1.85503660    6.87579680    2.74972350     270
Ni     3.09670520    6.85370220    0.57837490     271
Ni     3.10667060    8.89750680    3.44754440     272
Ni     3.10524960   10.91871740    1.99237420     273
Ni     4.35542300    8.89032760    1.28715950     274
Ni     4.36078030   10.92255500    4.14771460     275
Ni     4.35431430    6.86926600    2.73770410     276
Ni     5.60696220    6.87001420    0.58203640     277
Ni     5.61191180    8.89645780    3.44242860     278
Ni     5.61367470   10.91968740    1.99052640     279
Ni     6.86543560    8.89643100    1.28724780     280
Ni     6.86949440   10.92162140    4.14611670     281
Ni     6.86097340    6.87099220    2.73658780     282
Ni     8.11365800    6.87135040    0.58168850     283
Ni     8.11960980    8.89678580    3.44243550     284
Ni     8.12437340   10.92153260    1.99031760     285
Ni     9.37381080    8.89696500    1.28682230     286
Ni     9.37958050   10.92156800    4.14535140     287
Ni     9.36680510    6.87133880    2.73695760     288
Ni    10.61961650    6.87126680    0.58142890     289
Ni    10.62794020    8.89671800    3.44192460     290
Ni    10.63491440   10.92146020    1.98946200     291
Ni    11.88233180    8.89648060    1.28607730     292
Ni    11.89022920   10.92101760    4.14443830     293
Ni    11.87275220    6.87097360    2.73668220     294
Ni    13.12587640    6.87058640    0.58090250     295
Ni    13.13678460    8.89595800    3.44114330     296
Ni    13.14582920   10.92054280    1.98838000     297
Ni    14.39150910    8.89534280    1.28513220     298
Ni    14.40150070   10.91979120    4.14330290     299
Ni    14.37931540    6.87002760    2.73609070     300
Ni    15.63293650    6.86930860    0.58018110     301
Ni    15.64643580    8.89449500    3.44013240     302
Ni    15.65745260   10.91890720    1.98713720     303
Ni    16.90166280    8.89345080    1.28402740     304
Ni    16.91358380   10.91776480    4.14202880     305
Ni    16.88691520    6.86838160    2.73531820     306
Ni    18.14122010    6.86721280    0.57935790     307
Ni    18.15719220    8.89213860    3.43899510     308
Ni    18.16999440   10.91638860    1.98584080     309
Ni    19.41307640    8.89052960    1.28288280     310
Ni    19.42665290   10.91470620    4.14078190     311
Ni    19.39596180    6.86575080    2.73449780     312
Ni    20.65116120    6.86393640    0.57857500     313
Ni    20.66933630    8.88856040    3.43791150     314
Ni    20.68360330   10.91269120    1.98470300     315
Ni    21.92601020    8.88617420    1.28193090     316
Ni    21.94083400   10.91028120    4.13985110     317
Ni    21.90689660    6.86169920    2.73381710     318
Ni    23.16321560    6.85895500    0.57807150     319
Ni    23.18311690    8.88329800    3.43719720     320
Ni    23.19835660   10.90742880    1.98409200     321
Ni    24.44067580    8.87985720    1.28158670     322
Ni    24.45615770   10.90407480    4.13970660     323
Ni    24.42017940    6.85560760    2.73359990     324
Ni    25.67783550    6.85154820    0.57828650     325
Ni    25.69868470    8.87576960    3.43739890     326
Ni    25.71422200   10.90016660    1.98458720     327
Ni    26.95713420    8.87096220    1.28255500     328
Ni    26.97251140   10.89566240    4.14104460     329
Ni    26.93622020    6.84665780    2.73445010     330
Ni    28.19534870    6.84082280    0.58004450     331
Ni    28.21598630    8.86537360    3.43940450     332
Ni    28.23098180   10.89054400    1.98699160     333
Ni    29.47517970    8.85898880    1.28590750     334
Ni    29.48957260   10.88483140    4.14473960     335
Ni    29.45520020    6.83395290    2.73747070     336
Ni    30.71570210    6.82603890    0.58475910     337
Ni    30.73462490    8.85186480    3.44442420     338
Ni    30.74821280   10.87861820    1.99216960     339
Ni    31.99420940    8.84419160    1.29286780     340
Ni    32.00683210   10.87209520    4.15151360     341
Ni    31.97674180    6.81721120    2.74434350     342
Ni    33.23814390    6.80785280    0.59418870     343
Ni    33.25382620    8.83632570    3.45346600     344
Ni    33.26536180   10.86558720    2.00051760     345
Ni    34.51337820    8.82885170    1.30390800     346
Ni    34.52376940   10.85955720    4.16123250     347
Ni    34.49975210    6.79864220    2.75650690     348
Ni    35.76142120    6.79062510    0.60890020     349
Ni    35.77283100    8.82253460    3.46613550     350
Ni    35.78205870   10.85459040    2.01121040     351
Ni    37.03222270    8.81824500    1.31757990     352
Ni    37.04029460   10.85128880    4.17235380     353
Ni    37.02314380    6.78499840    2.77315380     354
Ni    38.28500370    6.78293470    0.62658450     355
Ni    38.29169850    8.81670380    3.48005700     356
Ni    38.29860310   10.85014920    2.02218150     357
Ni    39.55146790    8.81829260    1.33110510     358
Ni    39.55715940   10.85139860    4.18271640     359
Ni    39.54726410    6.78499560    2.79097540     360
Ni    40.81017690    6.79101610    0.64401520     361
Ni    40.81176380    8.82284640    3.49286750     362
Ni    40.81614310   10.85493480    2.03172870     363
Ni    42.07275010    8.82977870    1.34328940     364
Ni    42.07569890   10.86034780    4.19152740     365
Ni    42.07387540    6.79999160    2.80802940     366
Ni    43.33827210    6.81067990    0.66104400     367
Ni    43.33447650    8.83822630    3.50478680     368
Ni    43.33590320   10.86706260    2.04008940     369
Ni    44.59686280    8.84736160    1.35532770     370
Ni    44.59675980   10.87446780    4.19978290     371
Ni    44.60305030    6.82180120    2.82529810     372
Ni    45.86785140    6.83252150    0.67846280     373
Ni    45.85973740    8.85647020    3.51714070     374
Ni    45.85821540   10.88203920    2.04850390     375
Ni    47.12289430    8.86507320    1.36794700     376
Ni    47.12016300   10.88936040    4.20846510     377
Ni    47.13232800    6.84224080    2.84249980     378
Ni    48.39626310    6.85073280    0.69500870     379
Ni    48.38611600    8.87283140    3.52979140     380
Ni    48.38246920   10.89615160    2.05740380     381
Ni    49.64923480    8.87960920    1.38030480     382
Ni    49.64501190   10.90222740    4.21740630     383
Ni    49.65948870    6.85783860    2.85799080     384
Ni    50.92194760    6.86367700    0.70913540     385
Ni    50.91211700    8.88533400    3.54150370     386
Ni    50.90767300   10.90750120    2.06612990     387
Ni    52.17469790    8.89004900    1.39103060     388
Ni    52.17036060   10.91193880    4.22563120     389
Ni    52.18364720    6.86833380    2.87051460     390
Ni    53.44469070    6.87197920    0.71984930     391
Ni    53.43695450    8.89380940    3.55095910     392
Ni    53.43301390   10.91555320    2.07357430     393
Ni    54.69890980    8.89669040    1.39900480     394
Ni    54.69559860   10.91836940    4.23205330     395
Ni    54.70516590    6.87470720    2.87933240     396
Ni    55.96519860    6.87661800    0.72677050     397
Ni    55.96059800    8.89875600    3.55731320     398
Ni    55.95810320   10.92042840    2.07877850     399
Ni    57.22208790    8.90008260    1.40363300     400
Ni    57.22053530   10.92177020    4.23588610     401
Ni    57.22489550    6.87781300    2.88434320     402
Ni    58.48438650    6.87838320    0.72980770     403
Ni    58.48344420    8.90072920    3.56012920     404
Ni    58.48292160   10.92243100    2.08112570     405
Ni    59.74475860    8.90073020    1.40457750     406
Ni    59.74528510   10.92243100    4.23667580     407
Ni    59.74381260    6.87838660    2.88535840     408
Ni    61.00330350    6.87782140    0.72879100     409
Ni    61.00611880    8.90008640    3.55918170     410
Ni    61.00767140   10.92177020    2.08033320     411
Ni    62.26760480    8.89875980    1.40175990     412
Ni    62.27010730   10.92042640    4.23432690     413
Ni    62.26300430    6.87662840    2.88231960     414
Ni    63.52303700    6.87471440    0.72378100     415
Ni    63.52930070    8.89668560    3.55455470     416
Ni    63.53261190   10.91836260    2.07650160     417
Ni    64.79125220    8.89379500    1.39541330     418
Ni    64.79519660   10.91553700    4.22912790     419
Ni    64.78352360    6.87196460    2.87540480     420
Ni    66.04455570    6.86830100    0.71498360     421
Ni    66.05351260    8.89001940    3.54659370     422
Ni    66.05785370   10.91191480    2.07008740     423
Ni    67.31609350    8.88529500    1.38597140     424
Ni    67.32054140   10.90746980    4.22169070     425
Ni    67.30625150    6.86361700    2.86471500     426
Ni    68.56870270    6.85778520    0.70246790     427
Ni    68.57897190    8.87956520    3.53587220     428
Ni    68.58319860   10.90219400    2.06186390     429
Ni    69.84208680    8.87279620    1.37425130     430
Ni    69.84574140   10.89612020    4.21295880     431
Ni    69.83192450    6.85068240    2.85057100     432
Ni    71.09587100    6.84221900    0.68695550     433
Ni    71.10530850    8.86504460    3.52349930     434
Ni    71.10804750   10.88933480    2.05291220     435
Ni    72.36846930    8.85645400    1.36158530     436
Ni    72.36999510   10.88201900    4.20404580     437
Ni    72.36034390    6.83250910    2.83401520     438
Ni    73.62516020    6.82180030    0.66974590     439
Ni    73.63134770    8.84735120    3.51086910     440
Ni    73.63145450   10.87445260    2.04421780     441
Ni    74.89373780    8.83822160    1.34922230     442
Ni    74.89231880   10.86705120    4.19562200     443
Ni    74.88994600    6.81068420    2.81659130     444
Ni    76.15435030    6.79999740    0.65247290     445
Ni    76.15547180    8.82977490    3.49882410     446
Ni    76.15252690   10.86033640    2.03595470     447
Ni    77.41646580    8.82283980    1.33729830     448
Ni    77.41208650   10.85492240    4.18725590     449
Ni    77.41805270    6.79101900    2.79955910     450
Ni    78.68097690    6.78499180    0.63541640     451
Ni    78.67677310    8.81828120    3.48663670     452
Ni    78.67107390   10.85138240    2.02714010     453
Ni    79.93654640    8.81668760    1.32448530     454
Ni    79.92963420   10.85013020    4.17770580     455
Ni    79.94324500    6.78292230    2.78212650     456
Ni    81.20511630    6.78497790    0.61759190     457
Ni    81.19602970    8.81822210    3.47310830     458
Ni    81.18795010   10.85126500    2.01677420     459
Ni    82.45542150    8.82250690    1.31055920     460
Ni    82.44618990   10.85456180    4.16673040     461
Ni    82.46684270    6.79059840    2.76443650     462
Ni    83.72851560    6.79861260    0.60093640     463
Ni    83.71488190    8.82882120    3.45942950     464
Ni    83.70448310   10.85952660    2.00564740     465
Ni    84.97444160    8.83629420    1.29787990     466
Ni    84.96289060   10.86555480    4.15603020     467
Ni    84.99012760    6.80782320    2.74971390     468
Ni    86.25154120    6.81718400    0.58876000     469
Ni    86.23406220    8.84416100    3.44837740     470
Ni    86.22142790   10.87206280    1.99591920     471
Ni    87.49365240    8.85183620    1.28882500     472
Ni    87.48004920   10.87858680    4.14767120     473
Ni    87.51258850    6.82601550    2.74027020     474
Ni    88.77310950    6.83393290    0.58187300     475
Ni    88.75310520    8.85896220    3.44140270     476
Ni    88.73869330   10.88480100    1.98913400     477
Ni    90.01230620    8.86534880    1.28379040     478
Ni    89.99728400   10.89051440    4.14248130     479
Ni    90.03296660    6.84080660    2.73554090     480
Ni    91.29211430    6.84664500    0.57883720     481
Ni    91.27117160    8.87093940    3.43803410     482
Ni    91.25576020   10.89563480    1.98542760     483
Ni    92.52962500    8.87574780    1.28176820     484
Ni    92.51405340   10.90013800    4.14006570     485
Ni    92.55051420    6.85153780    2.73376560     486
Ni    93.80818940    6.85559900    0.57796890     487
Ni    93.78765110    8.87983420    3.43704680     488
Ni    93.77211760   10.90404520    1.98407940     489
Ni    95.04521940    8.88327420    1.28154790     490
Ni    95.02993010   10.90739540    4.13956020     491
Ni    95.06517030    6.85894680    2.73352770     492
Ni    96.32152560    6.86169000    0.57816140     493
Ni    96.30233770    8.88614560    3.43736790     494
Ni    96.28744510   10.91024880    1.98421880     495
Ni    97.55902100    8.88853080    1.28224170     496
Ni    97.54468540   10.91264440    4.14016490     497
Ni    97.57727820    6.86392560    2.73399620     498
Ni    98.83253480    6.86573520    0.57880620     499
Ni    98.81530760    8.89048300    3.43829040     500
Ni    98.80161290   10.91466620    1.98515600     501
Ni   100.07118990    8.89209460    1.28330820     502
Ni   100.05830380   10.91630740    4.14130400     503
Ni   100.08728790    6.86718700    2.73471930     504
Ni   101.34170530    6.86834580    0.57957380     505
Ni   101.32676700    8.89335540    3.43939740     506
Ni   101.31465150   10.91770660    1.98643680     507
Ni   102.58196260    8.89441780    1.28444910     508
Ni   102.57086180   10.91873840    4.14261290     509
Ni   102.59568790    6.86923360    2.73543220     510
Ni   103.84953320    6.86993320    0.58027660     511
Ni   103.83700560    8.89511500    3.44045330     512
Ni   103.82670600   10.91965960    1.98779480     513
Ni   105.09166720    8.89575580    1.28552720     514
Ni   105.08251190   10.92017840    4.14388040     515
Ni   105.10295870    6.87035180    2.73593360     516
Ni   106.35653690    6.87065980    0.58079890     517
Ni   106.34633640    8.89590840    3.44134380     518
Ni   106.33808900   10.92052940    1.98906500     519
Ni   107.60079200    8.89591120    1.28638030     520
Ni   107.59332280   10.92089560    4.14508580     521
Ni   107.60964970    6.87054200    2.73586940     522
Ni   108.86370100    6.86993120    0.58150150     523
Ni   108.85466000    8.89612020    3.44176150     524
Ni   108.84932720   10.91938120    1.98976820     525
Ni   110.11113740    8.89063080    1.28681120     526
Ni   110.10251620   10.92226800    4.14711430     527
Ni   110.11674500    6.86921700    2.73732570     528
Ni     0.59417460   12.94366840    0.53769900     529
Ni     0.59201110   14.96827040    3.39306330     530
Ni     0.59041880   16.99145320    1.93631740     531
Ni     1.84849160   14.96788700    1.23778570     532
Ni     1.84756240   16.99167440    4.09215210     533
Ni     1.84967740   12.94389820    2.69378280     534
Ni     3.10512850   12.94378380    0.53800440     535
Ni     3.10494710   14.96843820    3.39335990     536
Ni     3.10468750   16.99163060    1.93657860     537
Ni     4.36137870   14.96851920    1.23746470     538
Ni     4.36187700   16.99202160    4.09200760     539
Ni     4.36076120   12.94484900    2.69296890     540
Ni     5.61653090   12.94512460    0.53715430     541
Ni     5.61797100   14.96905240    3.39264700     542
Ni     5.61903000   16.99208460    1.93613320     543
Ni     6.87458240   14.96911440    1.23676970     544
Ni     6.87630840   16.99230200    4.09134200     545
Ni     6.87203220   12.94515620    2.69201040     546
Ni     8.12872120   12.94618900    0.53642760     547
Ni     8.13116460   14.96905040    3.39178440     548
Ni     8.13357930   16.99222380    1.93544240     549
Ni     9.38820940   14.96928700    1.23594710     550
Ni     9.39088060   16.99204640    4.09053470     551
Ni     9.38428400   12.94558340    2.69129350     552