ITEM: TIMESTEP
0
ITEM: NUMBER OF ATOMS
5339
ITEM: BOX BOUNDS pp pp pp
0.0000000000000000e+00 1.1076120622000001e+02
0.0000000000000000e+00 6.0968188400000003e+01
0.0000000000000000e+00 8.6222039000000006e+00
ITEM: ATOMS id type x y z c_1[1] c_1[2] c_1[3] c_1[4] c_1[5] c_1[6]
1 1 6.20117359954562e-01 9.18838007657722e-01 4.16168794599675e-01 2.393e+05 2.196e+05 2.343e+05 -9.813e+04 -3.799e+04 -6.911e+03
2 1 6.15879774793985e-01 2.94961511838311e+00 3.28732656743718e+00 2.677e+05 2.084e+05 2.463e+05 -9.814e+04 -3.710e+04 -1.246e+04
4 1 1.86236034010764e+00 2.93750606295562e+00 1.13206255234082e+00 2.676e+05 2.083e+05 2.463e+05 -9.141e+04 -3.377e+04 -1.220e+04
6 1 1.86517792271410e+00 9.06741273763901e-01 2.57196665837679e+00 2.392e+05 2.196e+05 2.342e+05 -9.102e+04 -3.444e+04 -6.458e+03
7 1 3.11023709752417e+00 8.94789866738021e-01 4.16761196670817e-01 2.393e+05 2.196e+05 2.342e+05 -8.380e+04 -3.076e+04 -6.016e+03
8 1 3.10884613807223e+00 2.92553450366280e+00 3.28799278464196e+00 2.678e+05 2.082e+05 2.464e+05 -8.462e+04 -3.034e+04 -1.195e+04
10 1 4.35535234380034e+00 2.91370543320332e+00 1.13292333298043e+00 2.685e+05 2.079e+05 2.466e+05 -7.773e+04 -2.679e+04 -1.172e+04
12 1 4.35530222849006e+00 8.82989372500347e-01 2.57276627342087e+00 2.396e+05 2.196e+05 2.343e+05 -7.646e+04 -2.696e+04 -5.583e+03
13 1 5.60038108833096e+00 8.71345074964937e-01 4.17786726773968e-01 2.401e+05 2.195e+05 2.343e+05 -6.897e+04 -2.302e+04 -5.153e+03
14 1 5.60189524447732e+00 2.90202349941317e+00 3.28906686122329e+00 2.694e+05 2.076e+05 2.470e+05 -7.072e+04 -2.313e+04 -1.149e+04
16 1 6.84849235373062e+00 2.89049311042769e+00 1.13422706329518e+00 2.709e+05 2.072e+05 2.474e+05 -6.356e+04 -1.934e+04 -1.127e+04
18 1 6.84548195989657e+00 8.59862064488941e-01 2.57403396807373e+00 2.408e+05 2.194e+05 2.345e+05 -6.129e+04 -1.896e+04 -4.723e+03
19 1 8.09061372552102e+00 8.48545338887617e-01 4.19310401647160e-01 2.417e+05 2.193e+05 2.347e+05 -5.337e+04 -1.475e+04 -4.287e+03
20 1 8.09516260474521e+00 2.87911850384212e+00 3.29061428377773e+00 2.727e+05 2.067e+05 2.480e+05 -5.621e+04 -1.543e+04 -1.105e+04
22 1 9.34192658578501e+00 2.86790381579669e+00 1.13602996414804e+00 2.751e+05 2.061e+05 2.488e+05 -4.865e+04 -1.140e+04 -1.084e+04
24 1 9.33578592928249e+00 8.37399873488925e-01 2.57582505029079e+00 2.429e+05 2.191e+05 2.350e+05 -4.518e+04 -1.039e+04 -3.841e+03
25 1 1.05810090152513e+01 8.26430709277092e-01 4.21378057081603e-01 2.444e+05 2.189e+05 2.353e+05 -3.666e+04 -5.862e+03 -3.378e+03
26 1 1.05888067874964e+01 2.85685302468128e+00 3.29268229883128e+00 2.780e+05 2.054e+05 2.498e+05 -4.082e+04 -7.226e+03 -1.063e+04
28 1 1.18358279775676e+01 2.84596995948000e+00 1.13837071814039e+00 2.815e+05 2.045e+05 2.509e+05 -3.269e+04 -2.908e+03 -1.042e+04
30 1 1.18262944590965e+01 8.15642918432362e-01 2.57817632839116e+00 2.462e+05 2.186e+05 2.357e+05 -2.775e+04 -1.158e+03 -2.892e+03
31 1 1.30716549559358e+01 8.05041507212962e-01 4.24017977710517e-01 2.483e+05 2.183e+05 2.362e+05 -1.840e+04 3.745e+03 -2.376e+03
32 1 1.30830176628483e+01 2.83525824061845e+00 3.29530155785102e+00 2.857e+05 2.035e+05 2.522e+05 -2.421e+04 1.567e+03 -1.021e+04
34 1 1.43304066282514e+01 2.82472100688588e+00 1.14127249374192e+00 2.907e+05 2.023e+05 2.538e+05 -1.533e+04 6.211e+03 -9.988e+03
36 1 1.43171047527048e+01 7.94631398309069e-01 2.58110801908511e+00 2.508e+05 2.180e+05 2.368e+05 -8.533e+03 8.869e+03 -1.823e+03
37 1 1.55626600578336e+01 7.84417166460824e-01 4.27242869039004e-01 2.538e+05 2.175e+05 2.375e+05 1.936e+03 1.424e+04 -1.224e+03
38 1 1.55780295753655e+01 2.81436073867656e+00 3.29848828341850e+00 2.965e+05 2.010e+05 2.557e+05 -6.003e+03 1.104e+04 -9.757e+03
40 1 1.68259260492272e+01 2.80417893042913e+00 1.14474530003913e+00 3.033e+05 1.995e+05 2.578e+05 3.840e+03 1.607e+04 -9.513e+03
42 1 1.68083394923730e+01 7.74403001322646e-01 2.58462613279396e+00 2.573e+05 2.171e+05 2.384e+05 1.310e+04 1.990e+04 -5.676e+02
43 1 1.80541648370203e+01 7.64592191100338e-01 4.31053235918985e-01 2.615e+05 2.165e+05 2.393e+05 2.506e+04 2.588e+04 1.573e+02
44 1 1.80741415216013e+01 2.79417540642696e+00 3.30224729215455e+00 3.113e+05 1.978e+05 2.603e+05 1.425e+04 2.132e+04 -9.250e+03
46 1 1.93227289438874e+01 2.78434776265749e+00 1.14879007077523e+00 3.206e+05 1.958e+05 2.632e+05 2.530e+04 2.681e+04 -8.964e+03
48 1 1.93001619108992e+01 7.54986629663991e-01 2.58872730342999e+00 2.665e+05 2.159e+05 2.404e+05 3.794e+04 3.224e+04 9.639e+02
49 1 2.05463619071846e+01 7.45586173222310e-01 4.35444014362913e-01 2.723e+05 2.152e+05 2.418e+05 5.188e+04 3.904e+04 1.869e+03
50 1 2.05717504681310e+01 2.77469033862594e+00 3.30657744270692e+00 3.316e+05 1.936e+05 2.666e+05 3.704e+04 3.257e+04 -8.649e+03
52 1 2.18212799358836e+01 2.76519292697955e+00 1.15340606462137e+00 3.444e+05 1.911e+05 2.705e+05 4.955e+04 3.861e+04 -8.296e+03
54 1 2.17928032411593e+01 7.36387909701760e-01 2.59340795610816e+00 2.794e+05 2.143e+05 2.433e+05 6.706e+04 4.637e+04 2.890e+03
55 1 2.30395343392836e+01 7.27384570728480e-01 4.40418137432687e-01 2.879e+05 2.133e+05 2.451e+05 8.368e+04 5.433e+04 4.050e+03
56 1 2.30714060727151e+01 2.75583845340199e+00 3.31148168024931e+00 3.595e+05 1.882e+05 2.752e+05 6.286e+04 4.497e+04 -7.896e+03
58 1 2.43222366386539e+01 2.74660049649600e+00 1.15860456904642e+00 3.775e+05 1.849e+05 2.807e+05 7.702e+04 5.167e+04 -7.433e+03
60 1 2.42866177086689e+01 7.18562714379283e-01 2.59868517525283e+00 2.983e+05 2.120e+05 2.474e+05 1.020e+05 6.308e+04 5.374e+03
61 1 2.55341362957023e+01 7.09900549165496e-01 4.46018529300012e-01 3.113e+05 2.103e+05 2.501e+05 1.223e+05 7.281e+04 6.893e+03
62 1 2.55739039330294e+01 2.73743945472059e+00 3.31698650719144e+00 3.989e+05 1.812e+05 2.872e+05 9.203e+04 5.872e+04 -6.883e+03
64 1 2.68265722388533e+01 2.72829625003230e+00 1.16443715467778e+00 4.246e+05 1.770e+05 2.950e+05 1.078e+05 6.614e+04 -6.207e+03
66 1 2.67822031893834e+01 7.01363480718217e-01 2.60464634370953e+00 3.278e+05 2.082e+05 2.536e+05 1.450e+05 8.380e+04 8.642e+03
67 1 2.80309775002721e+01 6.92898618553849e-01 4.52406983499941e-01 3.491e+05 2.052e+05 2.580e+05 1.705e+05 9.647e+04 1.066e+04
68 1 2.80804468508963e+01 2.71908410836453e+00 3.32318282135331e+00 4.557e+05 1.723e+05 3.045e+05 1.243e+05 7.390e+04 -5.338e+03
70 1 2.93357865069910e+01 2.70967569804895e+00 1.17105591163939e+00 4.935e+05 1.672e+05 3.161e+05 1.411e+05 8.198e+04 -4.161e+03
72 1 2.92806887324751e+01 6.84425405802966e-01 2.61157635016852e+00 3.775e+05 2.012e+05 2.640e+05 1.994e+05 1.114e+05 1.301e+04
73 1 3.05316767351948e+01 6.75819077388188e-01 4.60071307772229e-01 4.162e+05 1.954e+05 2.721e+05 2.322e+05 1.295e+05 1.574e+04
74 1 3.05929176045081e+01 2.69988391159863e+00 3.33031912889355e+00 5.397e+05 1.622e+05 3.304e+05 1.577e+05 9.026e+04 -2.476e+03
76 1 3.18522511411300e+01 2.68943364315717e+00 1.17886489703827e+00 5.965e+05 1.581e+05 3.485e+05 1.730e+05 9.862e+04 3.804e+01
78 1 3.17844534906501e+01 6.66884579638886e-01 2.62029664505261e+00 4.706e+05 1.873e+05 2.835e+05 2.695e+05 1.520e+05 1.896e+04
79 1 3.30398012943978e+01 6.57304366562638e-01 4.70378398863974e-01 5.488e+05 1.763e+05 2.996e+05 3.113e+05 1.807e+05 2.282e+04
80 1 3.31142929906520e+01 2.67792646260481e+00 3.33905997137777e+00 6.659e+05 1.571e+05 3.713e+05 1.854e+05 1.069e+05 3.842e+03
82 1 3.43796470502412e+01 2.66480309480588e+00 1.18898275935683e+00 7.499e+05 1.638e+05 4.010e+05 1.921e+05 1.153e+05 9.369e+03
84 1 3.42989104492147e+01 6.46570574510367e-01 2.63305817363918e+00 6.633e+05 1.627e+05 3.228e+05 3.562e+05 2.181e+05 2.752e+04
85 1 3.55635207251686e+01 6.33872900457831e-01 4.86993233276105e-01 8.287e+05 1.499e+05 3.568e+05 3.999e+05 2.670e+05 3.317e+04
86 1 3.56489781398844e+01 2.64936753249723e+00 3.35131468877507e+00 8.501e+05 1.866e+05 4.397e+05 1.898e+05 1.251e+05 1.620e+04
90 1 3.68361981822661e+01 6.18113897688664e-01 2.65579944728243e+00 1.061e+06 1.487e+05 4.104e+05 4.341e+05 3.311e+05 3.934e+04
88 1 3.69228234291620e+01 2.63092506954773e+00 1.20451769729882e+00 9.622e+05 2.396e+05 4.911e+05 1.766e+05 1.379e+05 2.261e+04
91 1 3.81209660837732e+01 5.97560239333655e-01 5.19594749154867e-01 1.381e+06 1.948e+05 4.986e+05 4.332e+05 4.202e+05 4.072e+04
92 1 3.82012193180503e+01 2.60962282483505e+00 3.37154130392560e+00 1.076e+06 3.370e+05 5.569e+05 1.581e+05 1.524e+05 2.508e+04
94 1 3.94829191642302e+01 2.58913038290785e+00 1.23083927358655e+00 1.177e+06 4.642e+05 6.320e+05 1.577e+05 1.630e+05 1.525e+04
96 1 3.94226249563762e+01 5.71690742314580e-01 2.70371933691410e+00 1.776e+06 3.372e+05 6.292e+05 3.539e+05 5.439e+05 1.309e+04
97 1 4.07393182039907e+01 5.52086708569499e-01 5.87139521165155e-01 2.091e+06 4.999e+05 7.683e+05 2.278e+05 6.525e+05 -7.878e+04
98 1 4.07662768440296e+01 2.57737807533570e+00 3.40386615820317e+00 1.255e+06 5.611e+05 7.097e+05 1.946e+05 1.664e+05 -1.125e+04
100 1 4.20526691387588e+01 2.58018325207866e+00 1.26497695070307e+00 1.306e+06 5.722e+05 7.738e+05 2.320e+05 1.594e+05 -3.213e+04
102 1 4.20603721603188e+01 5.62809501675487e-01 2.78412905738772e+00 2.047e+06 4.353e+05 8.000e+05 1.135e+05 6.031e+05 -1.871e+05
103 1 4.33788226318183e+01 5.97895223464192e-01 6.60599051261631e-01 1.709e+06 1.914e+05 7.200e+05 -2.459e+04 4.259e+05 -2.432e+05
104 1 4.33442948974212e+01 2.59779408334076e+00 3.43502375692269e+00 1.322e+06 4.813e+05 8.092e+05 2.178e+05 1.368e+05 -5.053e+04
106 1 4.46401183653027e+01 2.62384706494340e+00 1.29208403766356e+00 1.305e+06 3.386e+05 8.103e+05 1.556e+05 9.866e+04 -8.037e+04
108 1 4.46829050689470e+01 6.32011316334910e-01 2.83503501337934e+00 1.379e+06 2.361e+04 6.285e+05 -8.347e+04 2.606e+05 -2.568e+05
109 1 4.59742912502833e+01 6.58081060467435e-01 6.89137017311368e-01 1.166e+06 -3.225e+04 5.719e+05 -6.076e+04 1.340e+05 -2.587e+05
110 1 4.59365114867145e+01 2.64884496615415e+00 3.45657390791449e+00 1.278e+06 2.310e+05 7.936e+05 8.749e+04 5.438e+04 -1.057e+05
112 1 4.72323466539823e+01 2.66858022760272e+00 1.30480297262149e+00 1.263e+06 1.855e+05 7.834e+05 2.606e+04 9.294e+03 -1.167e+05
114 1 4.72588495598952e+01 6.77635131432630e-01 2.84820231616787e+00 1.077e+06 -4.379e+04 5.503e+05 -3.198e+03 2.677e+04 -2.591e+05
115 1 4.85422095337779e+01 6.91315195101781e-01 6.91187701091447e-01 1.105e+06 -3.926e+04 5.574e+05 6.118e+04 -7.742e+04 -2.611e+05
116 1 4.85281663803139e+01 2.68225464734834e+00 3.45854457009766e+00 1.273e+06 1.980e+05 7.880e+05 -3.418e+04 -3.598e+04 -1.140e+05
118 1 4.98247268332177e+01 2.69002608956659e+00 1.29568299302628e+00 1.303e+06 2.702e+05 8.055e+05 -9.973e+04 -8.167e+04 -9.700e+04
120 1 4.98297017901145e+01 6.99025607984475e-01 2.83991225030398e+00 1.253e+06 -1.202e+04 5.954e+05 1.088e+05 -1.917e+05 -2.640e+05
121 1 5.11271874915598e+01 6.99487420058104e-01 6.70088185281834e-01 1.528e+06 8.809e+04 6.717e+05 1.017e+05 -3.359e+05 -2.625e+05
122 1 5.11220110150417e+01 2.69372639442669e+00 3.43924600189024e+00 1.336e+06 3.990e+05 8.189e+05 -1.718e+05 -1.254e+05 -6.815e+04
124 1 5.24172590303322e+01 2.70032832900625e+00 1.26897251047170e+00 1.346e+06 5.253e+05 8.031e+05 -2.196e+05 -1.582e+05 -4.432e+04
126 1 5.24399750553335e+01 6.93243266129541e-01 2.79988745095492e+00 1.897e+06 3.048e+05 7.674e+05 -3.506e+03 -5.186e+05 -2.387e+05
127 1 5.37623320398622e+01 6.96924906820689e-01 6.05495977944675e-01 2.134e+06 4.860e+05 8.066e+05 -1.389e+05 -6.560e+05 -1.566e+05
128 1 5.37071661124226e+01 2.71888909473851e+00 3.40788008936830e+00 1.315e+06 5.676e+05 7.538e+05 -2.088e+05 -1.743e+05 -2.816e+04
130 1 5.49926190448334e+01 2.75216961355562e+00 1.23360456187322e+00 1.253e+06 5.119e+05 6.820e+05 -1.679e+05 -1.780e+05 -2.354e+03
132 1 5.50825999119963e+01 7.32533023838741e-01 2.71812979346606e+00 1.990e+06 4.090e+05 7.077e+05 -2.601e+05 -6.184e+05 -4.503e+04
3 1 6.11833231140736e-01 4.97913088077635e+00 1.84514669373460e+00 2.938e+05 1.980e+05 2.574e+05 -9.784e+04 -3.643e+04 -1.752e+04
5 1 1.85962244004452e+00 4.96700533842127e+00 4.00098269953448e+00 2.935e+05 1.979e+05 2.574e+05 -9.175e+04 -3.347e+04 -1.743e+04
9 1 3.10741692234121e+00 4.95500406073198e+00 1.84579801902973e+00 2.938e+05 1.977e+05 2.576e+05 -8.564e+04 -3.041e+04 -1.735e+04
11 1 4.35523855419074e+00 4.94313088873275e+00 4.00180558055052e+00 2.945e+05 1.973e+05 2.579e+05 -7.947e+04 -2.727e+04 -1.727e+04
15 1 5.60311072329783e+00 4.93138928532562e+00 1.84680928621355e+00 2.958e+05 1.968e+05 2.584e+05 -7.324e+04 -2.403e+04 -1.721e+04
17 1 6.85105849627769e+00 4.91978238490216e+00 4.00301963436135e+00 2.977e+05 1.962e+05 2.591e+05 -6.691e+04 -2.071e+04 -1.716e+04
21 1 8.09910880830989e+00 4.90831306148272e+00 1.84823815905935e+00 3.002e+05 1.954e+05 2.600e+05 -6.047e+04 -1.730e+04 -1.711e+04
23 1 9.34729071158689e+00 4.89698391900689e+00 4.00467305748705e+00 3.034e+05 1.945e+05 2.611e+05 -5.389e+04 -1.380e+04 -1.707e+04
27 1 1.05956356974958e+01 4.88579721056985e+00 1.85012363009012e+00 3.074e+05 1.934e+05 2.625e+05 -4.714e+04 -1.022e+04 -1.705e+04
29 1 1.18441780750202e+01 4.87475478616441e+00 4.00679591450575e+00 3.121e+05 1.921e+05 2.641e+05 -4.020e+04 -6.540e+03 -1.703e+04
33 1 1.30929554517816e+01 4.86385790844329e+00 1.85248710484269e+00 3.178e+05 1.906e+05 2.661e+05 -3.304e+04 -2.771e+03 -1.701e+04
35 1 1.43420092617773e+01 4.85310703199999e+00 4.00940121072057e+00 3.244e+05 1.889e+05 2.683e+05 -2.564e+04 1.090e+03 -1.700e+04
39 1 1.55913855062595e+01 4.84250146773649e+00 1.85533351956073e+00 3.321e+05 1.870e+05 2.709e+05 -1.797e+04 5.043e+03 -1.698e+04
41 1 1.68411355213393e+01 4.83203891890414e+00 4.01248623432902e+00 3.410e+05 1.849e+05 2.739e+05 -1.002e+04 9.086e+03 -1.696e+04
45 1 1.80913169886979e+01 4.82171474809716e+00 1.85865296638054e+00 3.514e+05 1.825e+05 2.774e+05 -1.776e+03 1.322e+04 -1.693e+04
47 1 1.93419951587043e+01 4.81152112031814e+00 4.01603449047999e+00 3.633e+05 1.798e+05 2.814e+05 6.769e+03 1.742e+04 -1.688e+04
51 1 2.05932442212582e+01 4.80144578560930e+00 1.86242336597678e+00 3.770e+05 1.768e+05 2.860e+05 1.560e+04 2.170e+04 -1.679e+04
53 1 2.18451491450717e+01 4.79147057753689e+00 4.02001984739963e+00 3.929e+05 1.735e+05 2.912e+05 2.469e+04 2.603e+04 -1.666e+04
57 1 2.30978076982281e+01 4.78156914403234e+00 1.86661690759502e+00 4.111e+05 1.700e+05 2.973e+05 3.397e+04 3.038e+04 -1.645e+04
59 1 2.43513326144401e+01 4.77170390538170e+00 4.02441662780281e+00 4.321e+05 1.661e+05 3.042e+05 4.334e+04 3.473e+04 -1.614e+04
63 1 2.56058544401794e+01 4.76182210740332e+00 1.87121597381658e+00 4.563e+05 1.621e+05 3.122e+05 5.263e+04 3.902e+04 -1.568e+04
65 1 2.68615239865953e+01 4.75185048052900e+00 4.02922480789803e+00 4.843e+05 1.579e+05 3.215e+05 6.158e+04 4.320e+04 -1.500e+04
69 1 2.81185147221620e+01 4.74168809358388e+00 1.87625397489250e+00 5.166e+05 1.539e+05 3.322e+05 6.980e+04 4.721e+04 -1.401e+04
71 1 2.93770236020419e+01 4.73119723084425e+00 4.03453737493646e+00 5.538e+05 1.505e+05 3.447e+05 7.673e+04 5.097e+04 -1.257e+04
75 1 3.06372690863175e+01 4.72019277616322e+00 1.88192708296351e+00 5.964e+05 1.485e+05 3.592e+05 8.161e+04 5.448e+04 -1.054e+04
77 1 3.18994817799483e+01 4.70843354977183e+00 4.04072633475042e+00 6.446e+05 1.494e+05 3.761e+05 8.343e+04 5.779e+04 -7.792e+03
81 1 3.31638828234038e+01 4.69562228043326e+00 1.88889918689759e+00 6.983e+05 1.555e+05 3.960e+05 8.104e+04 6.115e+04 -4.314e+03
83 1 3.44306421460321e+01 4.68144085311008e+00 4.04891501427405e+00 7.561e+05 1.708e+05 4.193e+05 7.353e+04 6.510e+04 -4.838e+02
87 1 3.56998030962749e+01 4.66566405907367e+00 1.89894597398588e+00 8.154e+05 2.008e+05 4.467e+05 6.113e+04 7.034e+04 2.668e+03
89 1 3.69711939491276e+01 4.64842600806154e+00 4.06165452339705e+00 8.725e+05 2.520e+05 4.784e+05 4.601e+04 7.749e+04 2.617e+03
93 1 3.82442889637431e+01 4.63097494518010e+00 1.91520175672695e+00 9.250e+05 3.249e+05 5.138e+05 3.592e+04 8.649e+04 -5.872e+03
95 1 3.95183225909126e+01 4.61627184830368e+00 4.08143896017188e+00 9.720e+05 4.014e+05 5.515e+05 4.423e+04 9.489e+04 -2.548e+04
99 1 4.07932862435519e+01 4.60792814437326e+00 1.93662076603870e+00 1.017e+06 4.519e+05 5.870e+05 7.329e+04 9.833e+04 -4.787e+04
101 1 4.20700671288517e+01 4.60881538511194e+00 4.10127760948760e+00 1.062e+06 4.495e+05 6.140e+05 1.091e+05 9.483e+04 -6.428e+04
105 1 4.33498122357604e+01 4.61884634463395e+00 1.95241349974560e+00 1.106e+06 3.964e+05 6.320e+05 1.305e+05 8.401e+04 -7.129e+04
107 1 4.46335121329932e+01 4.63498928372001e+00 4.11252468018891e+00 1.143e+06 3.208e+05 6.449e+05 1.185e+05 6.483e+04 -7.389e+04
111 1 4.59207578581467e+01 4.65332324761186e+00 1.95993865198360e+00 1.167e+06 2.543e+05 6.531e+05 7.602e+04 3.728e+04 -7.876e+04
113 1 4.72099582162546e+01 4.67036926401237e+00 4.11660220162581e+00 1.180e+06 2.218e+05 6.566e+05 2.037e+04 4.325e+03 -8.227e+04
117 1 4.84996915473484e+01 4.68470047614768e+00 1.96000129624194e+00 1.182e+06 2.304e+05 6.572e+05 -3.776e+04 -2.994e+04 -8.147e+04
119 1 4.97886390442318e+01 4.69666094580930e+00 4.11242097063086e+00 1.173e+06 2.787e+05 6.539e+05 -9.082e+04 -6.118e+04 -7.720e+04
123 1 5.10751478991293e+01 4.70861086931310e+00 1.95202130727171e+00 1.150e+06 3.522e+05 6.457e+05 -1.235e+05 -8.558e+04 -7.380e+04
125 1 5.23578892143293e+01 4.72437422718340e+00 4.10087742604860e+00 1.116e+06 4.210e+05 6.327e+05 -1.216e+05 -1.015e+05 -7.050e+04
129 1 5.36371670032163e+01 4.74747514437401e+00 1.93615272977502e+00 1.076e+06 4.542e+05 6.130e+05 -9.379e+04 -1.102e+05 -5.873e+04
131 1 5.49141009032074e+01 4.77969116744190e+00 4.08028769447586e+00 1.035e+06 4.316e+05 5.836e+05 -6.199e+04 -1.123e+05 -3.855e+04
265 1 6.08071480485783e-01 7.00750258059608e+00 4.00946128562847e-01 3.167e+05 1.889e+05 2.672e+05 -9.707e+04 -3.584e+04 -2.193e+04
266 1 6.04710418492798e-01 9.03488423646061e+00 3.26610832543629e+00 3.359e+05 1.811e+05 2.754e+05 -9.560e+04 -3.512e+04 -2.556e+04
268 1 1.85461582286910e+00 9.02274340760978e+00 1.11077570499140e+00 3.349e+05 1.811e+05 2.752e+05 -9.136e+04 -3.314e+04 -2.567e+04
270 1 1.85701455532701e+00 6.99536366687856e+00 2.55675316983433e+00 3.162e+05 1.887e+05 2.671e+05 -9.182e+04 -3.333e+04 -2.197e+04
271 1 3.10595487758728e+00 6.98333127745533e+00 4.01525200511445e-01 3.163e+05 1.885e+05 2.673e+05 -8.659e+04 -3.076e+04 -2.200e+04
272 1 3.10450231796853e+00 9.01068774354520e+00 3.26659577989362e+00 3.347e+05 1.809e+05 2.752e+05 -8.720e+04 -3.112e+04 -2.578e+04
274 1 4.35440164926592e+00 8.99871806578374e+00 1.11137032806130e+00 3.352e+05 1.806e+05 2.755e+05 -8.309e+04 -2.909e+04 -2.588e+04
276 1 4.35491983260054e+00 6.97140780801318e+00 2.55747361159574e+00 3.170e+05 1.881e+05 2.676e+05 -8.137e+04 -2.812e+04 -2.204e+04
277 1 5.60393843406660e+00 6.95959520434910e+00 4.02400753106785e-01 3.184e+05 1.875e+05 2.682e+05 -7.614e+04 -2.544e+04 -2.209e+04
278 1 5.60434707271616e+00 8.98683481465893e+00 3.26730778529885e+00 3.363e+05 1.805e+05 2.761e+05 -7.888e+04 -2.695e+04 -2.579e+04
280 1 6.85437345360072e+00 8.97503805309226e+00 1.11220769578349e+00 3.384e+05 1.797e+05 2.767e+05 -7.486e+04 -2.495e+04 -2.601e+04
282 1 6.85304147896590e+00 6.94789506388542e+00 2.55851559060110e+00 3.207e+05 1.873e+05 2.690e+05 -7.059e+04 -2.260e+04 -2.198e+04
283 1 8.10226171816226e+00 6.93630862471358e+00 4.03618135472108e-01 3.233e+05 1.857e+05 2.700e+05 -6.567e+04 -1.991e+04 -2.219e+04
284 1 8.10451737102779e+00 8.96332745927488e+00 3.26827636976249e+00 3.363e+05 1.657e+05 2.761e+05 -7.871e+04 -2.557e+04 -3.042e+04
286 1 9.35481730348029e+00 8.95170227685563e+00 1.11331132245634e+00 3.453e+05 1.778e+05 2.799e+05 -6.659e+04 -2.102e+04 -2.597e+04
288 1 9.35163408054928e+00 6.92483672160670e+00 2.55991506374952e+00 3.272e+05 1.849e+05 2.713e+05 -5.992e+04 -1.697e+04 -2.220e+04
289 1 1.06011959460058e+01 6.91347971075049e+00 4.05204140413570e-01 3.314e+05 1.836e+05 2.732e+05 -5.496e+04 -1.420e+04 -2.273e+04
290 1 1.06053137788139e+01 8.94016120999299e+00 3.26951691506631e+00 3.446e+05 1.729e+05 2.812e+05 -6.993e+04 -2.102e+04 -2.721e+04
292 1 1.18560495726357e+01 8.92870227921711e+00 1.11468880856387e+00 3.557e+05 1.650e+05 2.777e+05 -5.921e+04 -1.657e+04 -1.562e+04
294 1 1.18509874352821e+01 6.90223732545970e+00 2.56168985493833e+00 3.373e+05 1.828e+05 2.751e+05 -4.938e+04 -1.135e+04 -2.263e+04
295 1 1.31010517887483e+01 6.89110850374220e+00 4.07167848271739e-01 3.433e+05 1.805e+05 2.774e+05 -4.362e+04 -8.435e+03 -2.289e+04
296 1 1.31070699446109e+01 8.91732263800158e+00 3.27102963383315e+00 3.569e+05 1.689e+05 2.855e+05 -4.814e+04 -1.211e+04 -2.755e+04
298 1 1.43584228687966e+01 8.90601831738461e+00 1.11633346856883e+00 3.701e+05 1.710e+05 2.884e+05 -5.189e+04 -1.232e+04 -2.615e+04
300 1 1.43514357932609e+01 6.88009109780039e+00 2.56384054693951e+00 3.511e+05 1.785e+05 2.798e+05 -3.842e+04 -5.582e+03 -2.245e+04
301 1 1.56021902739116e+01 6.86918146526009e+00 4.09501627814546e-01 3.596e+05 1.761e+05 2.827e+05 -3.228e+04 -2.511e+03 -2.256e+04
302 1 1.56101592704342e+01 8.89478386003898e+00 3.27280155577271e+00 3.740e+05 1.558e+05 2.894e+05 -4.006e+04 -7.873e+03 -3.074e+04
304 1 1.68623332398903e+01 8.88361187418191e+00 1.11822686059157e+00 3.892e+05 1.667e+05 2.945e+05 -4.421e+04 -8.629e+03 -2.634e+04
306 1 1.68533706462743e+01 6.85837402464852e+00 2.56635168321639e+00 3.698e+05 1.742e+05 2.863e+05 -2.678e+04 3.667e+02 -2.244e+04
307 1 1.81050375448195e+01 6.84766056723974e+00 4.12182739042866e-01 3.811e+05 1.711e+05 2.902e+05 -2.065e+04 3.396e+03 -2.258e+04
308 1 1.81150022780714e+01 8.87249254260805e+00 3.27480995844205e+00 4.007e+05 1.643e+05 2.987e+05 -4.065e+04 -6.834e+03 -2.609e+04
310 1 1.93682273225476e+01 8.86141293668399e+00 1.12034385002522e+00 4.138e+05 1.611e+05 3.031e+05 -3.703e+04 -4.955e+03 -2.610e+04
312 1 1.93572574938861e+01 6.83702933742263e+00 2.56919408474285e+00 3.941e+05 1.683e+05 2.946e+05 -1.476e+04 6.299e+03 -2.251e+04
313 1 2.06101035599045e+01 6.82646392681671e+00 4.15177050481185e-01 4.089e+05 1.652e+05 2.997e+05 -8.913e+03 9.144e+03 -2.238e+04
314 1 2.06220727721666e+01 8.85035613883285e+00 3.27703012669387e+00 4.283e+05 1.584e+05 3.080e+05 -3.388e+04 -3.280e+03 -2.579e+04
316 1 2.18766062913694e+01 8.83930028790543e+00 1.12266422176028e+00 4.445e+05 1.557e+05 3.135e+05 -3.107e+04 -1.725e+03 -2.534e+04
318 1 2.18636559921591e+01 6.81594189304841e+00 2.57233115007411e+00 4.256e+05 1.620e+05 3.053e+05 -3.188e+03 1.190e+04 -2.215e+04
319 1 2.31180027947818e+01 6.80543287109163e+00 4.18449360257821e-01 4.444e+05 1.586e+05 3.117e+05 2.301e+03 1.454e+04 -2.179e+04
320 1 2.31318983966001e+01 8.82821743378921e+00 3.27945224308116e+00 4.624e+05 1.531e+05 3.196e+05 -2.871e+04 -3.031e+02 -2.472e+04
322 1 2.43880212660978e+01 8.81707227968147e+00 1.12519710661799e+00 4.821e+05 1.508e+05 3.262e+05 -2.694e+04 9.809e+02 -2.390e+04
324 1 2.43732401460476e+01 6.79489625181230e+00 2.57573514712726e+00 4.656e+05 1.553e+05 3.189e+05 7.396e+03 1.704e+04 -2.125e+04
325 1 2.56294721021964e+01 6.78427837924562e+00 4.21988944894770e-01 4.893e+05 1.522e+05 3.269e+05 1.189e+04 1.935e+04 -2.048e+04
326 1 2.56450471488097e+01 8.80582110694243e+00 3.28211656207946e+00 5.036e+05 1.490e+05 3.336e+05 -2.593e+04 2.134e+03 -2.284e+04
328 1 2.69030457484343e+01 8.79441085723741e+00 1.12803069245973e+00 5.269e+05 1.480e+05 3.416e+05 -2.587e+04 3.183e+03 -2.152e+04
330 1 2.68868094860699e+01 6.77350938010086e+00 2.57942706512917e+00 5.158e+05 1.494e+05 3.359e+05 1.550e+04 2.147e+04 -1.943e+04
331 1 2.81453674875544e+01 6.76249968818578e+00 4.25870921281658e-01 5.451e+05 1.476e+05 3.459e+05 1.788e+04 2.338e+04 -1.802e+04
332 1 2.81620803242585e+01 8.78277932263807e+00 3.28518142048071e+00 5.518e+05 1.484e+05 3.503e+05 -2.696e+04 4.186e+03 -1.993e+04
334 1 2.94222017243523e+01 8.77085743842738e+00 1.13142122796252e+00 5.782e+05 1.508e+05 3.598e+05 -2.941e+04 5.241e+03 -1.811e+04
336 1 2.94052604444375e+01 6.75113756161006e+00 2.58356966726942e+00 5.773e+05 1.472e+05 3.572e+05 1.861e+04 2.515e+04 -1.621e+04
337 1 3.06665930766767e+01 6.73928933887566e+00 4.30394044527592e-01 6.122e+05 1.494e+05 3.697e+05 1.724e+04 2.688e+04 -1.398e+04
338 1 3.06834410220022e+01 8.75857607399929e+00 3.28903249346464e+00 6.058e+05 1.559e+05 3.701e+05 -3.335e+04 6.488e+03 -1.616e+04
340 1 3.19457996315886e+01 8.74588061749555e+00 1.13591249394518e+00 6.339e+05 1.651e+05 3.815e+05 -3.875e+04 8.102e+03 -1.430e+04
342 1 3.19294459575726e+01 6.72680708761052e+00 2.58866274996151e+00 6.494e+05 1.554e+05 3.837e+05 1.335e+04 2.881e+04 -1.144e+04
343 1 3.31938550388554e+01 6.71355249523589e+00 4.36335541846619e-01 6.879e+05 1.674e+05 3.992e+05 6.759e+03 3.125e+04 -8.906e+03
344 1 3.32092380936665e+01 8.73276066632415e+00 3.29438203576158e+00 6.620e+05 1.798e+05 3.939e+05 -4.532e+04 1.025e+04 -1.290e+04
346 1 3.44736661817521e+01 8.71930250807599e+00 1.14234797671495e+00 6.891e+05 2.013e+05 4.076e+05 -5.223e+04 1.301e+04 -1.250e+04
348 1 3.44597829884419e+01 6.69945579624972e+00 2.59582474345367e+00 7.264e+05 1.880e+05 4.167e+05 -2.135e+03 3.462e+04 -7.057e+03
349 1 3.57270902530509e+01 6.68463049686323e+00 4.45142808004635e-01 7.635e+05 2.201e+05 4.364e+05 -1.181e+04 3.917e+04 -7.041e+03
350 1 3.57389400343452e+01 8.70577618611507e+00 3.30207553760858e+00 7.148e+05 2.308e+05 4.228e+05 -5.794e+04 1.622e+04 -1.375e+04
352 1 3.70048771857413e+01 8.69274798731978e+00 1.15130016675832e+00 7.387e+05 2.675e+05 4.396e+05 -6.006e+04 1.937e+04 -1.715e+04
354 1 3.69955139729330e+01 6.66959898370018e+00 2.60662585881439e+00 7.978e+05 2.651e+05 4.584e+05 -1.883e+04 4.460e+04 -1.049e+04
355 1 3.82647142675499e+01 6.65555245679920e+00 4.57921545107557e-01 8.294e+05 3.191e+05 4.828e+05 -1.790e+04 4.965e+04 -1.826e+04
356 1 3.82713244974876e+01 8.68114540070749e+00 3.31196309319727e+00 7.615e+05 3.077e+05 4.576e+05 -5.606e+04 2.162e+04 -2.247e+04
358 1 3.95382443085154e+01 8.67219896767831e+00 1.16139320994166e+00 7.843e+05 3.445e+05 4.755e+05 -4.470e+04 2.216e+04 -2.860e+04
360 1 3.95345277411246e+01 6.64432615569115e+00 2.62062673276802e+00 8.601e+05 3.710e+05 5.080e+05 -5.281e+03 5.242e+04 -2.874e+04
361 1 4.08051375958875e+01 6.63800985039901e+00 4.71639262228136e-01 8.923e+05 4.048e+05 5.312e+05 1.759e+04 5.144e+04 -3.909e+04
362 1 4.08057911027930e+01 8.66714246579816e+00 3.32123090498701e+00 8.086e+05 3.697e+05 4.918e+05 -2.754e+04 2.053e+04 -3.364e+04
364 1 4.20743011133446e+01 8.66677933358108e+00 1.16883099699822e+00 8.351e+05 3.778e+05 5.052e+05 -9.285e+03 1.682e+04 -3.604e+04
366 1 4.20770956739224e+01 6.63800311824349e+00 2.63232051259689e+00 9.278e+05 4.090e+05 5.499e+05 4.269e+04 4.637e+04 -4.587e+04
367 1 4.33511299009793e+01 6.64423849076023e+00 4.80124490167477e-01 9.654e+05 3.844e+05 5.634e+05 5.856e+04 3.774e+04 -4.812e+04
368 1 4.33441429022665e+01 8.67113914974075e+00 3.32626391356696e+00 8.626e+05 3.696e+05 5.151e+05 4.164e+03 1.157e+04 -3.551e+04
370 1 4.46155305584042e+01 8.67952078651728e+00 1.17151191530137e+00 8.887e+05 3.523e+05 5.220e+05 8.528e+03 5.415e+03 -3.314e+04
372 1 4.46276509404599e+01 6.65524901000635e+00 2.63747113268399e+00 1.001e+06 3.450e+05 5.729e+05 5.743e+04 2.631e+04 -4.759e+04
373 1 4.59065523781021e+01 6.66898767624090e+00 4.82593174276030e-01 1.028e+06 3.089e+05 5.796e+05 3.808e+04 1.256e+04 -4.602e+04
374 1 4.58883723401277e+01 8.69089150039033e+00 3.32712917869927e+00 9.099e+05 3.350e+05 5.268e+05 3.134e+03 -1.185e+03 -3.051e+04
376 1 4.71622676156657e+01 8.70432779626207e+00 1.17122842148386e+00 9.233e+05 3.258e+05 5.298e+05 -9.252e+03 -8.006e+03 -2.882e+04
378 1 4.71871251184734e+01 6.68374100778152e+00 2.63807519088626e+00 1.044e+06 2.901e+05 5.836e+05 6.100e+03 -2.881e+03 -4.526e+04
379 1 4.84682266918699e+01 6.69857033800410e+00 4.81825181761413e-01 1.046e+06 2.954e+05 5.843e+05 -2.902e+04 -1.883e+04 -4.532e+04
380 1 4.84365864807919e+01 8.71936063656821e+00 3.32617323734932e+00 9.272e+05 3.286e+05 5.313e+05 -2.345e+04 -1.497e+04 -2.878e+04
382 1 4.97106269610771e+01 8.73609203377829e+00 1.16968280810077e+00 9.218e+05 3.425e+05 5.312e+05 -3.357e+04 -2.203e+04 -3.013e+04
384 1 4.97486309642512e+01 6.71372509470973e+00 2.63599657490194e+00 1.035e+06 3.229e+05 5.819e+05 -5.727e+04 -3.391e+04 -4.628e+04
385 1 5.10273052507167e+01 6.73047826201142e+00 4.78113490795079e-01 1.012e+06 3.626e+05 5.769e+05 -7.012e+04 -4.722e+04 -4.728e+04
386 1 5.09838272540949e+01 8.75516049663728e+00 3.32367939548841e+00 9.093e+05 3.616e+05 5.292e+05 -3.530e+04 -2.908e+04 -3.184e+04
388 1 5.22558806157635e+01 8.77751444636910e+00 1.16558237472484e+00 8.927e+05 3.773e+05 5.246e+05 -2.719e+04 -3.579e+04 -3.252e+04
390 1 5.23037702783531e+01 6.75067332628598e+00 2.62990760046281e+00 9.833e+05 3.983e+05 5.686e+05 -6.475e+04 -5.834e+04 -4.617e+04
391 1 5.35781104807195e+01 6.77611815553966e+00 4.68801728112911e-01 9.536e+05 4.125e+05 5.555e+05 -4.526e+04 -6.668e+04 -4.136e+04
392 1 5.35268045549196e+01 8.80399398652297e+00 3.31728129227514e+00 8.752e+05 3.810e+05 5.169e+05 -1.159e+04 -4.161e+04 -3.072e+04
394 1 5.47968707944001e+01 8.83489514384928e+00 1.15652272946120e+00 8.589e+05 3.683e+05 5.058e+05 6.115e+03 -4.590e+04 -2.606e+04
396 1 5.48508948369137e+01 6.80755403443859e+00 2.61701476381316e+00 9.263e+05 3.967e+05 5.374e+05 -2.178e+04 -7.150e+04 -3.196e+04
267 1 6.01886231571328e-01 1.10614613537676e+01 1.81876519992531e+00 3.507e+05 1.751e+05 2.817e+05 -9.324e+04 -3.408e+04 -2.831e+04
269 1 1.85253163704570e+00 1.10493381296276e+01 3.97450690693394e+00 3.492e+05 1.753e+05 2.813e+05 -9.017e+04 -3.268e+04 -2.845e+04
273 1 3.10313495552647e+00 1.10372758259229e+01 1.81918031322496e+00 3.485e+05 1.752e+05 2.812e+05 -8.721e+04 -3.128e+04 -2.857e+04
275 1 4.35373131879280e+00 1.10252738361391e+01 3.97499319305571e+00 3.490e+05 1.752e+05 2.814e+05 -8.440e+04 -2.984e+04 -2.857e+04
279 1 5.60435703046635e+00 1.10133312516089e+01 1.81974458872115e+00 3.488e+05 1.748e+05 2.814e+05 -8.167e+04 -2.876e+04 -2.873e+04
281 1 6.85504959779487e+00 1.10014468756229e+01 3.97564049381286e+00 3.532e+05 1.645e+05 2.812e+05 -8.174e+04 -2.872e+04 -3.247e+04
285 1 8.10584779595164e+00 1.09896191833923e+01 1.82047833013590e+00 3.532e+05 1.652e+05 2.882e+05 -8.000e+04 -2.651e+04 -3.082e+04