ITEM: TIMESTEP
0
ITEM: NUMBER OF ATOMS
2198
ITEM: BOX BOUNDS pp pp pp
0.0000000000000000e+00 2.6134666639999999e+01
0.0000000000000000e+00 3.0484094200000001e+01
0.0000000000000000e+00 3.0177713650000001e+01
ITEM: ATOMS id type x y z c_1[1] c_1[2] c_1[3] c_1[4] c_1[5] c_1[6]
1 1 1.10967062782800e+00 5.90419899398000e-01 3.54681988077000e-01 2.528e+06 -1.786e+06 1.685e+06 -3.535e+05 9.172e+04 -1.244e+06
4 1 2.34531270098000e+00 2.62787097591900e+00 1.07319886478100e+00 6.259e+05 4.002e+05 4.584e+05 6.223e+04 -7.767e+03 -4.698e+04
6 1 2.37072082388800e+00 6.08254923550000e-01 2.51023291996600e+00 8.759e+05 -1.576e+06 3.173e+05 3.343e+05 3.362e+05 -1.225e+06
7 1 3.63169705884100e+00 6.26856012990000e-01 3.54681988077000e-01 1.808e+05 -2.003e+06 8.118e+04 2.401e+05 1.942e+05 -1.263e+06
10 1 4.87243251717500e+00 2.66920374956300e+00 1.07319886478100e+00 7.763e+05 2.284e+05 3.589e+05 6.556e+04 7.875e+03 1.450e+05
12 1 4.89235445086100e+00 6.45987220828000e-01 2.51023291996600e+00 1.037e+06 -1.738e+06 2.171e+05 3.691e+05 2.554e+05 -1.193e+06
13 1 6.15242067672200e+00 6.65297065458000e-01 3.54681988077000e-01 9.737e+05 -1.777e+06 2.052e+05 3.193e+05 1.717e+05 -1.270e+06
16 1 7.39811205189100e+00 2.71348829804800e+00 1.07319886478100e+00 6.799e+05 3.309e+05 4.006e+05 9.150e+04 2.272e+04 1.417e+05
18 1 7.41161975434400e+00 6.84299325578000e-01 2.51023291996600e+00 9.329e+05 -1.837e+06 1.902e+05 2.596e+05 1.349e+05 -1.309e+06
19 1 8.66970549516700e+00 7.02370601461000e-01 3.54681988077000e-01 9.354e+05 -1.868e+06 1.803e+05 2.118e+05 1.065e+05 -1.337e+06
22 1 9.91912445783900e+00 2.75563926478000e+00 1.07319886478100e+00 6.620e+05 4.373e+05 4.157e+05 9.556e+04 2.843e+04 1.341e+05
24 1 9.92650854655100e+00 7.18767995731000e-01 2.51023291996600e+00 9.159e+05 -1.877e+06 1.733e+05 1.645e+05 8.076e+04 -1.357e+06
25 1 1.11819800366700e+01 7.32678192755000e-01 3.54681988077000e-01 9.030e+05 -1.859e+06 1.722e+05 1.184e+05 5.729e+04 -1.366e+06
28 1 1.24333760868740e+01 2.78713969868100e+00 1.07319886478100e+00 6.720e+05 5.391e+05 4.298e+05 6.220e+04 1.917e+04 1.249e+05
30 1 1.24362328672840e+01 7.43297936652000e-01 2.51023291996600e+00 9.231e+05 -1.811e+06 1.787e+05 7.423e+04 3.507e+04 -1.363e+06
31 1 1.36895508608720e+01 7.49940115937000e-01 3.54681988077000e-01 9.245e+05 -1.731e+06 2.223e+05 3.346e+04 1.425e+04 -1.347e+06
34 1 1.49520295778100e+01 2.79563500605300e+00 1.07319886478100e+00 6.780e+05 5.937e+05 4.713e+05 -2.543e+04 -8.721e+03 1.290e+05
36 1 1.49506831197850e+01 7.49738920915000e-01 2.51023291996600e+00 9.275e+05 -1.681e+06 2.337e+05 -5.168e+04 -2.198e+04 -1.331e+06
37 1 1.62040343043990e+01 7.42909874133000e-01 3.54681988077000e-01 9.316e+05 -1.664e+06 2.120e+05 -9.206e+04 -4.277e+04 -1.319e+06
40 1 1.74633086498610e+01 2.77263353761500e+00 1.07319886478100e+00 6.505e+05 4.833e+05 4.221e+05 -8.283e+04 -2.654e+04 1.300e+05
42 1 1.74583360068400e+01 7.32129783901000e-01 2.51023291996600e+00 9.161e+05 -1.628e+06 2.243e+05 -1.362e+05 -6.498e+04 -1.296e+06
43 1 1.87138652545720e+01 7.18092773044000e-01 3.54681988077000e-01 9.161e+05 -1.579e+06 2.401e+05 -1.819e+05 -8.904e+04 -1.267e+06
46 1 1.99811783621450e+01 2.73435801377800e+00 1.07319886478100e+00 6.388e+05 3.756e+05 4.156e+05 -9.439e+04 -2.751e+04 1.378e+05
48 1 1.99707263249160e+01 7.01604841014000e-01 2.51023291996600e+00 9.573e+05 -1.516e+06 2.616e+05 -2.329e+05 -1.200e+05 -1.232e+06
49 1 2.12288656418060e+01 6.83477779239000e-01 3.54681988077000e-01 1.047e+06 -1.477e+06 2.821e+05 -2.873e+05 -2.002e+05 -1.161e+06
52 1 2.25050193230640e+01 2.69023045837800e+00 1.07319886478100e+00 -1.824e+04 1.614e+05 1.921e+05 -1.135e+05 -1.629e+04 1.238e+05
54 1 2.24881083643210e+01 6.64449912481000e-01 2.51023291996600e+00 2.555e+05 -1.709e+06 1.661e+05 -2.087e+05 -1.477e+05 -1.233e+06
55 1 2.37482064744750e+01 6.45138848487000e-01 3.54681988077000e-01 9.525e+05 -1.324e+06 3.980e+05 -2.950e+05 -2.959e+05 -1.192e+06
58 1 2.50318354544320e+01 2.64707626010600e+00 1.07319886478100e+00 3.522e+06 2.105e+06 2.452e+06 -1.605e+04 4.237e+04 4.576e+05
60 1 2.50088834674950e+01 6.26024406901000e-01 2.51023291996600e+00 2.770e+06 -1.249e+06 1.823e+06 2.664e+05 -8.808e+04 -1.165e+06
3 1 1.04625120037200e+00 4.62436240410900e+00 1.79171604326200e+00 3.453e+06 1.939e+06 2.351e+06 -8.042e+03 4.945e+03 4.112e+05
9 1 3.57783403358900e+00 4.66482211329500e+00 1.79171604326200e+00 -5.250e+04 -4.306e+04 1.770e+05 -6.962e+03 3.523e+03 4.894e+04
15 1 6.11177055488400e+00 4.71244009748100e+00 1.79171604326200e+00 7.261e+05 1.885e+05 3.979e+05 5.537e+04 1.472e+04 5.921e+04
21 1 8.64422576327300e+00 4.76464349911700e+00 1.79171604326200e+00 7.515e+05 3.151e+05 4.151e+05 1.010e+05 3.107e+04 5.411e+04
27 1 1.11700129728160e+01 4.81323941304500e+00 1.79171604326200e+00 7.130e+05 4.893e+05 4.346e+05 1.062e+05 3.358e+04 4.074e+04
33 1 1.36864917981420e+01 4.84385641789600e+00 1.79171604326200e+00 7.438e+05 6.594e+05 4.944e+05 3.380e+04 1.085e+04 3.495e+04
39 1 1.62111445018060e+01 4.83110187288200e+00 1.79171604326200e+00 7.390e+05 5.695e+05 4.443e+05 -8.445e+04 -2.646e+04 3.341e+04
45 1 1.87324274015530e+01 4.78909783948400e+00 1.79171604326200e+00 7.146e+05 3.956e+05 4.240e+05 -1.107e+05 -3.453e+04 4.815e+04
51 1 2.12623198445320e+01 4.73716147851400e+00 1.79171604326200e+00 8.279e+05 2.182e+05 3.814e+05 -8.161e+04 -2.421e+04 5.975e+04
57 1 2.37961554860130e+01 4.68675237066300e+00 1.79171604326200e+00 6.904e+05 2.540e+05 4.085e+05 -3.463e+04 2.097e+04 -8.194e+04
61 1 9.99887517713000e-01 6.63668147884900e+00 3.54681988077000e-01 3.275e+06 1.798e+06 2.248e+06 -2.017e+04 -4.656e+03 4.026e+05
64 1 2.20740868956100e+00 8.66441300677500e+00 1.07319886478100e+00 1.176e+06 1.009e+05 3.569e+05 -1.444e+05 -6.357e+04 -4.859e+04
66 1 2.26669962372700e+00 6.65557978820700e+00 2.51023291996600e+00 8.619e+05 1.559e+05 3.716e+05 -5.407e+04 -3.712e+04 -6.122e+04
67 1 3.53523086811300e+00 6.67683360352500e+00 3.54681988077000e-01 -7.859e+03 -1.061e+05 1.919e+05 -7.458e+04 -2.117e+04 4.272e+04
70 1 4.74908499238100e+00 8.70751324820100e+00 1.07319886478100e+00 9.095e+05 -1.786e+04 3.655e+05 -1.007e+05 -4.217e+04 7.395e+04
72 1 4.80534691868400e+00 6.70069624762300e+00 2.51023291996600e+00 8.709e+05 4.712e+04 3.620e+05 -1.747e+04 -1.235e+04 7.071e+04
73 1 6.07672292153300e+00 6.72731130058800e+00 3.54681988077000e-01 8.158e+05 1.008e+05 4.033e+05 1.813e+04 -3.636e+02 7.270e+04
76 1 7.30190250358900e+00 8.76561958983800e+00 1.07319886478100e+00 9.649e+05 3.658e+04 4.288e+05 -1.574e+04 -1.337e+04 9.053e+04
78 1 7.34877450551500e+00 6.75657725038300e+00 2.51023291996600e+00 8.447e+05 1.499e+05 4.162e+05 5.390e+04 1.308e+04 7.437e+04
79 1 8.62060420617700e+00 6.78793684776900e+00 3.54681988077000e-01 8.631e+05 2.288e+05 4.333e+05 9.329e+04 2.592e+04 7.221e+04
82 1 9.86130281463100e+00 8.84104181150200e+00 1.07319886478100e+00 1.022e+06 2.142e+05 4.830e+05 1.064e+05 2.542e+04 9.428e+04
84 1 9.89103727025400e+00 6.82010183492300e+00 2.51023291996600e+00 8.483e+05 3.354e+05 4.495e+05 1.245e+05 3.591e+04 6.605e+04
85 1 1.11588252447210e+01 6.85080754848800e+00 3.54681988077000e-01 8.312e+05 4.617e+05 4.649e+05 1.351e+05 3.974e+04 5.623e+04
88 1 1.24123329759880e+01 8.92047360607800e+00 1.07319886478100e+00 1.061e+06 5.921e+05 5.381e+05 1.656e+05 4.423e+04 6.384e+04
90 1 1.24230881753510e+01 6.87680407918100e+00 2.51023291996600e+00 8.595e+05 5.912e+05 4.813e+05 1.163e+05 3.432e+04 4.348e+04
91 1 1.36838738885840e+01 6.89437175782700e+00 3.54681988077000e-01 8.641e+05 7.181e+05 5.445e+05 4.895e+04 1.489e+04 4.118e+04
94 1 1.49611429974140e+01 8.94723742142100e+00 1.07319886478100e+00 1.068e+06 7.872e+05 6.244e+05 -8.353e+04 -2.321e+04 5.301e+04
96 1 1.49566433918590e+01 6.89382365381300e+00 2.51023291996600e+00 8.648e+05 7.160e+05 5.442e+05 -5.341e+04 -1.619e+04 4.177e+04
97 1 1.62175639599720e+01 6.87581060255100e+00 3.54681988077000e-01 8.611e+05 5.862e+05 4.809e+05 -1.181e+05 -3.473e+04 4.404e+04
100 1 1.75021228113680e+01 8.88056017186000e+00 1.07319886478100e+00 1.018e+06 3.763e+05 5.083e+05 -1.546e+05 -4.038e+04 8.436e+04
102 1 1.74819894482290e+01 6.84952904557700e+00 2.51023291996600e+00 8.344e+05 4.559e+05 4.642e+05 -1.352e+05 -3.974e+04 5.675e+04
103 1 1.87499172431620e+01 6.81869682302100e+00 3.54681988077000e-01 8.355e+05 3.302e+05 4.486e+05 -1.228e+05 -3.550e+04 6.629e+04
106 1 2.00599730753320e+01 8.79970202651700e+00 1.07319886478100e+00 9.920e+05 1.003e+05 4.576e+05 -4.364e+04 -4.714e+03 9.544e+04
108 1 2.00204383810650e+01 6.78652726325300e+00 2.51023291996600e+00 8.368e+05 2.290e+05 4.374e+05 -9.330e+04 -2.515e+04 7.185e+04
109 1 2.12923012727540e+01 6.75523930348900e+00 3.54681988077000e-01 9.163e+05 1.290e+05 3.951e+05 -5.431e+04 -1.242e+04 7.551e+04
112 1 2.26170753651360e+01 8.73314061651300e+00 1.07319886478100e+00 2.035e+05 -1.247e+05 2.513e+05 1.095e+05 3.279e+04 5.817e+04
114 1 2.25643392667100e+01 6.72608248675000e+00 2.51023291996600e+00 5.490e+04 -5.966e+04 2.216e+05 1.789e+04 2.343e+02 5.148e+04
115 1 2.38356705792790e+01 6.69958876048100e+00 3.54681988077000e-01 9.007e+05 1.753e+05 4.008e+05 1.025e+04 3.288e+04 -5.697e+04
118 1 2.51641746112840e+01 8.68343995901100e+00 1.07319886478100e+00 3.160e+06 1.549e+06 2.087e+06 -5.716e+04 -1.560e+04 3.694e+05
120 1 2.51057215545300e+01 6.67584530919100e+00 2.51023291996600e+00 3.301e+06 1.757e+06 2.257e+06 -5.992e+04 -3.102e+04 4.090e+05
63 1 8.66744719862000e-01 1.06577785959460e+01 1.79171604326200e+00 2.853e+06 1.358e+06 1.812e+06 -6.360e+04 -5.101e+04 2.852e+05
69 1 3.39847704337200e+00 1.06896994055060e+01 1.79171604326200e+00 3.009e+05 -1.018e+05 2.404e+05 -2.792e+05 -9.719e+04 2.841e+04
75 1 5.94550650996000e+00 1.07342930627070e+01 1.79171604326200e+00 9.481e+05 -6.752e+04 3.907e+05 -1.963e+05 -8.072e+04 7.211e+04
81 1 8.51310265246000e+00 1.08005837739540e+01 1.79171604326200e+00 1.173e+06 -5.032e+04 4.662e+05 -9.121e+04 -4.430e+04 1.114e+05
87 1 1.10988762396490e+01 1.08992013428960e+01 1.79171604326200e+00 1.299e+06 2.071e+05 5.674e+05 1.035e+05 1.605e+04 1.387e+05
93 1 1.36713274191700e+01 1.10052683099370e+01 1.79171604326200e+00 1.446e+06 8.340e+05 7.585e+05 1.193e+05 3.324e+04 5.860e+04
99 1 1.62518095204040e+01 1.09543900518760e+01 1.79171604326200e+00 1.411e+06 5.018e+05 6.211e+05 -1.989e+05 -5.203e+04 1.216e+05
105 1 1.88372634806190e+01 1.08434483733310e+01 1.79171604326200e+00 1.244e+06 2.212e+04 5.145e+05 8.163e+03 1.836e+04 1.298e+05
111 1 2.14150801072020e+01 1.07625368808240e+01 1.79171604326200e+00 1.100e+06 -8.660e+04 4.138e+05 1.607e+05 6.484e+04 9.044e+04
117 1 2.39713983570070e+01 1.07089924838840e+01 1.79171604326200e+00 1.582e+06 3.355e+04 3.685e+05 2.465e+05 1.072e+05 -1.940e+04
121 1 7.78729957632000e-01 1.26723099014020e+01 3.54681988077000e-01 2.337e+06 1.018e+06 1.385e+06 -4.129e+04 -8.459e+04 2.008e+05
124 1 1.92954726596500e+00 1.47043585867490e+01 1.07319886478100e+00 8.882e+05 1.888e+05 2.868e+05 -3.312e+05 -1.275e+05 -1.986e+04
126 1 2.03713558677500e+00 1.26841535816810e+01 2.51023291996600e+00 1.591e+06 1.271e+05 3.308e+05 -3.359e+05 -1.497e+05 -2.060e+04
127 1 3.29828431052800e+00 1.26977272343050e+01 3.54681988077000e-01 5.411e+05 -3.056e+03 2.701e+05 -3.911e+05 -1.427e+05 8.976e+03
130 1 4.43212584614400e+00 1.47276996479960e+01 1.07319886478100e+00 4.601e+05 1.250e+05 2.654e+05 -4.588e+05 -1.764e+05 -2.906e+04
132 1 4.56302080131700e+00 1.27135966440640e+01 2.51023291996600e+00 7.633e+05 -2.624e+04 3.244e+05 -3.628e+05 -1.433e+05 1.891e+04
133 1 5.83253444782200e+00 1.27326211575720e+01 3.54681988077000e-01 8.484e+05 -6.921e+04 3.500e+05 -3.774e+05 -1.517e+05 2.310e+04
136 1 6.94355257906200e+00 1.47585407109390e+01 1.07319886478100e+00 6.248e+05 4.196e+04 2.949e+05 -5.573e+05 -2.232e+05 -5.839e+04
138 1 7.10851956048000e+00 1.27561594509090e+01 2.51023291996600e+00 9.995e+05 -1.311e+05 3.842e+05 -3.887e+05 -1.553e+05 3.319e+04
139 1 8.39335543934200e+00 1.27864399113600e+01 3.54681988077000e-01 1.195e+06 -1.925e+05 4.285e+05 -3.768e+05 -1.513e+05 5.236e+04
142 1 9.47636400295700e+00 1.48045732173860e+01 1.07319886478100e+00 1.063e+06 -1.363e+05 3.426e+05 -6.627e+05 -2.818e+05 -1.163e+05
144 1 9.69015341647300e+00 1.28271962307820e+01 2.51023291996600e+00 1.432e+06 -2.345e+05 4.929e+05 -3.326e+05 -1.330e+05 8.738e+04
145 1 1.10018769017210e+01 1.28843880495930e+01 3.54681988077000e-01 1.549e+06 -1.845e+05 5.934e+05 -2.845e+05 -1.232e+05 1.340e+05
148 1 1.20838011380170e+01 1.48988571674960e+01 1.07319886478100e+00 2.132e+06 -1.021e+05 9.439e+05 -5.169e+05 -3.039e+05 -2.255e+05
150 1 1.23269178290490e+01 1.29646185274360e+01 2.51023291996600e+00 1.967e+06 3.095e+05 7.404e+05 -3.992e+04 -7.490e+04 2.097e+05
151 1 1.36483639329800e+01 1.30594264991250e+01 3.54681988077000e-01 2.333e+06 1.338e+06 1.035e+06 1.367e+05 -2.399e+03 2.851e+05
156 1 1.51601354853710e+01 1.50191394773450e+01 1.07319886478100e+00 3.077e+06 -1.181e+06 1.665e+06 6.049e+05 3.992e+05 -5.991e+05
158 1 1.49943878614600e+01 1.30555525804340e+01 2.51023291996600e+00 2.289e+06 1.108e+06 1.014e+06 -1.340e+05 -1.034e+04 2.682e+05
159 1 1.63166130398050e+01 1.29605891398640e+01 3.54681988077000e-01 1.935e+06 2.533e+05 7.248e+05 3.238e+04 6.806e+04 2.285e+05
162 1 1.78794203692100e+01 1.48385437774400e+01 1.07319886478100e+00 1.200e+06 -6.040e+05 3.060e+05 6.922e+05 3.329e+05 -1.609e+05
164 1 1.76412684808000e+01 1.28814237762730e+01 2.51023291996600e+00 1.539e+06 -2.051e+05 5.854e+05 2.750e+05 1.200e+05 1.343e+05
165 1 1.89523059310490e+01 1.28251095945340e+01 3.54681988077000e-01 1.418e+06 -2.489e+05 4.901e+05 3.270e+05 1.336e+05 8.338e+04
168 1 2.04350159954820e+01 1.47777703824020e+01 1.07319886478100e+00 7.404e+05 -1.950e+05 2.682e+05 6.014e+05 2.525e+05 -7.229e+04
170 1 2.02485062083530e+01 1.27849218034680e+01 2.51023291996600e+00 1.179e+06 -2.036e+05 4.240e+05 3.726e+05 1.512e+05 5.060e+04
171 1 2.15328920482550e+01 1.27550022746930e+01 3.54681988077000e-01 1.024e+06 -1.480e+05 3.781e+05 3.864e+05 1.534e+05 3.367e+04
176 1 2.28085478641140e+01 1.27317014524500e+01 2.51023291996600e+00 6.978e+05 -1.101e+05 3.039e+05 4.290e+05 1.594e+05 1.571e+04
174 1 2.29540693468190e+01 1.47412150760010e+01 1.07319886478100e+00 5.434e+05 -2.165e+04 2.455e+05 4.895e+05 1.772e+05 -3.483e+04
177 1 2.40778202876450e+01 1.27128397240050e+01 3.54681988077000e-01 1.682e+06 4.416e+04 3.526e+05 3.529e+05 1.709e+05 -1.621e+04
180 1 2.54600618985020e+01 1.47148216424020e+01 1.07319886478100e+00 1.113e+06 4.296e+05 6.685e+05 -5.595e+04 5.866e+04 6.614e+04
182 1 2.53423767105820e+01 1.26970867634860e+01 2.51023291996600e+00 2.402e+06 9.605e+05 1.387e+06 -4.933e+04 7.095e+04 2.089e+05
2 1 1.08206118194900e+00 2.60902235563400e+00 3.22875009844700e+00 3.521e+06 2.037e+06 2.445e+06 -1.083e+04 -4.725e+04 4.770e+05
315 1 1.10967062782800e+00 5.90419899398000e-01 4.66578385185500e+00 2.528e+06 -1.786e+06 1.685e+06 -3.535e+05 9.172e+04 -1.244e+06
318 1 2.34531270098000e+00 2.62787097591900e+00 5.38430103033600e+00 6.259e+05 4.002e+05 4.584e+05 6.223e+04 -7.767e+03 -4.698e+04
8 1 3.60886581406400e+00 2.64798621031800e+00 3.22875009844700e+00 -2.410e+04 8.861e+04 1.722e+05 7.427e+04 9.796e+02 1.251e+05
14 1 6.13565189056600e+00 2.69120899780200e+00 3.22875009844700e+00 6.629e+05 2.894e+05 3.988e+05 7.856e+04 1.630e+04 1.426e+05
321 1 3.63169705884100e+00 6.26856012990000e-01 4.66578385185500e+00 1.808e+05 -2.003e+06 8.118e+04 2.401e+05 1.942e+05 -1.263e+06
324 1 4.87243251717500e+00 2.66920374956300e+00 5.38430103033600e+00 7.763e+05 2.284e+05 3.589e+05 6.556e+04 7.875e+03 1.450e+05
327 1 6.15242067672200e+00 6.65297065458000e-01 4.66578385185500e+00 9.737e+05 -1.777e+06 2.052e+05 3.193e+05 1.717e+05 -1.270e+06
20 1 8.65938988089800e+00 2.73529478999300e+00 3.22875009844700e+00 6.851e+05 3.826e+05 4.087e+05 9.728e+04 2.715e+04 1.386e+05
330 1 7.39811205189100e+00 2.71348829804800e+00 5.38430103033600e+00 6.799e+05 3.309e+05 4.006e+05 9.150e+04 2.272e+04 1.417e+05
333 1 8.66970549516700e+00 7.02370601461000e-01 4.66578385185500e+00 9.354e+05 -1.868e+06 1.803e+05 2.118e+05 1.065e+05 -1.337e+06
26 1 1.11771074894220e+01 2.77333924439600e+00 3.22875009844700e+00 6.488e+05 4.909e+05 4.223e+05 8.367e+04 2.582e+04 1.296e+05
336 1 9.91912445783900e+00 2.75563926478000e+00 5.38430103033600e+00 6.620e+05 4.373e+05 4.157e+05 9.556e+04 2.843e+04 1.341e+05
339 1 1.11819800366700e+01 7.32678192755000e-01 4.66578385185500e+00 9.030e+05 -1.859e+06 1.722e+05 1.184e+05 5.729e+04 -1.366e+06
342 1 1.24333760868740e+01 2.78713969868100e+00 5.38430103033600e+00 6.720e+05 5.391e+05 4.298e+05 6.220e+04 1.917e+04 1.249e+05
32 1 1.36882663420060e+01 2.79590204671800e+00 3.22875009844700e+00 6.781e+05 5.953e+05 4.713e+05 2.586e+04 7.130e+03 1.288e+05
38 1 1.62069697501560e+01 2.78663091914900e+00 3.22875009844700e+00 6.718e+05 5.341e+05 4.298e+05 -6.111e+04 -2.029e+04 1.250e+05
345 1 1.36895508608720e+01 7.49940115937000e-01 4.66578385185500e+00 9.245e+05 -1.731e+06 2.223e+05 3.346e+04 1.425e+04 -1.347e+06
348 1 1.49520295778100e+01 2.79563500605300e+00 5.38430103033600e+00 6.780e+05 5.937e+05 4.713e+05 -2.543e+04 -8.721e+03 1.290e+05
351 1 1.62040343043990e+01 7.42909874133000e-01 4.66578385185500e+00 9.316e+05 -1.664e+06 2.120e+05 -9.206e+04 -4.277e+04 -1.319e+06
44 1 1.87213700854440e+01 2.75479058759800e+00 3.22875009844700e+00 6.435e+05 4.275e+05 4.153e+05 -9.492e+04 -2.874e+04 1.343e+05
354 1 1.74633086498610e+01 2.77263353761500e+00 5.38430103033600e+00 6.505e+05 4.833e+05 4.221e+05 -8.283e+04 -2.654e+04 1.300e+05
357 1 1.87138652545720e+01 7.18092773044000e-01 4.66578385185500e+00 9.161e+05 -1.579e+06 2.401e+05 -1.819e+05 -8.904e+04 -1.267e+06
50 1 2.12425168235780e+01 2.71251158767000e+00 3.22875009844700e+00 7.668e+05 3.027e+05 3.782e+05 -9.174e+04 -2.283e+04 1.440e+05
360 1 1.99811783621450e+01 2.73435801377800e+00 5.38430103033600e+00 6.388e+05 3.756e+05 4.156e+05 -9.439e+04 -2.751e+04 1.378e+05
363 1 2.12288656418060e+01 6.83477779239000e-01 4.66578385185500e+00 1.047e+06 -1.477e+06 2.821e+05 -2.873e+05 -2.002e+05 -1.161e+06
366 1 2.25050193230640e+01 2.69023045837800e+00 5.38430103033600e+00 -1.825e+04 1.614e+05 1.921e+05 -1.135e+05 -1.629e+04 1.238e+05
56 1 2.37682624790010e+01 2.66825081677800e+00 3.22875009844700e+00 6.372e+05 4.446e+05 4.750e+05 -1.039e+05 7.620e+03 -4.305e+04
369 1 2.37482064744750e+01 6.45138848487000e-01 4.66578385185500e+00 9.525e+05 -1.324e+06 3.980e+05 -2.950e+05 -2.959e+05 -1.192e+06
372 1 2.50318354544320e+01 2.64707626010600e+00 5.38430103033600e+00 3.522e+06 2.105e+06 2.452e+06 -1.605e+04 4.237e+04 4.576e+05
5 1 2.31159375408100e+00 4.64367438262600e+00 3.94726697515100e+00 6.680e+05 2.139e+05 3.859e+05 -1.084e+04 -2.127e+04 -8.215e+04
11 1 4.84469684085700e+00 4.68780010898000e+00 3.94726697515100e+00 8.176e+05 1.210e+05 3.584e+05 3.097e+04 6.645e+03 6.185e+04
17 1 7.37850268881800e+00 4.73831682568400e+00 3.94726697515100e+00 7.438e+05 2.420e+05 4.038e+05 7.992e+04 2.395e+04 5.822e+04
23 1 9.90824773227700e+00 4.79018337807900e+00 3.94726697515100e+00 7.293e+05 4.000e+05 4.252e+05 1.116e+05 3.481e+04 4.794e+04
29 1 1.24293178958380e+01 4.83179538602500e+00 3.94726697515100e+00 7.379e+05 5.729e+05 4.447e+05 8.339e+04 2.631e+04 3.301e+04
35 1 1.49538919341550e+01 4.84348573131000e+00 3.94726697515100e+00 7.442e+05 6.582e+05 4.942e+05 -3.641e+04 -1.151e+04 3.528e+04
41 1 1.74705550088800e+01 4.81230416103500e+00 3.94726697515100e+00 7.164e+05 4.849e+05 4.338e+05 -1.065e+05 -3.354e+04 4.121e+04
47 1 1.99965374443830e+01 4.76349089551500e+00 3.94726697515100e+00 7.172e+05 3.156e+05 4.201e+05 -9.988e+04 -3.028e+04 5.313e+04
53 1 2.25290802039060e+01 4.71132559899700e+00 3.94726697515100e+00 -2.275e+04 2.785e+04 1.997e+05 -4.282e+04 -2.180e+04 5.090e+04
59 1 2.50629981695870e+01 4.66385241425900e+00 3.94726697515100e+00 3.446e+06 1.920e+06 2.358e+06 -3.713e+04 -2.860e+04 4.076e+05
62 1 9.40591095267000e-01 8.64706024099300e+00 3.22875009844700e+00 3.095e+06 1.605e+06 2.079e+06 -4.019e+04 -2.222e+04 3.527e+05
375 1 9.99887517713000e-01 6.63668147884900e+00 4.66578385185500e+00 3.275e+06 1.798e+06 2.248e+06 -2.017e+04 -4.656e+03 4.026e+05
378 1 2.20740868956100e+00 8.66441300677500e+00 5.38430103033600e+00 1.176e+06 1.009e+05 3.569e+05 -1.444e+05 -6.357e+04 -4.859e+04
68 1 3.47684053455900e+00 8.68438100299900e+00 3.22875009844700e+00 9.932e+04 -1.271e+05 2.149e+05 -1.614e+05 -5.234e+04 3.996e+04
74 1 6.02418962812000e+00 8.73441149840000e+00 3.22875009844700e+00 9.067e+05 7.256e+03 4.054e+05 -6.012e+04 -3.026e+04 8.172e+04
381 1 3.53523086811300e+00 6.67683360352500e+00 4.66578385185500e+00 -7.859e+03 -1.061e+05 1.919e+05 -7.458e+04 -2.117e+04 4.272e+04
384 1 4.74908499238100e+00 8.70751324820100e+00 5.38430103033600e+00 9.094e+05 -1.786e+04 3.655e+05 -1.007e+05 -4.217e+04 7.395e+04
387 1 6.07672292153300e+00 6.72731130058800e+00 4.66578385185500e+00 8.158e+05 1.008e+05 4.033e+05 1.813e+04 -3.636e+02 7.270e+04
80 1 8.58145003265700e+00 8.80136676290100e+00 3.22875009844700e+00 1.011e+06 1.015e+05 4.559e+05 4.351e+04 5.962e+03 9.580e+04
390 1 7.30190250358900e+00 8.76561958983800e+00 5.38430103033600e+00 9.649e+05 3.658e+04 4.288e+05 -1.574e+04 -1.337e+04 9.053e+04
393 1 8.62060420617700e+00 6.78793684776900e+00 4.66578385185500e+00 8.631e+05 2.288e+05 4.333e+05 9.329e+04 2.592e+04 7.221e+04
86 1 1.11391238876210e+01 8.88235629469000e+00 3.22875009844700e+00 1.016e+06 3.849e+05 5.096e+05 1.561e+05 4.078e+04 8.339e+04
396 1 9.86130281463100e+00 8.84104181150200e+00 5.38430103033600e+00 1.022e+06 2.142e+05 4.830e+05 1.064e+05 2.542e+04 9.428e+04
399 1 1.11588252447210e+01 6.85080754848800e+00 4.66578385185500e+00 8.312e+05 4.617e+05 4.649e+05 1.351e+05 3.974e+04 5.623e+04
402 1 1.24123329759880e+01 8.92047360607800e+00 5.38430103033600e+00 1.061e+06 5.921e+05 5.381e+05 1.656e+05 4.423e+04 6.384e+04
92 1 1.36796042680950e+01 8.94812572792600e+00 3.22875009844700e+00 1.068e+06 7.913e+05 6.250e+05 7.671e+04 2.151e+04 5.258e+04
98 1 1.62286670117480e+01 8.91895793691400e+00 3.22875009844700e+00 1.062e+06 5.829e+05 5.373e+05 -1.665e+05 -4.426e+04 6.414e+04
405 1 1.36838738885840e+01 6.89437175782700e+00 4.66578385185500e+00 8.641e+05 7.181e+05 5.445e+05 4.895e+04 1.489e+04 4.118e+04
408 1 1.49611429974140e+01 8.94723742142100e+00 5.38430103033600e+00 1.068e+06 7.872e+05 6.244e+05 -8.353e+04 -2.321e+04 5.301e+04
411 1 1.62175639599720e+01 6.87581060255100e+00 4.66578385185500e+00 8.611e+05 5.862e+05 4.809e+05 -1.181e+05 -3.473e+04 4.405e+04
104 1 1.87800899771440e+01 8.83923654344400e+00 3.22875009844700e+00 1.011e+06 2.088e+05 4.820e+05 -1.033e+05 -2.459e+04 9.469e+04
414 1 1.75021228113680e+01 8.88056017186000e+00 5.38430103033600e+00 1.018e+06 3.763e+05 5.083e+05 -1.546e+05 -4.038e+04 8.436e+04
417 1 1.87499172431620e+01 6.81869682302100e+00 4.66578385185500e+00 8.355e+05 3.302e+05 4.486e+05 -1.228e+05 -3.550e+04 6.629e+04
110 1 2.13394659829460e+01 8.76415086617900e+00 3.22875009844700e+00 1.018e+06 2.120e+04 4.115e+05 1.720e+04 1.337e+04 9.167e+04
420 1 2.00599730753320e+01 8.79970202651700e+00 5.38430103033600e+00 9.920e+05 1.003e+05 4.576e+05 -4.364e+04 -4.714e+03 9.544e+04
423 1 2.12923012727540e+01 6.75523930348900e+00 4.66578385185500e+00 9.163e+05 1.290e+05 3.951e+05 -5.431e+04 -1.242e+04 7.551e+04
426 1 2.26170753651360e+01 8.73314061651300e+00 5.38430103033600e+00 2.035e+05 -1.247e+05 2.513e+05 1.095e+05 3.279e+04 5.817e+04
116 1 2.38920566452480e+01 8.70642069826500e+00 3.22875009844700e+00 1.232e+06 8.808e+04 3.886e+05 1.109e+05 5.765e+04 -3.575e+04
429 1 2.38356705792790e+01 6.69958876048100e+00 4.66578385185500e+00 9.007e+05 1.753e+05 4.008e+05 1.025e+04 3.288e+04 -5.697e+04
432 1 2.51641746112840e+01 8.68343995901100e+00 5.38430103033600e+00 3.160e+06 1.549e+06 2.087e+06 -5.716e+04 -1.560e+04 3.694e+05
65 1 2.13103091034600e+00 1.06725414330860e+01 3.94726697515100e+00 1.509e+06 8.691e+04 3.408e+05 -2.607e+05 -1.048e+05 -3.695e+04
71 1 4.66972890655500e+00 1.07099615732390e+01 3.94726697515100e+00 8.988e+05 -5.747e+04 3.567e+05 -2.232e+05 -8.731e+04 5.902e+04
77 1 7.22650320629300e+00 1.07639763397520e+01 3.94726697515100e+00 1.061e+06 -7.568e+04 4.246e+05 -1.585e+05 -6.568e+04 9.038e+04
83 1 9.80475236160900e+00 1.08456188408380e+01 3.94726697515100e+00 1.252e+06 2.503e+04 5.161e+05 -4.849e+03 -1.736e+04 1.296e+05
89 1 1.23899363507180e+01 1.09568671893710e+01 3.94726697515100e+00 1.411e+06 5.194e+05 6.227e+05 2.010e+05 5.294e+04 1.211e+05
95 1 1.49699064738320e+01 1.10036111945760e+01 3.94726697515100e+00 1.446e+06 8.211e+05 7.552e+05 -1.299e+05 -3.532e+04 6.348e+04
101 1 1.75431539766460e+01 1.08966989036030e+01 3.94726697515100e+00 1.297e+06 1.903e+05 5.644e+05 -9.613e+04 -1.371e+04 1.371e+05
107 1 2.01287255428620e+01 1.07988050270570e+01 3.94726697515100e+00 1.159e+06 -5.093e+04 4.647e+05 9.150e+04 4.549e+04 1.106e+05
113 1 2.26958353192150e+01 1.07331206444440e+01 3.94726697515100e+00 4.420e+05 -1.567e+05 2.796e+05 2.575e+05 8.833e+04 5.116e+04
119 1 2.52424675388700e+01 1.06888851753500e+01 3.94726697515100e+00 2.935e+06 1.291e+06 1.815e+06 -3.802e+04 2.419e+04 3.049e+05
122 1 6.80090146679000e-01 1.46944930193430e+01 3.22875009844700e+00 1.095e+06 4.973e+05 6.885e+05 2.241e+04 -5.948e+04 6.149e+04
128 1 3.18009184872900e+00 1.47153310316160e+01 3.22875009844700e+00 4.724e+05 1.482e+05 2.657e+05 -4.171e+05 -1.415e+05 -2.151e+04
435 1 7.78729957632000e-01 1.26723099014020e+01 4.66578385185500e+00 2.337e+06 1.018e+06 1.385e+06 -4.129e+04 -8.459e+04 2.008e+05
438 1 1.92954726596500e+00 1.47043585867490e+01 5.38430103033600e+00 8.882e+05 1.888e+05 2.868e+05 -3.312e+05 -1.275e+05 -1.986e+04
134 1 5.68627178597100e+00 1.47418854212320e+01 3.22875009844700e+00 5.288e+05 9.206e+04 2.773e+05 -5.016e+05 -1.998e+05 -4.203e+04
441 1 3.29828431052800e+00 1.26977272343050e+01 4.66578385185500e+00 5.411e+05 -3.056e+03 2.701e+05 -3.911e+05 -1.427e+05 8.977e+03
444 1 4.43212584614400e+00 1.47276996479960e+01 5.38430103033600e+00 4.601e+05 1.250e+05 2.654e+05 -4.588e+05 -1.764e+05 -2.906e+04
447 1 5.83253444782200e+00 1.27326211575720e+01 4.66578385185500e+00 8.484e+05 -6.921e+04 3.500e+05 -3.774e+05 -1.517e+05 2.310e+04
140 1 8.20576576778700e+00 1.47787574573720e+01 3.22875009844700e+00 8.070e+05 -3.303e+04 3.210e+05 -6.187e+05 -2.511e+05 -8.256e+04
450 1 6.94355257906200e+00 1.47585407109390e+01 5.38430103033600e+00 6.248e+05 4.196e+04 2.949e+05 -5.573e+05 -2.232e+05 -5.839e+04
453 1 8.39335543934200e+00 1.27864399113600e+01 4.66578385185500e+00 1.195e+06 -1.925e+05 4.285e+05 -3.768e+05 -1.513e+05 5.236e+04
456 1 9.47636400295700e+00 1.48045732173860e+01 5.38430103033600e+00 1.063e+06 -1.363e+05 3.426e+05 -6.627e+05 -2.818e+05 -1.163e+05
146 1 1.07628050730450e+01 1.48404502526910e+01 3.22875009844700e+00 1.381e+06 -2.510e+05 4.463e+05 -6.361e+05 -3.158e+05 -1.721e+05
459 1 1.10018769017210e+01 1.28843880495930e+01 4.66578385185500e+00 1.549e+06 -1.845e+05 5.934e+05 -2.845e+05 -1.232e+05 1.340e+05
462 1 1.20838011380170e+01 1.48988571674960e+01 5.38430103033600e+00 2.132e+06 -1.021e+05 9.439e+05 -5.169e+05 -3.039e+05 -2.255e+05
152 1 1.34896580336490e+01 1.50280207133490e+01 3.22875009844700e+00 3.412e+06 9.787e+05 2.245e+06 -2.329e+05 -1.357e+05 -1.474e+05
465 1 1.36483639329800e+01 1.30594264991250e+01 4.66578385185500e+00 2.333e+06 1.338e+06 1.035e+06 1.367e+05 -2.399e+03 2.851e+05
470 1 1.51601354853710e+01 1.50191394773450e+01 5.38430103033600e+00 3.077e+06 -1.181e+06 1.665e+06 6.049e+05 3.992e+05 -5.991e+05
473 1 1.63166130398050e+01 1.29605891398640e+01 4.66578385185500e+00 1.935e+06 2.533e+05 7.248e+05 3.238e+04 6.806e+04 2.285e+05
160 1 1.65606658745960e+01 1.48954210003980e+01 3.22875009844700e+00 1.872e+06 -9.011e+05 6.855e+05 6.505e+05 3.736e+05 -2.921e+05
166 1 1.91648999449120e+01 1.48032730707690e+01 3.22875009844700e+00 9.684e+05 -3.499e+05 2.829e+05 6.589e+05 2.906e+05 -1.051e+05
476 1 1.78794203692100e+01 1.48385437774400e+01 5.38430103033600e+00 1.200e+06 -6.040e+05 3.059e+05 6.922e+05 3.329e+05 -1.609e+05
479 1 1.89523059310490e+01 1.28251095945340e+01 4.66578385185500e+00 1.418e+06 -2.489e+05 4.901e+05 3.270e+05 1.336e+05 8.338e+04
172 1 2.16969568609810e+01 1.47577432470350e+01 3.22875009844700e+00 5.812e+05 -9.274e+04 2.481e+05 5.483e+05 2.192e+05 -4.910e+04
482 1 2.04350159954820e+01 1.47777703824020e+01 5.38430103033600e+00 7.404e+05 -1.950e+05 2.682e+05 6.014e+05 2.525e+05 -7.229e+04
485 1 2.15328920482550e+01 1.27550022746930e+01 4.66578385185500e+00 1.024e+06 -1.480e+05 3.781e+05 3.864e+05 1.534e+05 3.367e+04
178 1 2.42081047370060e+01 1.47271207550480e+01 3.22875009844700e+00 9.237e+05 5.354e+04 2.647e+05 3.859e+05 1.582e+05 -2.878e+04
488 1 2.29540693468190e+01 1.47412150760010e+01 5.38430103033600e+00 5.434e+05 -2.165e+04 2.455e+05 4.895e+05 1.772e+05 -3.483e+04
491 1 2.40778202876450e+01 1.27128397240050e+01 4.66578385185500e+00 1.682e+06 4.416e+04 3.526e+05 3.529e+05 1.709e+05 -1.621e+04
494 1 2.54600618985020e+01 1.47148216424020e+01 5.38430103033600e+00 1.113e+06 4.296e+05 6.685e+05 -5.595e+04 5.866e+04 6.614e+04
316 1 1.08206118194900e+00 2.60902235563400e+00 7.53985196222500e+00 3.521e+06 2.037e+06 2.445e+06 -1.083e+04 -4.725e+04 4.770e+05
320 1 2.37072082388800e+00 6.08254923550000e-01 6.82133478374400e+00 8.759e+05 -1.576e+06 3.173e+05 3.343e+05 3.362e+05 -1.225e+06
629 1 1.10967062782800e+00 5.90419899398000e-01 8.97688601741000e+00 2.528e+06 -1.786e+06 1.685e+06 -3.535e+05 9.172e+04 -1.244e+06
322 1 3.60886581406400e+00 2.64798621031800e+00 7.53985196222500e+00 -2.410e+04 8.861e+04 1.722e+05 7.427e+04 9.796e+02 1.251e+05
326 1 4.89235445086100e+00 6.45987220828000e-01 6.82133478374400e+00 1.037e+06 -1.738e+06 2.171e+05 3.691e+05 2.554e+05 -1.193e+06
328 1 6.13565189056600e+00 2.69120899780200e+00 7.53985196222500e+00 6.629e+05 2.894e+05 3.988e+05 7.856e+04 1.630e+04 1.426e+05
635 1 3.63169705884100e+00 6.26856012990000e-01 8.97688601741000e+00 1.808e+05 -2.003e+06 8.119e+04 2.401e+05 1.942e+05 -1.263e+06
641 1 6.15242067672200e+00 6.65297065458000e-01 8.97688601741000e+00 9.737e+05 -1.777e+06 2.052e+05 3.193e+05 1.717e+05 -1.270e+06