ITEM: TIMESTEP
0
ITEM: NUMBER OF ATOMS
9450
ITEM: BOX BOUNDS pp pp pp
0.0000000000000000e+00 5.6002857079999998e+01
0.0000000000000000e+00 6.0968188400000003e+01
0.0000000000000000e+00 3.0177713650000001e+01
ITEM: ATOMS id type x y z c_1[1] c_1[2] c_1[3] c_1[4] c_1[5] c_1[6]
1 1 1.07633235090600e+00 6.10442157309000e-01 3.59258438352000e-01 2.416e+06 -1.722e+06 1.686e+06 -3.276e+05 8.506e+04 -1.210e+06
4 1 2.31615944277200e+00 2.64486463907200e+00 1.07777531505600e+00 5.213e+05 4.340e+05 4.082e+05 5.451e+04 -6.344e+03 -7.361e+04
6 1 2.32907258155700e+00 6.19025868554000e-01 2.51480937024100e+00 7.466e+05 -1.442e+06 2.673e+05 3.730e+05 3.361e+05 -1.171e+06
7 1 3.58184697395100e+00 6.27836991142000e-01 3.59258438352000e-01 -5.874e+04 -1.851e+06 2.240e+04 2.829e+05 2.127e+05 -1.184e+06
10 1 4.82281148384400e+00 2.66325752214800e+00 1.07777531505600e+00 5.345e+05 2.092e+05 2.790e+05 3.323e+04 -6.518e+03 1.128e+05
12 1 4.83463032680200e+00 6.36861502389000e-01 2.51480937024100e+00 8.102e+05 -1.532e+06 1.627e+05 4.443e+05 2.907e+05 -1.089e+06
13 1 6.08739631876800e+00 6.46078673111000e-01 3.59258438352000e-01 7.710e+05 -1.533e+06 1.639e+05 4.293e+05 2.259e+05 -1.146e+06
16 1 7.32955256945900e+00 2.68265394160600e+00 1.07777531505600e+00 4.479e+05 2.424e+05 3.069e+05 4.335e+04 -1.712e+03 1.140e+05
18 1 7.34011470830400e+00 6.55462896670000e-01 2.51480937024100e+00 7.224e+05 -1.577e+06 1.596e+05 3.863e+05 2.024e+05 -1.172e+06
19 1 8.59275357378400e+00 6.64981859924000e-01 3.59258438352000e-01 7.467e+05 -1.606e+06 1.602e+05 3.629e+05 1.892e+05 -1.192e+06
22 1 9.83611276584600e+00 2.70284477655800e+00 1.07777531505600e+00 4.662e+05 2.574e+05 3.122e+05 4.749e+04 2.737e+03 1.161e+05
24 1 9.84527931349300e+00 6.74594714189000e-01 2.51480937024100e+00 7.548e+05 -1.631e+06 1.611e+05 3.391e+05 1.766e+05 -1.211e+06
25 1 1.10976577656870e+01 6.84254513960000e-01 3.59258438352000e-01 7.620e+05 -1.655e+06 1.613e+05 3.153e+05 1.637e+05 -1.229e+06
28 1 1.23421745368040e+01 2.72348738578700e+00 1.07777531505600e+00 4.636e+05 2.756e+05 3.168e+05 5.073e+04 6.813e+03 1.168e+05
30 1 1.23498530885390e+01 6.93904558820000e-01 2.51480937024100e+00 7.682e+05 -1.676e+06 1.611e+05 2.911e+05 1.506e+05 -1.245e+06
31 1 1.36018305602760e+01 7.03479612808000e-01 3.59258438352000e-01 7.727e+05 -1.694e+06 1.606e+05 2.669e+05 1.375e+05 -1.259e+06
34 1 1.48473968249350e+01 2.74407268491800e+00 1.07777531505600e+00 4.584e+05 2.968e+05 3.210e+05 5.235e+04 1.018e+04 1.165e+05
36 1 1.48535588193000e+01 7.12905904416000e-01 2.51480937024100e+00 7.756e+05 -1.710e+06 1.597e+05 2.426e+05 1.245e+05 -1.272e+06
37 1 1.61050076240670e+01 7.22101736273000e-01 3.59258438352000e-01 7.768e+05 -1.722e+06 1.586e+05 2.187e+05 1.116e+05 -1.283e+06
40 1 1.73514553736960e+01 2.76391173342300e+00 1.07777531505600e+00 4.504e+05 3.203e+05 3.246e+05 5.161e+04 1.239e+04 1.155e+05
42 1 1.73561517732910e+01 7.30976265776000e-01 2.51480937024100e+00 7.766e+05 -1.732e+06 1.574e+05 1.951e+05 9.903e+04 -1.293e+06
43 1 1.86069733460590e+01 7.39433163189000e-01 3.59258438352000e-01 7.750e+05 -1.739e+06 1.562e+05 1.720e+05 8.683e+04 -1.301e+06
46 1 1.98540976102020e+01 2.78214305080100e+00 1.07777531505600e+00 4.402e+05 3.445e+05 3.275e+05 4.777e+04 1.306e+04 1.139e+05
48 1 1.98574611417980e+01 7.47371221319000e-01 2.51480937024100e+00 7.725e+05 -1.742e+06 1.552e+05 1.495e+05 7.506e+04 -1.308e+06
49 1 2.11076140404520e+01 7.54687403927000e-01 3.59258438352000e-01 7.691e+05 -1.742e+06 1.546e+05 1.277e+05 6.376e+04 -1.312e+06
52 1 2.23552120887660e+01 2.79778687826200e+00 1.07777531505600e+00 4.292e+05 3.672e+05 3.299e+05 4.039e+04 1.196e+04 1.121e+05
54 1 2.23574393223920e+01 7.61278674775000e-01 2.51480937024100e+00 7.654e+05 -1.738e+06 1.544e+05 1.066e+05 5.294e+04 -1.315e+06
55 1 2.36069577086750e+01 7.67045046034000e-01 3.59258438352000e-01 7.617e+05 -1.731e+06 1.549e+05 8.619e+04 4.262e+04 -1.317e+06
58 1 2.48548850537890e+01 2.80984211815500e+00 1.07777531505600e+00 4.184e+05 3.855e+05 3.313e+05 2.945e+04 9.096e+03 1.106e+05
60 1 2.48561988808160e+01 7.71895065421000e-01 2.51480937024100e+00 7.579e+05 -1.721e+06 1.560e+05 6.633e+04 3.278e+04 -1.317e+06
61 1 2.61052042809280e+01 7.75746425882000e-01 3.59258438352000e-01 7.589e+05 -1.708e+06 1.586e+05 4.730e+04 2.356e+04 -1.315e+06
64 1 2.73534301212700e+01 2.81743082856500e+00 1.07777531505600e+00 4.367e+05 3.994e+05 3.344e+05 1.493e+04 4.723e+03 1.099e+05
66 1 2.73540243115840e+01 7.78532672092000e-01 2.51480937024100e+00 7.756e+05 -1.690e+06 1.625e+05 2.910e+04 1.442e+04 -1.312e+06
3 1 1.04776865368100e+00 4.66097288672100e+00 1.79629249353700e+00 3.432e+06 2.017e+06 2.355e+06 2.347e+03 3.276e+03 4.105e+05
9 1 3.55529209921000e+00 4.67916274573000e+00 1.79629249353700e+00 -3.011e+05 2.197e+04 1.015e+05 4.164e+03 4.999e+03 1.543e+04
15 1 6.06323388608000e+00 4.69865915301600e+00 1.79629249353700e+00 4.253e+05 1.989e+05 3.030e+05 1.135e+04 3.105e+03 2.408e+04
21 1 8.57134256146500e+00 4.71935541425100e+00 1.79629249353700e+00 4.641e+05 2.083e+05 3.015e+05 2.101e+04 7.206e+03 2.563e+04
27 1 1.10792921887360e+01 4.74101802127100e+00 1.79629249353700e+00 4.636e+05 2.285e+05 3.062e+05 3.043e+04 1.082e+04 2.506e+04
33 1 1.35866924279790e+01 4.76323909689700e+00 1.79629249353700e+00 4.616e+05 2.534e+05 3.106e+05 3.871e+04 1.402e+04 2.392e+04
39 1 1.60931198975940e+01 4.78539005910700e+00 1.79629249353700e+00 4.559e+05 2.828e+05 3.145e+05 4.469e+04 1.636e+04 2.218e+04
45 1 1.85981702569540e+01 4.80660150153300e+00 1.79629249353700e+00 4.466e+05 3.153e+05 3.180e+05 4.709e+04 1.737e+04 1.994e+04
51 1 2.11015478109730e+01 4.82577782583000e+00 1.79629249353700e+00 4.350e+05 3.485e+05 3.209e+05 4.477e+04 1.662e+04 1.745e+04
57 1 2.36031573547940e+01 4.84167832936500e+00 1.79629249353700e+00 4.229e+05 3.787e+05 3.229e+05 3.714e+04 1.386e+04 1.503e+04
63 1 2.61031820177590e+01 4.85308120964100e+00 1.79629249353700e+00 4.171e+05 4.021e+05 3.249e+05 2.441e+04 9.159e+03 1.355e+04
133 1 1.03058473701500e+00 6.68511125446400e+00 3.59258438352000e-01 3.363e+06 1.977e+06 2.323e+06 -2.396e+03 3.097e+03 4.243e+05
136 1 2.26565718631400e+00 8.71751446982600e+00 1.07777531505600e+00 6.409e+05 2.868e+05 3.287e+05 -1.191e+04 -1.250e+04 -9.664e+04
138 1 2.28472671917800e+00 6.69411564620800e+00 2.51480937024100e+00 5.672e+05 3.087e+05 3.341e+05 -2.284e+03 -8.751e+03 -1.025e+05
139 1 3.53906303125600e+00 6.70350657626800e+00 3.59258438352000e-01 -3.066e+05 -3.945e+03 1.038e+05 -1.522e+04 -2.921e+03 7.103e+03
142 1 4.77550811058300e+00 8.73682858222900e+00 1.07777531505600e+00 5.409e+05 1.375e+05 2.736e+05 -8.549e+03 -5.157e+03 2.971e+04
144 1 4.79357071207700e+00 6.71328648336900e+00 2.51480937024100e+00 5.354e+05 1.486e+05 2.719e+05 6.556e+02 -1.562e+03 2.759e+04
145 1 6.04822232024000e+00 6.72345536751200e+00 3.59258438352000e-01 4.373e+05 1.814e+05 3.006e+05 4.905e+03 4.891e+02 2.641e+04
148 1 7.28625732067900e+00 8.75797783710300e+00 1.07777531505600e+00 4.702e+05 1.670e+05 2.992e+05 7.844e+02 -7.850e+02 2.946e+04
150 1 7.30298481406000e+00 6.73400469315100e+00 2.51480937024100e+00 4.553e+05 1.817e+05 2.975e+05 9.458e+03 2.728e+03 2.745e+04
151 1 8.55781731145200e+00 6.74491921823800e+00 3.59258438352000e-01 4.759e+05 1.890e+05 3.001e+05 1.536e+04 4.900e+03 2.785e+04
154 1 9.79762816248900e+00 8.78095796667500e+00 1.07777531505600e+00 4.949e+05 1.818e+05 3.054e+05 1.404e+04 4.166e+03 3.031e+04
156 1 9.81267445010100e+00 6.75617333613500e+00 2.51480937024100e+00 4.770e+05 1.982e+05 3.029e+05 2.104e+04 7.064e+03 2.781e+04
157 1 1.10675035873210e+01 6.76772863688300e+00 3.59258438352000e-01 4.782e+05 2.086e+05 3.055e+05 2.668e+04 9.226e+03 2.761e+04
160 1 1.23092101350700e+01 8.80559947938100e+00 1.07777531505600e+00 5.000e+05 2.036e+05 3.116e+05 2.752e+04 9.299e+03 3.020e+04
162 1 1.23222459201120e+01 6.77953207815700e+00 2.51480937024100e+00 4.787e+05 2.206e+05 3.081e+05 3.216e+04 1.133e+04 2.724e+04
163 1 1.35768381652470e+01 6.79151598526900e+00 3.59258438352000e-01 4.782e+05 2.341e+05 3.107e+05 3.730e+04 1.330e+04 2.668e+04
166 1 1.48204493701660e+01 8.83147681726500e+00 1.07777531505600e+00 5.006e+05 2.332e+05 3.177e+05 4.029e+04 1.417e+04 2.917e+04
168 1 1.48312125592680e+01 6.80359134466300e+00 2.51480937024100e+00 4.765e+05 2.492e+05 3.131e+05 4.193e+04 1.509e+04 2.593e+04
169 1 1.60853013387170e+01 6.81565024264700e+00 3.59258438352000e-01 4.736e+05 2.657e+05 3.155e+05 4.582e+04 1.660e+04 2.498e+04
172 1 1.73306794337770e+01 8.85780349069800e+00 1.07777531505600e+00 4.951e+05 2.708e+05 3.235e+05 5.042e+04 1.806e+04 2.713e+04
174 1 1.73390361801100e+01 6.82756403634200e+00 2.51480937024100e+00 4.695e+05 2.835e+05 3.177e+05 4.876e+04 1.776e+04 2.385e+04
175 1 1.85923566003610e+01 6.83918091496000e+00 3.59258438352000e-01 4.644e+05 3.023e+05 3.198e+05 5.053e+04 1.849e+04 2.257e+04
178 1 1.98392070105330e+01 8.88334184545500e+00 1.07777531505600e+00 4.838e+05 3.147e+05 3.286e+05 5.548e+04 2.009e+04 2.418e+04
180 1 1.98452099567830e+01 6.85033077725400e+00 2.51480937024100e+00 4.583e+05 3.217e+05 3.217e+05 5.091e+04 1.870e+04 2.117e+04
181 1 2.10975592874920e+01 6.86082584120600e+00 3.59258438352000e-01 4.515e+05 3.411e+05 3.234e+05 4.973e+04 1.832e+04 1.969e+04
184 1 2.23454782321770e+01 8.90639452717100e+00 1.07777531505600e+00 4.682e+05 3.607e+05 3.327e+05 5.314e+04 1.939e+04 2.068e+04
186 1 2.23493849914870e+01 6.87046856988300e+00 2.51480937024100e+00 4.445e+05 3.600e+05 3.249e+05 4.689e+04 1.732e+04 1.821e+04
187 1 2.36006915489960e+01 6.87905593921900e+00 3.59258438352000e-01 4.373e+05 3.776e+05 3.260e+05 4.232e+04 1.568e+04 1.677e+04
190 1 2.48492886882810e+01 8.92494531785600e+00 1.07777531505600e+00 4.507e+05 4.020e+05 3.355e+05 4.209e+04 1.545e+04 1.741e+04
192 1 2.48515097615930e+01 6.88639102196600e+00 2.51480937024100e+00 4.299e+05 3.932e+05 3.270e+05 3.613e+04 1.341e+04 1.559e+04
193 1 2.61018956321320e+01 6.89229213292100e+00 3.59258438352000e-01 4.297e+05 4.066e+05 3.284e+05 2.827e+04 1.053e+04 1.484e+04
196 1 2.73509687957010e+01 8.93699872870200e+00 1.07777531505600e+00 4.699e+05 4.331e+05 3.397e+05 2.273e+04 8.275e+03 1.552e+04
198 1 2.73519320448430e+01 6.89660319352300e+00 2.51480937024100e+00 4.490e+05 4.179e+05 3.306e+05 1.919e+04 7.059e+03 1.424e+04
135 1 9.89112941261000e-01 1.07312638582660e+01 1.79629249353700e+00 3.225e+06 1.890e+06 2.240e+06 -8.903e+03 -1.471e+03 3.995e+05
141 1 3.49913467424400e+00 1.07495104176900e+01 1.79629249353700e+00 -2.783e+05 -7.259e+03 1.227e+05 -3.903e+04 -1.147e+04 8.205e+03
147 1 6.01050551605400e+00 1.07697841693790e+01 1.79629249353700e+00 4.677e+05 1.519e+05 3.012e+05 -1.544e+04 -7.970e+03 2.986e+04
153 1 8.52306585854800e+00 1.07922399725300e+01 1.79629249353700e+00 5.067e+05 1.563e+05 3.035e+05 -3.350e+03 -2.654e+03 3.229e+04
159 1 1.10365104861560e+01 1.08169290404230e+01 1.79629249353700e+00 5.180e+05 1.723e+05 3.110e+05 1.188e+04 3.091e+03 3.324e+04
165 1 1.35503476937910e+01 1.08437001719490e+01 1.79629249353700e+00 5.257e+05 1.969e+05 3.185e+05 2.815e+04 9.237e+03 3.331e+04
171 1 1.60638791258270e+01 1.08720619635110e+01 1.79629249353700e+00 5.270e+05 2.317e+05 3.259e+05 4.376e+04 1.513e+04 3.218e+04
177 1 1.85762283375500e+01 1.09010169755460e+01 1.79629249353700e+00 5.205e+05 2.771e+05 3.329e+05 5.599e+04 1.979e+04 2.969e+04
183 1 2.10864802422760e+01 1.09289160185580e+01 1.79629249353700e+00 5.063e+05 3.305e+05 3.389e+05 6.129e+04 2.193e+04 2.600e+04
189 1 2.35939364843760e+01 1.09534477885240e+01 1.79629249353700e+00 4.870e+05 3.856e+05 3.435e+05 5.635e+04 2.034e+04 2.167e+04
195 1 2.60984604168790e+01 1.09718998107440e+01 1.79629249353700e+00 4.736e+05 4.323e+05 3.473e+05 3.961e+04 1.441e+04 1.829e+04
265 1 9.64285194632000e-01 1.27534506342980e+01 3.59258438352000e-01 3.152e+06 1.826e+06 2.175e+06 -1.384e+04 -4.579e+03 3.814e+05
268 1 2.19139459768300e+00 1.47835620554590e+01 1.07777531505600e+00 1.012e+06 2.256e+05 3.079e+05 -5.953e+04 -2.681e+04 -7.483e+04
270 1 2.21929410102300e+00 1.27621062880050e+01 2.51480937024100e+00 8.665e+05 2.443e+05 3.152e+05 -3.989e+04 -2.134e+04 -8.215e+04
271 1 3.47473702955700e+00 1.27712795616320e+01 3.59258438352000e-01 -2.466e+05 -5.304e+03 1.340e+05 -5.469e+04 -1.726e+04 8.213e+03
274 1 4.70296760980700e+00 1.48018378796140e+01 1.07777531505600e+00 5.403e+05 1.074e+05 2.773e+05 -5.374e+04 -2.233e+04 3.271e+04
276 1 4.73061622034800e+00 1.27810070360910e+01 2.51480937024100e+00 5.432e+05 1.156e+05 2.762e+05 -3.582e+04 -1.560e+04 3.231e+04
277 1 5.98692663313700e+00 1.27913234632500e+01 3.59258438352000e-01 4.802e+05 1.371e+05 3.002e+05 -2.972e+04 -1.382e+04 3.110e+04
280 1 7.21671745298600e+00 1.48226481513600e+01 1.07777531505600e+00 5.068e+05 1.211e+05 3.003e+05 -4.344e+04 -1.835e+04 3.382e+04
282 1 7.24365706735500e+00 1.28022629852950e+01 2.51480937024100e+00 4.970e+05 1.358e+05 3.008e+05 -2.523e+04 -1.115e+04 3.289e+04
283 1 8.50078624191600e+00 1.28138566960010e+01 3.59258438352000e-01 5.204e+05 1.386e+05 3.043e+05 -1.765e+04 -8.326e+03 3.422e+04
286 1 9.73265084756200e+00 1.48463970897880e+01 1.07777531505600e+00 5.443e+05 1.239e+05 3.091e+05 -2.785e+04 -1.251e+04 3.715e+04
288 1 9.75828223519000e+00 1.28261283729620e+01 2.51480937024100e+00 5.297e+05 1.438e+05 3.087e+05 -9.631e+03 -5.327e+03 3.524e+04
289 1 1.10160968847210e+01 1.28390920388620e+01 3.59258438352000e-01 5.380e+05 1.509e+05 3.130e+05 -9.243e+02 -2.045e+03 3.609e+04
292 1 1.22505863442790e+01 1.48734474556170e+01 1.07777531505600e+00 5.682e+05 1.351e+05 3.193e+05 -8.364e+03 -5.205e+03 3.988e+04
294 1 1.22741674673090e+01 1.28527464743360e+01 2.51480937024100e+00 5.457e+05 1.603e+05 3.174e+05 8.424e+03 1.468e+03 3.673e+04
295 1 1.35324116587540e+01 1.28670703405190e+01 3.59258438352000e-01 5.520e+05 1.726e+05 3.220e+05 1.826e+04 5.154e+03 3.709e+04
298 1 1.47700372783080e+01 1.49039821534130e+01 1.07777531505600e+00 5.877e+05 1.583e+05 3.305e+05 1.505e+04 3.503e+03 4.158e+04
300 1 1.47907269738280e+01 1.28820148628590e+01 2.51480937024100e+00 5.566e+05 1.880e+05 3.266e+05 2.834e+04 8.925e+03 3.710e+04
301 1 1.60489924463580e+01 1.28974934665300e+01 3.59258438352000e-01 5.591e+05 2.068e+05 3.312e+05 3.835e+04 1.266e+04 3.671e+04
304 1 1.72900880029370e+01 1.49377506039220e+01 1.07777531505600e+00 5.983e+05 1.983e+05 3.421e+05 4.045e+04 1.288e+04 4.149e+04
306 1 1.73070647090320e+01 1.29133756796080e+01 2.51480937024100e+00 5.591e+05 2.294e+05 3.358e+05 4.783e+04 1.620e+04 3.588e+04
307 1 1.85647891939630e+01 1.29294743297550e+01 3.59258438352000e-01 5.565e+05 2.556e+05 3.402e+05 5.622e+04 1.934e+04 3.456e+04
310 1 1.98093227659380e+01 1.49736602572080e+01 1.07777531505600e+00 5.959e+05 2.587e+05 3.534e+05 6.335e+04 2.130e+04 3.890e+04
312 1 1.98220029328380e+01 1.29455406667630e+01 2.51480937024100e+00 5.512e+05 2.853e+05 3.443e+05 6.288e+04 2.186e+04 3.278e+04
313 1 2.10785507977420e+01 1.29612576560500e+01 3.59258438352000e-01 5.432e+05 3.177e+05 3.482e+05 6.708e+04 2.350e+04 3.057e+04
316 1 2.23259813975130e+01 1.50092876277820e+01 1.07777531505600e+00 5.785e+05 3.378e+05 3.635e+05 7.625e+04 2.617e+04 3.367e+04
318 1 2.23342961417040e+01 1.29762436367590e+01 2.51480937024100e+00 5.330e+05 3.518e+05 3.516e+05 6.815e+04 2.401e+04 2.804e+04
319 1 2.35891454399520e+01 1.29900596379320e+01 3.59258438352000e-01 5.212e+05 3.858e+05 3.544e+05 6.549e+04 2.320e+04 2.532e+04
322 1 2.48385103784070e+01 1.50405832085690e+01 1.07777531505600e+00 5.493e+05 4.229e+05 3.709e+05 7.058e+04 2.453e+04 2.697e+04
324 1 2.48430628506590e+01 1.30022337657920e+01 2.51480937024100e+00 5.081e+05 4.180e+05 3.568e+05 5.883e+04 2.092e+04 2.278e+04
325 1 2.60960909359960e+01 1.30122898587870e+01 3.59258438352000e-01 5.037e+05 4.466e+05 3.595e+05 4.787e+04 1.712e+04 2.076e+04
328 1 2.73465132083920e+01 1.50623628745110e+01 1.07777531505600e+00 5.654e+05 4.942e+05 3.789e+05 4.180e+04 1.448e+04 2.152e+04
330 1 2.73483540223040e+01 1.30197913846870e+01 2.51480937024100e+00 5.259e+05 4.707e+05 3.631e+05 3.344e+04 1.183e+04 1.902e+04
267 1 9.05234662070000e-01 1.67969108829010e+01 1.79629249353700e+00 2.986e+06 1.657e+06 1.991e+06 -2.712e+04 -1.360e+04 3.338e+05
273 1 3.41534991982400e+00 1.68131381759250e+01 1.79629249353700e+00 -1.222e+05 1.068e+04 1.600e+05 -9.376e+04 -3.186e+04 7.678e+03
279 1 5.92795562463200e+00 1.68317377411600e+01 1.79629249353700e+00 4.922e+05 1.129e+05 2.947e+05 -6.793e+04 -2.917e+04 3.133e+04
285 1 8.44328642846600e+00 1.68532174436160e+01 1.79629249353700e+00 5.369e+05 1.061e+05 3.028e+05 -5.882e+04 -2.451e+04 3.600e+04
291 1 1.09614800983540e+01 1.68781613585360e+01 1.79629249353700e+00 5.708e+05 1.062e+05 3.139e+05 -4.224e+04 -1.830e+04 4.027e+04
297 1 1.34824571102390e+01 1.69071620967120e+01 1.79629249353700e+00 6.037e+05 1.151e+05 3.264e+05 -1.961e+04 -9.861e+03 4.426e+04
303 1 1.60057369596070e+01 1.69406519226000e+01 1.79629249353700e+00 6.315e+05 1.392e+05 3.405e+05 9.247e+03 7.702e+02 4.714e+04
309 1 1.85301906288590e+01 1.69785253612340e+01 1.79629249353700e+00 6.478e+05 1.862e+05 3.555e+05 4.214e+04 1.273e+04 4.764e+04
315 1 2.10538641783120e+01 1.70194508673800e+01 1.79629249353700e+00 6.458e+05 2.627e+05 3.703e+05 7.247e+04 2.365e+04 4.449e+04
321 1 2.35741719560550e+01 1.70599453284330e+01 1.79629249353700e+00 6.226e+05 3.664e+05 3.830e+05 8.782e+04 2.936e+04 3.734e+04
327 1 2.60889242503750e+01 1.70938168151800e+01 1.79629249353700e+00 5.935e+05 4.752e+05 3.932e+05 7.354e+04 2.497e+04 2.879e+04
397 1 8.70692659851000e-01 1.88187318498030e+01 3.59258438352000e-01 2.878e+06 1.551e+06 1.870e+06 -3.297e+04 -1.985e+04 3.055e+05
400 1 2.08614842837300e+00 2.08477452338900e+01 1.07777531505600e+00 1.452e+06 2.018e+05 2.966e+05 -1.294e+05 -5.176e+04 -4.601e+04
402 1 2.12493152695800e+00 1.88260144999070e+01 2.51480937024100e+00 1.323e+06 2.024e+05 2.967e+05 -1.069e+05 -4.183e+04 -5.795e+04
403 1 3.37980938666400e+00 1.88338098924760e+01 3.59258438352000e-01 -2.002e+04 2.738e+04 1.752e+05 -1.168e+05 -4.056e+04 7.608e+03
406 1 4.59494537887100e+00 2.08625099000750e+01 1.07777531505600e+00 5.015e+05 1.059e+05 2.738e+05 -1.204e+05 -4.755e+04 2.684e+04
408 1 4.63537664154000e+00 1.88421777763340e+01 2.51480937024100e+00 5.226e+05 1.015e+05 2.767e+05 -9.687e+04 -3.852e+04 3.020e+04
409 1 5.89168649430200e+00 1.88511864358520e+01 3.59258438352000e-01 4.877e+05 1.066e+05 2.897e+05 -9.165e+04 -3.853e+04 2.966e+04
412 1 7.10690313062300e+00 2.08796706160640e+01 1.07777531505600e+00 4.974e+05 1.003e+05 2.901e+05 -1.188e+05 -4.807e+04 2.915e+04
414 1 7.14879158763300e+00 1.88609133006290e+01 2.51480937024100e+00 5.096e+05 1.014e+05 2.954e+05 -9.083e+04 -3.702e+04 3.236e+04
415 1 8.40674568427900e+00 1.88714467745390e+01 3.59258438352000e-01 5.350e+05 9.526e+04 2.996e+05 -8.597e+04 -3.515e+04 3.493e+04
418 1 9.62266683654200e+00 2.08999364418880e+01 1.07777531505600e+00 5.478e+05 8.350e+04 3.004e+05 -1.134e+05 -4.599e+04 3.487e+04
420 1 9.66559806675100e+00 1.88828831873190e+01 2.51480937024100e+00 5.568e+05 9.091e+04 3.055e+05 -7.993e+04 -3.290e+04 3.760e+04
421 1 1.09253924172800e+01 1.88953316720270e+01 3.59258438352000e-01 5.779e+05 8.745e+04 3.117e+05 -7.229e+04 -3.002e+04 4.040e+04
424 1 1.21429572533990e+01 2.09242725039700e+01 1.07777531505600e+00 6.008e+05 6.850e+04 3.144e+05 -1.017e+05 -4.156e+04 4.177e+04
426 1 1.21861584173790e+01 1.89089074585380e+01 2.51480937024100e+00 6.002e+05 8.561e+04 3.186e+05 -6.275e+04 -2.644e+04 4.333e+04
427 1 1.34479067075920e+01 1.89237324832290e+01 3.59258438352000e-01 6.230e+05 8.614e+04 3.261e+05 -5.104e+04 -2.208e+04 4.631e+04
430 1 1.46684671365360e+01 2.09539621826750e+01 1.07777531505600e+00 6.618e+05 5.892e+04 3.321e+05 -8.003e+04 -3.348e+04 4.995e+04
432 1 1.47106171268890e+01 1.89399256340680e+01 2.51480937024100e+00 6.455e+05 9.001e+04 3.343e+05 -3.692e+04 -1.686e+04 4.921e+04
433 1 1.59742263920420e+01 1.89575929957030e+01 3.59258438352000e-01 6.668e+05 9.849e+04 3.431e+05 -2.028e+04 -1.076e+04 5.188e+04
436 1 1.71995806655520e+01 2.09905772379010e+01 1.07777531505600e+00 7.255e+05 6.400e+04 3.540e+05 -4.430e+04 -2.040e+04 5.870e+04
438 1 1.72386101767090e+01 1.89768065105950e+01 2.51480937024100e+00 6.860e+05 1.131e+05 3.525e+05 -1.168e+03 -3.817e+03 5.408e+04
439 1 1.85035668706030e+01 1.89975759336550e+01 3.59258438352000e-01 7.016e+05 1.356e+05 3.624e+05 2.006e+04 3.807e+03 5.551e+04
442 1 1.97357428521340e+01 2.10356211451720e+01 1.07777531505600e+00 7.802e+05 1.012e+05 3.803e+05 8.116e+03 -1.731e+03 6.570e+04
444 1 1.97688007786400e+01 1.90198024964180e+01 2.51480937024100e+00 7.120e+05 1.680e+05 3.725e+05 4.254e+04 1.179e+04 5.584e+04
445 1 2.10339148405630e+01 1.90432240356740e+01 3.59258438352000e-01 7.156e+05 2.119e+05 3.827e+05 6.479e+04 1.961e+04 5.473e+04
448 1 2.22743747647140e+01 2.10892109634120e+01 1.07777531505600e+00 8.057e+05 1.974e+05 4.091e+05 7.176e+04 2.011e+04 6.630e+04
450 1 2.22984173512870e+01 1.90673460994150e+01 2.51480937024100e+00 7.114e+05 2.681e+05 3.926e+05 8.447e+04 2.647e+04 5.199e+04
451 1 2.35617662031540e+01 1.90913730527810e+01 3.59258438352000e-01 6.989e+05 3.352e+05 4.014e+05 9.830e+04 3.135e+04 4.754e+04
454 1 2.48099360406390e+01 2.11468765050470e+01 1.07777531505600e+00 7.825e+05 3.718e+05 4.355e+05 1.199e+05 3.617e+04 5.606e+04
456 1 2.48234528902240e+01 1.91141739358790e+01 2.51480937024100e+00 6.783e+05 4.093e+05 4.093e+05 1.027e+05 3.306e+04 4.193e+04
457 1 2.60831279546670e+01 1.91343135575530e+01 3.59258438352000e-01 6.640e+05 4.841e+05 4.169e+05 9.355e+04 3.046e+04 3.589e+04
460 1 2.73358233830330e+01 2.11952584206330e+01 1.07777531505600e+00 7.913e+05 5.823e+05 4.602e+05 9.750e+04 2.984e+04 3.752e+04
462 1 2.73407454741420e+01 1.91501908931760e+01 2.51480937024100e+00 6.885e+05 5.518e+05 4.251e+05 7.095e+04 2.297e+04 2.974e+04
399 1 7.91590304312000e-01 2.28644180469640e+01 1.79629249353700e+00 2.511e+06 1.271e+06 1.541e+06 -2.727e+04 -3.480e+04 2.421e+05
405 1 3.29657178015700e+00 2.28768299507580e+01 1.79629249353700e+00 2.449e+05 8.382e+04 2.126e+05 -1.615e+05 -5.872e+04 1.035e+04
411 1 5.80433043768500e+00 2.28910837035240e+01 1.79629249353700e+00 4.478e+05 1.143e+05 2.748e+05 -1.436e+05 -5.872e+04 2.115e+04
417 1 8.31557303295200e+00 2.29077432610040e+01 1.79629249353700e+00 4.963e+05 9.712e+04 2.865e+05 -1.491e+05 -6.004e+04 2.652e+04
423 1 1.08312191328720e+01 2.29276225485140e+01 1.79629249353700e+00 5.511e+05 7.525e+04 2.990e+05 -1.491e+05 -6.009e+04 3.269e+04
429 1 1.33524307967280e+01 2.29519171522280e+01 1.79629249353700e+00 6.184e+05 5.113e+04 3.152e+05 -1.426e+05 -5.760e+04 4.093e+04
435 1 1.58805868148610e+01 2.29823890527900e+01 1.79629249353700e+00 7.009e+05 2.893e+04 3.368e+05 -1.242e+05 -5.066e+04 5.184e+04
441 1 1.84170094147290e+01 2.30215489201990e+01 1.79629249353700e+00 7.957e+05 1.983e+04 3.656e+05 -8.556e+04 -3.650e+04 6.544e+04
447 1 2.09620446939870e+01 2.30724945481080e+01 1.79629249353700e+00 8.862e+05 5.010e+04 4.028e+05 -1.790e+04 -1.272e+04 7.908e+04
453 1 2.35127597830090e+01 2.31370421788490e+01 1.79629249353700e+00 9.344e+05 1.714e+05 4.460e+05 7.651e+04 1.863e+04 8.377e+04
459 1 2.60598100450650e+01 2.32088346594180e+01 1.79629249353700e+00 9.160e+05 4.363e+05 4.870e+05 1.493e+05 4.162e+04 6.786e+04
529 1 7.47502055075000e-01 2.48891471964520e+01 3.59258438352000e-01 2.169e+06 1.078e+06 1.318e+06 -1.551e+04 -3.975e+04 1.918e+05
532 1 1.94977475104000e+00 2.69206047952130e+01 1.07777531505600e+00 1.274e+06 4.789e+05 3.971e+05 -2.468e+05 -4.627e+04 -8.894e+04
534 1 1.99812817787200e+00 2.48945465392170e+01 2.51480937024100e+00 1.462e+06 2.304e+05 3.113e+05 -1.590e+05 -7.204e+04 -1.643e+04
535 1 3.24928576778200e+00 2.49002805973360e+01 3.59258438352000e-01 3.671e+05 1.356e+05 2.353e+05 -1.859e+05 -6.983e+04 1.848e+04
538 1 4.44851918869300e+00 2.69312583764540e+01 1.07777531505600e+00 3.806e+05 2.463e+05 2.602e+05 -2.317e+05 -9.134e+04 4.091e+04
540 1 4.50104426834800e+00 2.49063920485410e+01 2.51480937024100e+00 4.169e+05 1.436e+05 2.618e+05 -1.694e+05 -6.847e+04 2.113e+04
541 1 5.75348488371400e+00 2.49129333254750e+01 3.59258438352000e-01 4.108e+05 1.324e+05 2.653e+05 -1.686e+05 -6.887e+04 1.504e+04
544 1 6.94931781114300e+00 2.69432825225700e+01 1.07777531505600e+00 3.775e+05 1.540e+05 2.606e+05 -1.970e+05 -8.040e+04 9.132e+03
546 1 7.00670393879300e+00 2.49199678350520e+01 2.51480937024100e+00 4.330e+05 1.249e+05 2.726e+05 -1.744e+05 -7.018e+04 1.651e+04
547 1 8.26081455935700e+00 2.49275717875090e+01 3.59258438352000e-01 4.542e+05 1.147e+05 2.759e+05 -1.803e+05 -7.247e+04 1.882e+04
550 1 9.45287905453300e+00 2.69570930366060e+01 1.07777531505600e+00 4.168e+05 1.347e+05 2.666e+05 -2.160e+05 -8.684e+04 1.046e+04
552 1 9.51595227231900e+00 2.49358396835380e+01 2.51480937024100e+00 4.801e+05 1.033e+05 2.812e+05 -1.854e+05 -7.452e+04 2.108e+04
553 1 1.07722766858240e+01 2.49448891917430e+01 3.59258438352000e-01 5.074e+05 9.030e+04 2.871e+05 -1.903e+05 -7.643e+04 2.373e+04
556 1 1.19602658530900e+01 2.69733258167680e+01 1.07777531505600e+00 4.670e+05 1.095e+05 2.767e+05 -2.374e+05 -9.525e+04 1.346e+04
558 1 1.20299793296410e+01 2.49548678551380e+01 2.51480937024100e+00 5.397e+05 7.566e+04 2.941e+05 -1.945e+05 -7.805e+04 2.690e+04
559 1 1.32892898154840e+01 2.49659622363810e+01 3.59258438352000e-01 5.772e+05 5.929e+04 3.023e+05 -1.976e+05 -7.923e+04 3.074e+04
562 1 1.44731319711840e+01 2.69930081770290e+01 1.07777531505600e+00 5.400e+05 7.400e+04 2.914e+05 -2.607e+05 -1.043e+05 1.804e+04
564 1 1.45504797572120e+01 2.49784119404520e+01 2.51480937024100e+00 6.208e+05 4.120e+04 3.121e+05 -1.990e+05 -7.970e+04 3.543e+04
565 1 1.58138711712510e+01 2.49925242470210e+01 3.59258438352000e-01 6.716e+05 2.165e+04 3.238e+05 -1.975e+05 -7.908e+04 4.121e+04
568 1 1.69941599456690e+01 2.70179258756280e+01 1.07777531505600e+00 6.489e+05 2.352e+04 3.139e+05 -2.834e+05 -1.131e+05 2.568e+04
570 1 1.70798347965150e+01 2.50087009364500e+01 2.51480937024100e+00 7.304e+05 1.429e+03 3.378e+05 -1.918e+05 -7.685e+04 4.838e+04
571 1 1.83487856141770e+01 2.50274602383380e+01 3.59258438352000e-01 7.977e+05 -1.781e+04 3.547e+05 -1.798e+05 -7.227e+04 5.729e+04
574 1 1.95278479260250e+01 2.70514522824290e+01 1.07777531505600e+00 8.158e+05 -4.596e+04 3.495e+05 -2.964e+05 -1.177e+05 4.009e+04
576 1 1.96211537261770e+01 2.50494697543510e+01 2.51480937024100e+00 8.732e+05 -3.283e+04 3.752e+05 -1.587e+05 -6.445e+04 6.821e+04
577 1 2.08973081913450e+01 2.50755592615310e+01 3.59258438352000e-01 9.540e+05 -3.780e+04 4.002e+05 -1.250e+05 -5.245e+04 8.107e+04
580 1 2.20817277365010e+01 2.71005444774110e+01 1.07777531505600e+00 1.066e+06 -1.209e+05 4.093e+05 -2.703e+05 -1.069e+05 7.133e+04
582 1 2.21774013374510e+01 2.51066816926630e+01 2.51480937024100e+00 1.033e+06 -2.372e+04 4.305e+05 -7.596e+04 -3.575e+04 9.482e+04
583 1 2.34610680258670e+01 2.51437210864800e+01 3.59258438352000e-01 1.097e+06 2.528e+04 4.656e+05 -1.011e+04 -1.393e+04 1.078e+05
586 1 2.46661503851720e+01 2.71799768816680e+01 1.07777531505600e+00 1.378e+06 -6.693e+04 5.211e+05 -1.225e+05 -6.358e+04 1.370e+05
588 1 2.47469580277100e+01 2.51869365577820e+01 2.51480937024100e+00 1.136e+06 1.294e+05 5.024e+05 7.116e+04 1.164e+04 1.162e+05
589 1 2.60322560793530e+01 2.52347331787600e+01 3.59258438352000e-01 1.148e+06 3.097e+05 5.391e+05 1.483e+05 3.654e+04 1.083e+05
592 1 2.72770819862420e+01 2.73086648756510e+01 1.07777531505600e+00 1.691e+06 4.879e+05 6.988e+05 1.644e+05 3.982e+04 1.830e+05
594 1 2.73128941332590e+01 2.52817396520160e+01 2.51480937024100e+00 1.217e+06 5.804e+05 5.813e+05 1.965e+05 5.140e+04 7.809e+04
531 1 6.52818024610000e-01 2.89444163734660e+01 1.79629249353700e+00 7.241e+05 -4.156e+06 -3.484e+05 -2.290e+05 -1.006e+05 -1.114e+06
537 1 3.14634635615400e+00 2.89538103519350e+01 1.79629249353700e+00 2.339e+05 -2.890e+04 2.515e+05 -4.736e+04 1.349e+05 -1.574e+05
543 1 5.64081553569700e+00 2.89642005506020e+01 1.79629249353700e+00 2.534e+05 1.744e+05 2.352e+05 -1.671e+05 -7.565e+04 -4.631e+03
549 1 8.13655317995300e+00 2.89758296228570e+01 1.79629249353700e+00 3.227e+05 1.848e+05 2.472e+05 -2.234e+05 -9.018e+04 -1.051e+03
555 1 1.06340560342640e+01 2.89890444776930e+01 1.79629249353700e+00 3.492e+05 1.723e+05 2.515e+05 -2.510e+05 -1.010e+05 -1.486e+03
561 1 1.31341165390580e+01 2.90043657834380e+01 1.79629249353700e+00 3.868e+05 1.537e+05 2.583e+05 -2.853e+05 -1.146e+05 -2.298e+03
567 1 1.56380787629050e+01 2.90226275849090e+01 1.79629249353700e+00 4.453e+05 1.247e+05 2.690e+05 -3.292e+05 -1.318e+05 -3.785e+03
573 1 1.81484040313730e+01 2.90452986057660e+01 1.79629249353700e+00 5.426e+05 7.631e+04 2.869e+05 -3.857e+05 -1.541e+05 -6.676e+03
579 1 2.06700849991710e+01 2.90753242191890e+01 1.79629249353700e+00 7.222e+05 -1.099e+04 3.199e+05 -4.566e+05 -1.835e+05 -1.254e+04
585 1 2.32147131376580e+01 2.91198986714100e+01 1.79629249353700e+00 1.033e+06 -1.910e+05 3.837e+05 -5.534e+05 -2.289e+05 -2.895e+04
591 1 2.58134809181700e+01 2.92026575000260e+01 1.79629249353700e+00 1.568e+06 -6.703e+05 4.643e+05 -6.168e+05 -2.997e+05 -1.229e+05
2 1 1.06293702752100e+00 2.63608095216900e+00 3.23332654872200e+00 3.419e+06 2.060e+06 2.426e+06 3.002e+03 -5.264e+04 4.612e+05
1351 1 1.07633235090600e+00 6.10442157309000e-01 4.67036030213000e+00 2.416e+06 -1.722e+06 1.686e+06 -3.276e+05 8.506e+04 -1.210e+06
1354 1 2.31615944277200e+00 2.64486463907200e+00 5.38887748061100e+00 5.213e+05 4.340e+05 4.082e+05 5.451e+04 -6.344e+03 -7.361e+04
8 1 3.56945914196500e+00 2.65392695059500e+00 3.23332654872200e+00 -2.481e+05 9.012e+04 1.045e+05 6.256e+04 -7.290e+03 9.298e+04
14 1 6.07618678689400e+00 2.67284050200100e+00 3.23332654872200e+00 4.249e+05 2.402e+05 3.111e+05 3.850e+04 -3.526e+03 1.117e+05
1357 1 3.58184697395100e+00 6.27836991142000e-01 4.67036030213000e+00 -5.874e+04 -1.851e+06 2.240e+04 2.829e+05 2.127e+05 -1.184e+06
1360 1 4.82281148384400e+00 2.66325752214800e+00 5.38887748061100e+00 5.345e+05 2.092e+05 2.790e+05 3.323e+04 -6.518e+03 1.128e+05
1363 1 6.08739631876800e+00 6.46078673111000e-01 4.67036030213000e+00 7.710e+05 -1.533e+06 1.639e+05 4.293e+05 2.259e+05 -1.146e+06