ITEM: TIMESTEP
0
ITEM: NUMBER OF ATOMS
5340
ITEM: BOX BOUNDS pp pp pp
0.0000000000000000e+00 1.1076120622000001e+02
0.0000000000000000e+00 6.0968188400000003e+01
0.0000000000000000e+00 8.6222039000000006e+00
ITEM: ATOMS id type x y z c_1[1] c_1[2] c_1[3] c_1[4] c_1[5] c_1[6]
1 1 9.25785358457000e-01 7.39333785042000e-01 3.59258524574000e-01 1.890e+06 -1.177e+06 1.266e+06 2.096e+05 7.486e+04 -8.554e+05
6 1 2.17556607451300e+00 7.43447308713000e-01 2.51480949957400e+00 1.114e+06 -1.353e+06 6.347e+04 9.531e+05 3.545e+05 -8.355e+05
7 1 3.42548524207600e+00 7.47695572081000e-01 3.59258524574000e-01 3.099e+05 -1.495e+06 -3.532e+04 8.055e+05 4.505e+05 -8.780e+05
12 1 4.67554507637200e+00 7.52084062282000e-01 2.51480949957400e+00 3.714e+05 -1.546e+06 -2.883e+04 7.743e+05 4.350e+05 -9.016e+05
13 1 5.92575111545900e+00 7.56620705181000e-01 3.59258524574000e-01 3.693e+05 -1.591e+06 -3.101e+04 7.762e+05 4.337e+05 -9.256e+05
18 1 7.17610557456300e+00 7.61311597596000e-01 2.51480949957400e+00 3.806e+05 -1.636e+06 -3.265e+04 7.758e+05 4.324e+05 -9.503e+05
19 1 8.42660956129600e+00 7.66164055711000e-01 3.59258524574000e-01 3.929e+05 -1.682e+06 -3.427e+04 7.745e+05 4.306e+05 -9.756e+05
24 1 9.67726529088100e+00 7.71185395708000e-01 2.51480949957400e+00 4.056e+05 -1.729e+06 -3.598e+04 7.725e+05 4.283e+05 -1.002e+06
25 1 1.09280749785420e+01 7.76382324087000e-01 3.59258524574000e-01 4.185e+05 -1.778e+06 -3.779e+04 7.696e+05 4.255e+05 -1.028e+06
30 1 1.21790397318920e+01 7.81763376395000e-01 2.51480949957400e+00 4.318e+05 -1.828e+06 -3.970e+04 7.658e+05 4.222e+05 -1.055e+06
31 1 1.34301617661560e+01 7.87336478497000e-01 3.59258524574000e-01 4.453e+05 -1.879e+06 -4.171e+04 7.611e+05 4.183e+05 -1.083e+06
36 1 1.46814399737190e+01 7.93107727211000e-01 2.51480949957400e+00 4.593e+05 -1.931e+06 -4.364e+04 7.555e+05 4.141e+05 -1.111e+06
37 1 1.59328743545840e+01 7.99086877447000e-01 3.59258524574000e-01 4.716e+05 -1.984e+06 -4.725e+04 7.475e+05 4.075e+05 -1.140e+06
42 1 1.71844638011370e+01 8.05280026025000e-01 2.51480949957400e+00 4.793e+05 -2.041e+06 -5.455e+04 7.354e+05 3.962e+05 -1.172e+06
43 1 1.84362049905430e+01 8.11695708490000e-01 3.59258524574000e-01 4.938e+05 -2.096e+06 -5.690e+04 7.263e+05 3.899e+05 -1.202e+06
48 1 1.96880934923530e+01 8.18340021662000e-01 2.51480949957400e+00 5.082e+05 -2.151e+06 -5.938e+04 7.159e+05 3.830e+05 -1.231e+06
49 1 2.09401259837310e+01 8.25219062359000e-01 3.59258524574000e-01 5.348e+05 -2.204e+06 -6.054e+04 6.982e+05 3.795e+05 -1.262e+06
54 1 2.21922947113930e+01 8.32339537082000e-01 2.51480949957400e+00 5.501e+05 -2.260e+06 -6.322e+04 6.846e+05 3.713e+05 -1.292e+06
55 1 2.34445919220540e+01 8.39704494241000e-01 3.59258524574000e-01 5.651e+05 -2.317e+06 -6.607e+04 6.696e+05 3.624e+05 -1.322e+06
60 1 2.46970065395940e+01 8.47318201609000e-01 2.51480949957400e+00 5.795e+05 -2.373e+06 -6.912e+04 6.533e+05 3.525e+05 -1.352e+06
61 1 2.59495274878920e+01 8.55180659185000e-01 3.59258524574000e-01 5.937e+05 -2.429e+06 -7.233e+04 6.356e+05 3.419e+05 -1.381e+06
66 1 2.72021403679900e+01 8.63291866969000e-01 2.51480949957400e+00 6.073e+05 -2.485e+06 -7.572e+04 6.163e+05 3.305e+05 -1.410e+06
67 1 2.84548274580970e+01 8.71647557190000e-01 3.59258524574000e-01 6.204e+05 -2.541e+06 -7.928e+04 5.957e+05 3.183e+05 -1.439e+06
72 1 2.97075710364190e+01 8.80241633026000e-01 2.51480949957400e+00 6.328e+05 -2.595e+06 -8.303e+04 5.735e+05 3.054e+05 -1.467e+06
73 1 3.09603456278790e+01 8.89062510524000e-01 3.59258524574000e-01 6.443e+05 -2.648e+06 -8.696e+04 5.501e+05 2.918e+05 -1.495e+06
78 1 3.22131290802360e+01 8.98096166999000e-01 2.51480949957400e+00 6.549e+05 -2.699e+06 -9.105e+04 5.254e+05 2.776e+05 -1.522e+06
79 1 3.34658937031870e+01 9.07321263586000e-01 3.59258524574000e-01 6.644e+05 -2.749e+06 -9.532e+04 4.995e+05 2.627e+05 -1.547e+06
84 1 3.47186084835960e+01 9.16712193645000e-01 2.51480949957400e+00 6.727e+05 -2.797e+06 -9.973e+04 4.726e+05 2.474e+05 -1.572e+06
85 1 3.59712435159360e+01 9.26236034355000e-01 3.59258524574000e-01 6.797e+05 -2.842e+06 -1.043e+05 4.449e+05 2.317e+05 -1.596e+06
90 1 3.72237633566210e+01 9.35851937030000e-01 2.51480949957400e+00 6.853e+05 -2.884e+06 -1.089e+05 4.164e+05 2.156e+05 -1.618e+06
91 1 3.84761336696780e+01 9.45512346482000e-01 3.59258524574000e-01 6.894e+05 -2.923e+06 -1.136e+05 3.874e+05 1.993e+05 -1.638e+06
96 1 3.97283201191330e+01 9.55160562296000e-01 2.51480949957400e+00 6.921e+05 -2.959e+06 -1.183e+05 3.582e+05 1.829e+05 -1.658e+06
97 1 4.09802883690120e+01 9.64730738829000e-01 3.59258524574000e-01 6.933e+05 -2.991e+06 -1.230e+05 3.289e+05 1.665e+05 -1.675e+06
102 1 4.22320051909520e+01 9.74149104573000e-01 2.51480949957400e+00 6.931e+05 -3.018e+06 -1.275e+05 2.996e+05 1.502e+05 -1.691e+06
103 1 4.34834406794290e+01 9.83332133110000e-01 3.59258524574000e-01 6.917e+05 -3.042e+06 -1.318e+05 2.707e+05 1.342e+05 -1.705e+06
108 1 4.47345704669760e+01 9.92190810885000e-01 2.51480949957400e+00 6.890e+05 -3.061e+06 -1.359e+05 2.423e+05 1.185e+05 -1.716e+06
109 1 4.59853779394140e+01 1.00062697911400e+00 3.59258524574000e-01 6.854e+05 -3.075e+06 -1.394e+05 2.146e+05 1.032e+05 -1.726e+06
114 1 4.72358509130080e+01 1.00854004028600e+00 2.51480949957400e+00 6.811e+05 -3.084e+06 -1.425e+05 1.876e+05 8.839e+04 -1.734e+06
115 1 4.84859882801480e+01 1.01582634848200e+00 3.59258524574000e-01 6.760e+05 -3.088e+06 -1.451e+05 1.612e+05 7.429e+04 -1.739e+06
120 1 4.97358000093420e+01 1.02238347714400e+00 2.51480949957400e+00 6.717e+05 -3.086e+06 -1.457e+05 1.365e+05 5.982e+04 -1.743e+06
121 1 5.09853049299940e+01 1.02811143844400e+00 3.59258524574000e-01 6.675e+05 -3.078e+06 -1.462e+05 1.131e+05 4.627e+04 -1.745e+06
126 1 5.22345362704670e+01 1.03291878010000e+00 2.51480949957400e+00 6.609e+05 -3.068e+06 -1.511e+05 8.785e+04 3.695e+04 -1.741e+06
127 1 5.34835316895700e+01 1.03672502410100e+00 3.59258524574000e-01 6.528e+05 -3.057e+06 -1.556e+05 6.093e+04 2.868e+04 -1.734e+06
132 1 5.47323454602960e+01 1.03946310544200e+00 2.51480949957400e+00 6.693e+05 -3.048e+06 -1.533e+05 3.138e+04 1.819e+04 -1.726e+06
3 1 8.92802886469000e-01 4.79304583452400e+00 1.79629245042600e+00 2.263e+06 1.183e+06 1.515e+06 -2.364e+04 -1.059e+04 4.078e+05
4 1 2.15944478094800e+00 2.77016645987100e+00 1.07777548750000e+00 7.082e+05 -7.716e+04 1.067e+05 -6.335e+04 -2.605e+04 1.083e+05
9 1 3.39216051796100e+00 4.80088573387000e+00 1.79629245042600e+00 5.284e+04 -5.928e+04 2.766e+04 -4.121e+04 -2.586e+04 1.246e+04
10 1 4.65930859115200e+00 2.77855568259500e+00 1.07777548750000e+00 1.458e+05 -5.566e+04 3.313e+04 -3.544e+04 -2.265e+04 2.338e+04
15 1 5.89215613400100e+00 4.80928166309500e+00 1.79629245042600e+00 1.270e+05 -6.514e+04 3.118e+04 -4.004e+04 -2.473e+04 2.022e+04
16 1 7.15979598694800e+00 2.78753690642800e+00 1.07777548750000e+00 1.327e+05 -6.004e+04 3.312e+04 -3.333e+04 -2.175e+04 2.496e+04
21 1 8.39283293145900e+00 4.81829459038600e+00 1.79629245042600e+00 1.338e+05 -6.798e+04 3.325e+04 -3.872e+04 -2.399e+04 2.155e+04
22 1 9.66093465863600e+00 2.79716988019600e+00 1.07777548750000e+00 1.401e+05 -6.235e+04 3.530e+04 -3.120e+04 -2.069e+04 2.628e+04
27 1 1.08942296767580e+01 4.82799401947900e+00 1.79629245042600e+00 1.422e+05 -7.053e+04 3.568e+04 -3.697e+04 -2.300e+04 2.299e+04
28 1 1.21627545117420e+01 2.80752166890400e+00 1.07777548750000e+00 1.480e+05 -6.435e+04 3.767e+04 -2.860e+04 -1.936e+04 2.766e+04
33 1 1.33963873515430e+01 4.83845616060800e+00 1.79629245042600e+00 1.511e+05 -7.283e+04 3.834e+04 -3.471e+04 -2.172e+04 2.452e+04
34 1 1.46652765908960e+01 2.81866299565200e+00 1.07777548750000e+00 1.561e+05 -6.591e+04 4.024e+04 -2.545e+04 -1.772e+04 2.910e+04
39 1 1.58993391841770e+01 4.84976454019200e+00 1.79629245042600e+00 1.604e+05 -7.471e+04 4.122e+04 -3.187e+04 -2.009e+04 2.612e+04
40 1 1.71685164026660e+01 2.83066885131200e+00 1.07777548750000e+00 1.644e+05 -6.683e+04 4.301e+04 -2.168e+04 -1.574e+04 3.056e+04
45 1 1.84031117573490e+01 4.86200878146900e+00 1.79629245042600e+00 1.700e+05 -7.597e+04 4.436e+04 -2.835e+04 -1.806e+04 2.778e+04
46 1 1.96724717318280e+01 2.84361544611900e+00 1.07777548750000e+00 1.729e+05 -6.688e+04 4.596e+04 -1.722e+04 -1.337e+04 3.202e+04
51 1 2.09077150395670e+01 4.87528277544700e+00 1.79629245042600e+00 1.800e+05 -7.634e+04 4.774e+04 -2.405e+04 -1.557e+04 2.946e+04
52 1 2.21771259642010e+01 2.85757594189900e+00 1.07777548750000e+00 1.812e+05 -6.573e+04 4.912e+04 -1.203e+04 -1.057e+04 3.343e+04
57 1 2.34131446003840e+01 4.88968224218400e+00 1.79629245042600e+00 1.899e+05 -7.545e+04 5.140e+04 -1.889e+04 -1.256e+04 3.111e+04
58 1 2.46824347953040e+01 2.87261618429500e+00 1.07777548750000e+00 1.893e+05 -6.301e+04 5.245e+04 -6.054e+03 -7.325e+03 3.474e+04
63 1 2.59193649962140e+01 4.90529436618700e+00 1.79629245042600e+00 1.997e+05 -7.287e+04 5.529e+04 -1.280e+04 -8.991e+03 3.266e+04
64 1 2.71883240151270e+01 2.88878250913100e+00 1.07777548750000e+00 1.967e+05 -5.826e+04 5.596e+04 6.796e+02 -3.634e+03 3.587e+04
69 1 2.84263031246600e+01 4.92219169960200e+00 1.79629245042600e+00 2.089e+05 -6.803e+04 5.942e+04 -5.767e+03 -4.851e+03 3.403e+04
70 1 2.96946795396280e+01 2.90609076813600e+00 1.07777548750000e+00 2.031e+05 -5.096e+04 5.959e+04 8.086e+03 4.600e+02 3.672e+04
75 1 3.09338393636190e+01 4.94041082334200e+00 1.79629245042600e+00 2.170e+05 -6.031e+04 6.372e+04 2.147e+03 -1.656e+02 3.508e+04
76 1 3.22013352269970e+01 2.92450681912400e+00 1.07777548750000e+00 2.081e+05 -4.057e+04 6.325e+04 1.599e+04 4.861e+03 3.717e+04
81 1 3.34417876342650e+01 4.95993466631300e+00 1.79629245042600e+00 2.235e+05 -4.897e+04 6.812e+04 1.074e+04 4.956e+03 3.567e+04
82 1 3.47080762004960e+01 2.94392335808400e+00 1.07777548750000e+00 2.111e+05 -2.656e+04 6.690e+04 2.405e+04 9.389e+03 3.710e+04
87 1 3.59498965086610e+01 4.98065531482300e+00 1.79629245042600e+00 2.278e+05 -3.332e+04 7.252e+04 1.965e+04 1.030e+04 3.564e+04
88 1 3.72146288799440e+01 2.96412882540100e+00 1.07777548750000e+00 2.118e+05 -8.507e+03 7.042e+04 3.179e+04 1.377e+04 3.642e+04
93 1 3.84578381336350e+01 5.00233560261800e+00 1.79629245042600e+00 2.292e+05 -1.276e+04 7.678e+04 2.824e+04 1.552e+04 3.483e+04
94 1 3.97206753806800e+01 2.98477570240300e+00 1.07777548750000e+00 2.095e+05 1.373e+04 7.368e+04 3.855e+04 1.761e+04 3.504e+04
99 1 4.09652226297420e+01 5.02456277506300e+00 1.79629245042600e+00 2.270e+05 1.293e+04 8.072e+04 3.568e+04 2.010e+04 3.315e+04
100 1 4.22258756658000e+01 3.00535307567000e+00 1.07777548750000e+00 2.043e+05 3.981e+04 7.654e+04 4.349e+04 2.044e+04 3.296e+04
105 1 4.34716224587250e+01 5.04670337268000e+00 1.79629245042600e+00 2.211e+05 4.334e+04 8.416e+04 4.089e+04 2.341e+04 3.061e+04
106 1 4.47299052049700e+01 3.02516651753600e+00 1.07777548750000e+00 1.964e+05 6.872e+04 7.891e+04 4.578e+04 2.175e+04 3.031e+04
111 1 4.59766388802430e+01 5.06788250196700e+00 1.79629245042600e+00 2.118e+05 7.711e+04 8.695e+04 4.273e+04 2.475e+04 2.737e+04
112 1 4.72325147854770e+01 3.04335149909000e+00 1.07777548750000e+00 1.862e+05 9.830e+04 8.070e+04 4.449e+04 2.111e+04 2.739e+04
118 1 4.97335947537260e+01 3.05892704218100e+00 1.07777548750000e+00 1.763e+05 1.286e+05 8.201e+04 4.086e+04 1.797e+04 2.406e+04
124 1 5.22332403643540e+01 3.07089265883600e+00 1.07777548750000e+00 1.619e+05 1.377e+05 8.237e+04 2.378e+04 1.436e+04 2.405e+04
130 1 5.47317650715750e+01 3.07837528459900e+00 1.07777548750000e+00 1.789e+05 1.525e+05 8.291e+04 1.268e+04 7.438e+03 2.309e+04
265 1 8.74979193164000e-01 6.81998873893300e+00 3.59258524574000e-01 2.238e+06 1.167e+06 1.495e+06 -3.178e+04 -1.403e+04 4.086e+05
270 1 2.12443427127400e+00 6.82369499510600e+00 2.51480949957400e+00 7.730e+05 -4.816e+04 9.669e+04 -5.811e+04 -2.568e+04 1.053e+05
271 1 3.37404884552000e+00 6.82752928447500e+00 3.59258524574000e-01 5.713e+04 -5.716e+04 2.575e+04 -5.260e+04 -3.110e+04 1.291e+04
276 1 4.62382956157600e+00 6.83149892322100e+00 2.51480949957400e+00 1.386e+05 -6.182e+04 3.090e+04 -4.513e+04 -2.791e+04 1.861e+04
277 1 5.87378195750100e+00 6.83561183721100e+00 3.59258524574000e-01 1.240e+05 -6.550e+04 3.008e+04 -4.504e+04 -2.774e+04 1.958e+04
282 1 7.12391378658100e+00 6.83987595230800e+00 2.51480949957400e+00 1.270e+05 -6.724e+04 3.103e+04 -4.465e+04 -2.752e+04 2.025e+04
283 1 8.37422947926200e+00 6.84430102342200e+00 3.59258524574000e-01 1.312e+05 -6.886e+04 3.218e+04 -4.414e+04 -2.725e+04 2.097e+04
288 1 9.62473789644300e+00 6.84889497641800e+00 2.51480949957400e+00 1.355e+05 -7.046e+04 3.340e+04 -4.354e+04 -2.693e+04 2.172e+04
289 1 1.08754445761830e+01 6.85366817588700e+00 3.59258524574000e-01 1.400e+05 -7.206e+04 3.467e+04 -4.283e+04 -2.653e+04 2.250e+04
294 1 1.21263561641540e+01 6.85863220578700e+00 2.51480949957400e+00 1.447e+05 -7.362e+04 3.600e+04 -4.199e+04 -2.607e+04 2.331e+04
295 1 1.33774804136410e+01 6.86379682102600e+00 3.59258524574000e-01 1.495e+05 -7.513e+04 3.740e+04 -4.103e+04 -2.553e+04 2.415e+04
300 1 1.46288217550920e+01 6.86917543460700e+00 2.51480949957400e+00 1.545e+05 -7.659e+04 3.886e+04 -3.991e+04 -2.490e+04 2.501e+04
301 1 1.58803879417930e+01 6.87477902080300e+00 3.59258524574000e-01 1.597e+05 -7.795e+04 4.040e+04 -3.863e+04 -2.418e+04 2.591e+04
306 1 1.71321834041890e+01 6.88062160229700e+00 2.51480949957400e+00 1.650e+05 -7.920e+04 4.201e+04 -3.718e+04 -2.335e+04 2.683e+04
307 1 1.83842147879560e+01 6.88671720177300e+00 3.59258524574000e-01 1.704e+05 -8.032e+04 4.369e+04 -3.553e+04 -2.241e+04 2.778e+04
312 1 1.96364843083150e+01 6.89307923223300e+00 2.51480949957400e+00 1.759e+05 -8.125e+04 4.545e+04 -3.368e+04 -2.135e+04 2.874e+04
313 1 2.08889952881040e+01 6.89972232604100e+00 3.59258524574000e-01 1.816e+05 -8.197e+04 4.729e+04 -3.160e+04 -2.016e+04 2.972e+04
318 1 2.21417510501590e+01 6.90666294460900e+00 2.51480949957400e+00 1.873e+05 -8.242e+04 4.921e+04 -2.928e+04 -1.882e+04 3.071e+04
319 1 2.33947515944790e+01 6.91391450093700e+00 3.59258524574000e-01 1.931e+05 -8.256e+04 5.122e+04 -2.670e+04 -1.733e+04 3.171e+04
324 1 2.46479958134540e+01 6.92149284675500e+00 2.51480949957400e+00 1.989e+05 -8.231e+04 5.330e+04 -2.385e+04 -1.567e+04 3.270e+04
325 1 2.59014792766330e+01 6.92941322411000e+00 3.59258524574000e-01 2.047e+05 -8.161e+04 5.547e+04 -2.072e+04 -1.385e+04 3.367e+04
330 1 2.71551964459580e+01 6.93768904600300e+00 2.51480949957400e+00 2.105e+05 -8.037e+04 5.772e+04 -1.728e+04 -1.185e+04 3.462e+04
331 1 2.84091373529200e+01 6.94633189639100e+00 3.59258524574000e-01 2.161e+05 -7.851e+04 6.005e+04 -1.355e+04 -9.660e+03 3.552e+04
336 1 2.96632898137850e+01 6.95535396891000e+00 2.51480949957400e+00 2.216e+05 -7.594e+04 6.245e+04 -9.517e+03 -7.291e+03 3.636e+04
337 1 3.09176338915370e+01 6.96476136038100e+00 3.59258524574000e-01 2.267e+05 -7.253e+04 6.490e+04 -5.183e+03 -4.740e+03 3.712e+04
342 1 3.21721485415460e+01 6.97455894825600e+00 2.51480949957400e+00 2.316e+05 -6.818e+04 6.742e+04 -5.747e+02 -2.017e+03 3.777e+04
343 1 3.34268060735120e+01 6.98474429381100e+00 3.59258524574000e-01 2.360e+05 -6.276e+04 6.998e+04 4.280e+03 8.618e+02 3.829e+04
348 1 3.46815721514600e+01 6.99531008086000e+00 2.51480949957400e+00 2.398e+05 -5.615e+04 7.257e+04 9.337e+03 3.871e+03 3.866e+04
349 1 3.59364069013550e+01 7.00624045767700e+00 3.59258524574000e-01 2.430e+05 -4.821e+04 7.516e+04 1.453e+04 6.975e+03 3.883e+04
354 1 3.71912638034920e+01 7.01750859825700e+00 2.51480949957400e+00 2.454e+05 -3.885e+04 7.775e+04 1.978e+04 1.012e+04 3.879e+04
355 1 3.84460908001030e+01 7.02907609264200e+00 3.59258524574000e-01 2.469e+05 -2.795e+04 8.030e+04 2.497e+04 1.326e+04 3.851e+04
360 1 3.97008269725250e+01 7.04088928882600e+00 2.51480949957400e+00 2.475e+05 -1.544e+04 8.279e+04 2.997e+04 1.630e+04 3.796e+04
361 1 4.09554125097070e+01 7.05287868307500e+00 3.59258524574000e-01 2.469e+05 -1.303e+03 8.518e+04 3.464e+04 1.916e+04 3.713e+04
366 1 4.22097754168640e+01 7.06495587151500e+00 2.51480949957400e+00 2.452e+05 1.444e+04 8.744e+04 3.878e+04 2.173e+04 3.600e+04
367 1 4.34638492372730e+01 7.07701172108900e+00 3.59258524574000e-01 2.423e+05 3.171e+04 8.954e+04 4.221e+04 2.389e+04 3.460e+04
372 1 4.47175675142100e+01 7.08891515019300e+00 2.51480949957400e+00 2.382e+05 5.029e+04 9.146e+04 4.473e+04 2.552e+04 3.294e+04
373 1 4.59708682213990e+01 7.10051556739900e+00 3.59258524574000e-01 2.330e+05 6.990e+04 9.316e+04 4.614e+04 2.651e+04 3.106e+04
378 1 4.72236993010740e+01 7.11164043273700e+00 2.51480949957400e+00 2.270e+05 9.012e+04 9.463e+04 4.627e+04 2.674e+04 2.901e+04
117 1 4.84799772694870e+01 5.08700029680300e+00 1.79629245042600e+00 2.002e+05 1.117e+05 8.899e+04 4.027e+04 2.352e+04 2.380e+04
379 1 4.84760253096490e+01 7.12210257386600e+00 3.59258524574000e-01 2.203e+05 1.104e+05 9.587e+04 4.499e+04 2.612e+04 2.688e+04
384 1 4.97278285253300e+01 7.13170323449400e+00 2.51480949957400e+00 2.132e+05 1.302e+05 9.686e+04 4.220e+04 2.461e+04 2.476e+04
123 1 5.09815490174910e+01 5.10281483519200e+00 1.79629245042600e+00 1.882e+05 1.432e+05 9.032e+04 3.310e+04 1.945e+04 2.040e+04
385 1 5.09791133785660e+01 7.14023939055200e+00 3.59258524574000e-01 2.063e+05 1.487e+05 9.763e+04 3.790e+04 2.218e+04 2.274e+04
390 1 5.22299108824950e+01 7.14751533415500e+00 2.51480949957400e+00 2.000e+05 1.652e+05 9.822e+04 3.217e+04 1.888e+04 2.092e+04
129 1 5.34815435259190e+01 5.11410614368400e+00 1.79629245042600e+00 1.774e+05 1.675e+05 9.103e+04 2.160e+04 1.276e+04 1.770e+04
391 1 5.34802797405560e+01 7.15334877042100e+00 3.59258524574000e-01 1.933e+05 1.788e+05 9.857e+04 2.515e+04 1.481e+04 1.935e+04
396 1 5.47303030236530e+01 7.15758727887900e+00 2.51480949957400e+00 2.174e+05 1.885e+05 9.909e+04 1.737e+04 9.997e+03 1.917e+04
268 1 2.10553287143200e+00 8.85060497669400e+00 1.07777548750000e+00 8.327e+05 -4.851e+04 9.505e+04 -5.699e+04 -2.567e+04 1.002e+05
274 1 4.60455932691800e+00 8.85808028627400e+00 1.07777548750000e+00 1.335e+05 -6.139e+04 2.949e+04 -5.000e+04 -3.085e+04 1.776e+04
280 1 7.10429576173500e+00 8.86610857732200e+00 1.07777548750000e+00 1.230e+05 -6.713e+04 2.973e+04 -4.999e+04 -3.073e+04 1.942e+04
286 1 9.60480309454700e+00 8.87476057293800e+00 1.07777548750000e+00 1.319e+05 -7.089e+04 3.210e+04 -4.939e+04 -3.044e+04 2.093e+04
292 1 1.21061455668550e+01 8.88411553176600e+00 1.07777548750000e+00 1.416e+05 -7.471e+04 3.474e+04 -4.838e+04 -2.991e+04 2.260e+04
298 1 1.46083940658290e+01 8.89426673513500e+00 1.07777548750000e+00 1.520e+05 -7.851e+04 3.767e+04 -4.686e+04 -2.909e+04 2.441e+04
304 1 1.71116172634180e+01 8.90531965801000e+00 1.07777548750000e+00 1.633e+05 -8.215e+04 4.092e+04 -4.471e+04 -2.790e+04 2.638e+04
310 1 1.96158816163460e+01 8.91739440772200e+00 1.07777548750000e+00 1.753e+05 -8.544e+04 4.451e+04 -4.179e+04 -2.626e+04 2.851e+04
316 1 2.21212458280510e+01 8.93062450460500e+00 1.07777548750000e+00 1.881e+05 -8.810e+04 4.848e+04 -3.792e+04 -2.406e+04 3.077e+04
322 1 2.46277530954050e+01 8.94515749167400e+00 1.07777548750000e+00 2.015e+05 -8.972e+04 5.287e+04 -3.293e+04 -2.120e+04 3.312e+04
328 1 2.71354244630360e+01 8.96114883781000e+00 1.07777548750000e+00 2.152e+05 -8.978e+04 5.768e+04 -2.663e+04 -1.757e+04 3.551e+04
334 1 2.96442388863150e+01 8.97875340221000e+00 1.07777548750000e+00 2.289e+05 -8.753e+04 6.293e+04 -1.885e+04 -1.305e+04 3.783e+04
340 1 3.21541121867260e+01 8.99810714393600e+00 1.07777548750000e+00 2.419e+05 -8.203e+04 6.855e+04 -9.512e+03 -7.584e+03 3.993e+04
346 1 3.46648782224580e+01 9.01929724749600e+00 1.07777548750000e+00 2.535e+05 -7.211e+04 7.451e+04 1.335e+03 -1.191e+03 4.156e+04
352 1 3.71762589828850e+01 9.04231639670800e+00 1.07777548750000e+00 2.626e+05 -5.641e+04 8.066e+04 1.336e+04 5.958e+03 4.246e+04
358 1 3.96878391134840e+01 9.06699083223600e+00 1.07777548750000e+00 2.680e+05 -3.357e+04 8.681e+04 2.584e+04 1.345e+04 4.228e+04
364 1 4.21990648082220e+01 9.09288828962200e+00 1.07777548750000e+00 2.684e+05 -2.573e+03 9.265e+04 3.749e+04 2.055e+04 4.074e+04
370 1 4.47092637465790e+01 9.11921252432800e+00 1.07777548750000e+00 2.630e+05 3.664e+04 9.787e+04 4.649e+04 2.618e+04 3.770e+04
376 1 4.72177469938520e+01 9.14471551753600e+00 1.07777548750000e+00 2.517e+05 8.238e+04 1.021e+05 5.064e+04 2.901e+04 3.331e+04
382 1 4.97239640668450e+01 9.16769137933400e+00 1.07777548750000e+00 2.363e+05 1.304e+05 1.051e+05 4.797e+04 2.780e+04 2.821e+04
388 1 5.22277222410600e+01 9.18611962396000e+00 1.07777548750000e+00 2.204e+05 1.738e+05 1.070e+05 3.755e+04 2.193e+04 2.337e+04
394 1 5.47293637686240e+01 9.19801085942500e+00 1.07777548750000e+00 2.378e+05 2.036e+05 1.081e+05 2.060e+04 1.181e+04 2.092e+04
267 1 8.36675752829000e-01 1.08743031541170e+01 1.79629245042600e+00 2.164e+06 1.109e+06 1.436e+06 -2.421e+04 -1.228e+04 4.008e+05
273 1 3.33490362001800e+00 1.08811919497240e+01 1.79629245042600e+00 8.466e+04 -5.346e+04 2.917e+04 -5.594e+04 -3.462e+04 1.252e+04
279 1 5.83381599146100e+00 1.08885764167030e+01 1.79629245042600e+00 1.146e+05 -6.401e+04 2.722e+04 -5.529e+04 -3.388e+04 1.765e+04
285 1 8.33348153910600e+00 1.08965224006970e+01 1.79629245042600e+00 1.223e+05 -6.824e+04 2.932e+04 -5.542e+04 -3.402e+04 1.909e+04
291 1 1.08339711501260e+01 1.09051036732150e+01 1.79629245042600e+00 1.319e+05 -7.256e+04 3.182e+04 -5.522e+04 -3.397e+04 2.070e+04
297 1 1.33353690030360e+01 1.09144092478100e+01 1.79629245042600e+00 1.423e+05 -7.705e+04 3.461e+04 -5.462e+04 -3.370e+04 2.250e+04
303 1 1.58377581687430e+01 1.09245403316760e+01 1.79629245042600e+00 1.537e+05 -8.166e+04 3.774e+04 -5.350e+04 -3.313e+04 2.448e+04
309 1 1.83412327942700e+01 1.09356182515090e+01 1.79629245042600e+00 1.662e+05 -8.624e+04 4.124e+04 -5.173e+04 -3.219e+04 2.667e+04
315 1 2.08458814885830e+01 1.09477807954130e+01 1.79629245042600e+00 1.798e+05 -9.063e+04 4.515e+04 -4.912e+04 -3.076e+04 2.907e+04
321 1 2.33517939682590e+01 1.09611883097240e+01 1.79629245042600e+00 1.944e+05 -9.451e+04 4.955e+04 -4.547e+04 -2.872e+04 3.168e+04
327 1 2.58590466585310e+01 1.09760206505980e+01 1.79629245042600e+00 2.099e+05 -9.746e+04 5.444e+04 -4.053e+04 -2.592e+04 3.447e+04
333 1 2.83676938323880e+01 1.09924777936920e+01 1.79629245042600e+00 2.261e+05 -9.887e+04 5.991e+04 -3.402e+04 -2.220e+04 3.738e+04
339 1 3.08777465659530e+01 1.10107670308490e+01 1.79629245042600e+00 2.426e+05 -9.787e+04 6.592e+04 -2.567e+04 -1.739e+04 4.029e+04
345 1 3.33891461557850e+01 1.10310871183610e+01 1.79629245042600e+00 2.587e+05 -9.325e+04 7.249e+04 -1.529e+04 -1.135e+04 4.304e+04
351 1 3.59017286753000e+01 1.10535923057450e+01 1.79629245042600e+00 2.734e+05 -8.347e+04 7.956e+04 -2.827e+03 -4.041e+03 4.533e+04
357 1 3.84151884235680e+01 1.10783295385060e+01 1.79629245042600e+00 2.853e+05 -6.665e+04 8.696e+04 1.141e+04 4.384e+03 4.676e+04
363 1 4.09290280827730e+01 1.11051427380820e+01 1.79629245042600e+00 2.927e+05 -4.080e+04 9.442e+04 2.653e+04 1.344e+04 4.686e+04
369 1 4.34425432116440e+01 1.11335307459650e+01 1.79629245042600e+00 2.939e+05 -4.317e+03 1.016e+05 4.084e+04 2.214e+04 4.515e+04
375 1 4.59548554738160e+01 1.11624827095910e+01 1.79629245042600e+00 2.875e+05 4.303e+04 1.079e+05 5.171e+04 2.894e+04 4.140e+04
381 1 4.84650510893360e+01 1.11903348070980e+01 1.79629245042600e+00 2.736e+05 9.871e+04 1.129e+05 5.594e+04 3.192e+04 3.587e+04
387 1 5.09724422311160e+01 1.12147623214620e+01 1.79629245042600e+00 2.548e+05 1.561e+05 1.162e+05 5.079e+04 2.935e+04 2.953e+04
393 1 5.34769070618260e+01 1.12330503392540e+01 1.79629245042600e+00 2.354e+05 2.046e+05 1.181e+05 3.539e+04 2.064e+04 2.389e+04
529 1 8.16227018937000e-01 1.29017868463570e+01 3.59258524574000e-01 2.083e+06 1.067e+06 1.386e+06 -2.338e+04 -1.248e+04 3.912e+05
532 1 2.04338365101000e+00 1.49326207405500e+01 1.07777548750000e+00 8.620e+05 -5.287e+04 6.591e+04 -7.226e+04 -3.211e+04 7.827e+04
534 1 2.06497987099900e+00 1.29050065763870e+01 2.51480949957400e+00 8.595e+05 -5.240e+04 7.591e+04 -6.721e+04 -3.002e+04 8.622e+04
535 1 3.31389443442200e+00 1.29083354394730e+01 3.59258524574000e-01 7.643e+04 -5.205e+04 2.681e+04 -6.065e+04 -3.742e+04 1.152e+04
538 1 4.54071324481600e+00 1.49390388617430e+01 1.07777548750000e+00 1.110e+05 -5.523e+04 2.389e+04 -6.434e+04 -3.944e+04 1.394e+04
540 1 4.56297735487800e+00 1.29117807518000e+01 2.51480949957400e+00 1.197e+05 -5.816e+04 2.598e+04 -5.969e+04 -3.666e+04 1.542e+04
541 1 5.81223860087700e+00 1.29153498295490e+01 3.59258524574000e-01 1.082e+05 -6.197e+04 2.544e+04 -6.037e+04 -3.692e+04 1.635e+04
544 1 7.03873620377300e+00 1.49459166830770e+01 1.07777548750000e+00 1.039e+05 -6.130e+04 2.432e+04 -6.599e+04 -4.029e+04 1.546e+04
546 1 7.06168814092600e+00 1.29190499889030e+01 2.51480949957400e+00 1.116e+05 -6.423e+04 2.637e+04 -6.076e+04 -3.718e+04 1.703e+04
547 1 8.31133372831000e+00 1.29228915944540e+01 3.59258524574000e-01 1.160e+05 -6.648e+04 2.749e+04 -6.108e+04 -3.741e+04 1.776e+04
550 1 9.53753227595000e+00 1.49533163921030e+01 1.07777548750000e+00 1.128e+05 -6.608e+04 2.653e+04 -6.722e+04 -4.111e+04 1.691e+04
552 1 9.56118754676200e+00 1.29268825720670e+01 2.51480949957400e+00 1.207e+05 -6.881e+04 2.868e+04 -6.134e+04 -3.760e+04 1.853e+04
553 1 1.08112606724020e+01 1.29310345056970e+01 3.59258524574000e-01 1.256e+05 -7.121e+04 2.994e+04 -6.154e+04 -3.776e+04 1.936e+04
556 1 1.20371967159830e+01 1.49613154184210e+01 1.07777548750000e+00 1.229e+05 -7.131e+04 2.904e+04 -6.828e+04 -4.183e+04 1.855e+04
558 1 1.20615641813510e+01 1.29353583696180e+01 2.51480949957400e+00 1.308e+05 -7.370e+04 3.128e+04 -6.165e+04 -3.787e+04 2.023e+04
559 1 1.33121113649540e+01 1.29398657477860e+01 3.59258524574000e-01 1.362e+05 -7.627e+04 3.270e+04 -6.167e+04 -3.793e+04 2.116e+04
562 1 1.45378369622430e+01 1.49700046046320e+01 1.07777548750000e+00 1.342e+05 -7.701e+04 3.190e+04 -6.907e+04 -4.241e+04 2.041e+04
564 1 1.45629144069430e+01 1.29445706628850e+01 2.51480949957400e+00 1.420e+05 -7.892e+04 3.421e+04 -6.159e+04 -3.793e+04 2.214e+04
565 1 1.58139877062760e+01 1.29494883569610e+01 3.59258524574000e-01 1.481e+05 -8.162e+04 3.582e+04 -6.138e+04 -3.786e+04 2.318e+04
568 1 1.70395726368330e+01 1.49794949128380e+01 1.07777548750000e+00 1.468e+05 -8.317e+04 3.517e+04 -6.950e+04 -4.278e+04 2.254e+04
570 1 1.70653456619080e+01 1.29546334623810e+01 2.51480949957400e+00 1.545e+05 -8.439e+04 3.753e+04 -6.103e+04 -3.771e+04 2.428e+04
571 1 1.83170026727970e+01 1.29600248792810e+01 3.59258524574000e-01 1.612e+05 -8.720e+04 3.935e+04 -6.052e+04 -3.747e+04 2.545e+04
574 1 1.95425444064840e+01 1.49899192536910e+01 1.07777548750000e+00 1.610e+05 -8.978e+04 3.890e+04 -6.939e+04 -4.286e+04 2.498e+04
576 1 1.95689742455120e+01 1.29656802884370e+01 2.51480949957400e+00 1.682e+05 -9.003e+04 4.128e+04 -5.981e+04 -3.712e+04 2.669e+04
577 1 2.08212736713970e+01 1.29716210287140e+01 3.59258524574000e-01 1.756e+05 -9.288e+04 4.334e+04 -5.889e+04 -3.664e+04 2.799e+04
580 1 2.20469006912120e+01 1.50014404122530e+01 1.07777548750000e+00 1.770e+05 -9.674e+04 4.319e+04 -6.856e+04 -4.252e+04 2.776e+04
582 1 2.20739197798580e+01 1.29778696583440e+01 2.51480949957400e+00 1.834e+05 -9.568e+04 4.555e+04 -5.773e+04 -3.602e+04 2.938e+04
583 1 2.33269280774630e+01 1.29844505645990e+01 3.59258524574000e-01 1.915e+05 -9.842e+04 4.789e+04 -5.628e+04 -3.524e+04 3.083e+04
586 1 2.45528098480520e+01 1.50142559254540e+01 1.07777548750000e+00 1.948e+05 -1.039e+05 4.813e+04 -6.671e+04 -4.161e+04 3.093e+04
588 1 2.45803129631690e+01 1.29913899638030e+01 2.51480949957400e+00 2.000e+05 -1.010e+05 5.038e+04 -5.451e+04 -3.427e+04 3.236e+04
589 1 2.58340888359330e+01 1.29987165110030e+01 3.59258524574000e-01 2.088e+05 -1.035e+05 5.303e+04 -5.237e+04 -3.309e+04 3.397e+04
592 1 2.70604513101580e+01 1.50286041789120e+01 1.07777548750000e+00 2.147e+05 -1.109e+05 5.381e+04 -6.349e+04 -3.992e+04 3.453e+04
594 1 2.70882712023240e+01 1.30064606902940e+01 2.51480949957400e+00 2.180e+05 -1.057e+05 5.586e+04 -4.983e+04 -3.167e+04 3.564e+04
595 1 2.83428722460740e+01 1.30146542051330e+01 3.59258524574000e-01 2.275e+05 -1.075e+05 5.887e+04 -4.682e+04 -2.998e+04 3.739e+04
598 1 2.95700022954580e+01 1.50447729424760e+01 1.07777548750000e+00 2.365e+05 -1.171e+05 6.037e+04 -5.842e+04 -3.715e+04 3.856e+04
600 1 2.95979008280810e+01 1.30233318073880e+01 2.51480949957400e+00 2.372e+05 -1.089e+05 6.205e+04 -4.330e+04 -2.799e+04 3.917e+04
601 1 3.08533624864040e+01 1.30325288586080e+01 3.59258524574000e-01 2.471e+05 -1.097e+05 6.543e+04 -3.922e+04 -2.567e+04 4.100e+04
604 1 3.20816223000910e+01 1.50630999799090e+01 1.07777548750000e+00 2.601e+05 -1.218e+05 6.790e+04 -5.093e+04 -3.298e+04 4.300e+04
606 1 3.21092605438790e+01 1.30422807203420e+01 2.51480949957400e+00 2.572e+05 -1.097e+05 6.900e+04 -3.452e+04 -2.298e+04 4.285e+04
607 1 3.33655894624460e+01 1.30526239735050e+01 3.59258524574000e-01 2.673e+05 -1.087e+05 7.277e+04 -2.915e+04 -1.989e+04 4.468e+04
610 1 3.45954209776500e+01 1.50839700004800e+01 1.07777548750000e+00 2.849e+05 -1.233e+05 7.650e+04 -4.035e+04 -2.699e+04 4.772e+04
612 1 3.46223381659850e+01 1.30635921505980e+01 2.51480949957400e+00 2.772e+05 -1.065e+05 7.673e+04 -2.308e+04 -1.638e+04 4.646e+04
613 1 3.58794845022550e+01 1.30752151260340e+01 3.59258524574000e-01 2.869e+05 -1.029e+05 8.088e+04 -1.628e+04 -1.243e+04 4.814e+04
616 1 3.71114005433590e+01 1.51077884426420e+01 1.07777548750000e+00 3.099e+05 -1.195e+05 8.620e+04 -2.604e+04 -1.878e+04 5.242e+04
618 1 3.71369952428930e+01 1.30875172870900e+01 2.51480949957400e+00 2.960e+05 -9.739e+04 8.519e+04 -8.763e+03 -8.044e+03 4.966e+04
619 1 3.83948227605800e+01 1.31005108274010e+01 3.59258524574000e-01 3.045e+05 -8.978e+04 8.965e+04 -5.644e+02 -3.233e+03 5.094e+04
622 1 3.96293760260050e+01 1.51349144090250e+01 1.07777548750000e+00 3.332e+05 -1.071e+05 9.695e+04 -7.616e+03 -8.084e+03 5.654e+04
624 1 3.96529028138180e+01 1.31141957469700e+01 2.51480949957400e+00 3.119e+05 -7.964e+04 9.422e+04 8.223e+03 1.953e+03 5.191e+04
625 1 4.09111534393130e+01 1.31285482682010e+01 3.59258524574000e-01 3.180e+05 -6.660e+04 9.883e+04 1.744e+04 7.428e+03 5.246e+04
628 1 4.21488523229950e+01 1.51655253170570e+01 1.07777548750000e+00 3.519e+05 -8.190e+04 1.084e+05 1.450e+04 4.930e+03 5.919e+04