        4001
Lattice="  35.4000   0.0000   0.0000   0.0000  35.4000   0.0000   0.0000   0.0000  35.4000 " Time=0.000E+00  Step=0  Energy=-17793.341  Barrier=0.000
Ni     0.35244266    0.35240670    0.35323395       1
Ni     2.12251427    2.12230804    0.35296524       2
Ni     2.12219910    0.35191951    2.12217567       3
Ni     0.35196364    2.12190590    2.12207615       4
Ni     3.89274397    0.35230398    0.35303838       5
Ni     5.66314762    2.12246533    0.35296618       6
Ni     5.66274061    0.35167736    2.12189988       7
Ni     3.89228228    2.12163081    2.12167334       8
Ni     7.43337975    0.35235185    0.35299258       9
Ni     9.20376153    2.12272283    0.35319072      10
Ni     9.20355507    0.35156793    2.12183138      11
Ni     7.43312538    2.12161570    2.12174249      12
Ni    10.97398655    0.35243222    0.35305385      13
Ni    12.74421157    2.12272283    0.35319073      14
Ni    12.74441802    0.35156793    2.12183138      15
Ni    10.97398654    2.12176778    2.12200640      16
Ni    14.51459334    0.35235185    0.35299258      17
Ni    16.28482547    2.12246533    0.35296618      18
Ni    16.28523248    0.35167736    2.12189988      19
Ni    14.51484771    2.12161570    2.12174250      20
Ni     0.35236578    3.89245653    0.35296524      21
Ni     2.12273431    5.66288704    0.35298547      22
Ni     2.12190694    3.89184920    2.12160684      23
Ni     0.35168855    5.66222454    2.12167334      24
Ni     3.89294478    3.89267656    0.35298547      25
Ni     5.66357237    5.66337796    0.35359454      26
Ni     5.66273935    3.89193173    2.12184232      27
Ni     3.89237033    5.66231258    2.12190899      28
Ni     7.43364518    3.89310168    0.35342548      29
Ni     9.20393184    5.66370260    0.35398665      30
Ni     9.20368175    3.89234421    2.12259053      31
Ni     7.43350587    5.66290986    2.12317614      32
Ni    10.97398655    3.89327476    0.35359251      33
Ni    12.74404125    5.66370260    0.35398665      34
Ni    12.74429134    3.89234421    2.12259053      35
Ni    10.97398655    5.66313912    2.12363314      36
Ni    14.51432791    3.89310168    0.35342548      37
Ni    16.28440072    5.66337796    0.35359454      38
Ni    16.28523374    3.89193173    2.12184232      39
Ni    14.51446722    5.66290986    2.12317614      40
Ni     0.35252308    7.43308989    0.35296617      41
Ni     2.12315943    9.20358744    0.35342548      42
Ni     2.12198948    7.43268161    2.12184232      43
Ni     0.35167345    9.20306765    2.12174250      44
Ni     3.89343570    7.43351463    0.35359454      45
Ni     5.66395370    9.20390880    0.35421663      46
Ni     5.66332373    7.43326598    2.12341362      47
Ni     3.89296761    9.20344813    2.12317614      48
Ni     7.43396655    7.43389595    0.35421663      49
Ni     9.20407423    9.20410281    0.35465008      50
Ni     9.20391349    7.43365646    2.12441415      51
Ni     7.43390085    9.20384310    2.12469343      52
Ni    10.97398654    7.43403685    0.35442528      53
Ni    12.74389886    9.20410281    0.35465007      54
Ni    12.74405960    7.43365646    2.12441415      55
Ni    10.97398655    9.20398426    2.12519502      56
Ni    14.51400654    7.43389595    0.35421663      57
Ni    16.28401939    9.20390881    0.35421663      58
Ni    16.28464936    7.43326598    2.12341362      59
Ni    14.51407223    9.20384310    2.12469343      60
Ni     0.35278058   10.97370379    0.35319073      61
Ni     2.12333252   12.74392880    0.35359251      62
Ni     2.12240197   10.97362401    2.12259054      63
Ni     0.35182553   12.74392880    2.12200641      64
Ni     3.89376036   10.97387409    0.35398665      65
Ni     5.66409461   12.74392880    0.35442528      66
Ni     5.66371421   10.97385575    2.12441415      67
Ni     3.89319688   12.74392880    2.12363314      68
Ni     7.43416057   10.97401648    0.35465007      69
Ni     9.20412453   12.74392879    0.35485845      70
Ni     9.20406134   10.97400359    2.12544938      71
Ni     7.43404202   12.74392879    2.12519502      72
Ni    10.97398654   10.97406678    0.35485845      73
Ni    12.74384856   12.74392879    0.35485845      74
Ni    12.74391174   10.97400359    2.12544938      75
Ni    10.97398654   12.74392879    2.12568994      76
Ni    14.51381252   10.97401648    0.35465007      77
Ni    16.28387848   12.74392880    0.35442528      78
Ni    16.28425888   10.97385575    2.12441416      79
Ni    14.51393107   12.74392879    2.12519503      80
Ni     0.35278058   14.51415382    0.35319073      81
Ni     2.12315944   16.28427016    0.35342549      82
Ni     2.12240197   14.51423359    2.12259054      83
Ni     0.35167345   16.28478996    2.12174251      84
Ni     3.89376036   14.51398350    0.35398666      85
Ni     5.66395371   16.28394879    0.35421664      86
Ni     5.66371421   14.51400184    2.12441416      87
Ni     3.89296762   16.28440947    2.12317616      88
Ni     7.43416057   14.51384111    0.35465008      89
Ni     9.20407423   16.28375478    0.35465008      90
Ni     9.20406134   14.51385400    2.12544938      91
Ni     7.43390086   16.28401448    2.12469344      92
Ni    10.97398654   14.51379081    0.35485845      93
Ni    12.74389886   16.28375478    0.35465007      94
Ni    12.74391174   14.51385400    2.12544938      95
Ni    10.97398654   16.28387332    2.12519502      96
Ni    14.51381252   14.51384111    0.35465008      97
Ni    16.28401938   16.28394879    0.35421664      98
Ni    16.28425888   14.51400184    2.12441416      99
Ni    14.51407223   16.28401448    2.12469344     100
Ni     0.35178609    0.35167887    3.89181856     101
Ni     2.12131003    2.12094114    3.89085501     102
Ni     2.12127559    0.35083670    5.66113487     103
Ni     0.35076719    2.12070945    5.66087179     104
Ni     3.89193506    0.35110371    3.89122050     105
Ni     5.66194127    2.12036910    3.89034718     106
Ni     5.66182352    0.35027996    5.66061233     107
Ni     3.89062297    2.11957460    5.65970750     108
Ni     7.43277947    0.35073164    3.89093071     109
Ni     9.20322273    2.12006191    3.89025243     110
Ni     9.20312331    0.35005253    5.66042891     111
Ni     7.43176934    2.11877274    5.65905840     112
Ni    10.97398654    0.35046055    3.89073279     113
Ni    12.74475036    2.12006191    3.89025243     114
Ni    12.74484978    0.35005253    5.66042891     115
Ni    10.97398654    2.11798652    5.65844789     116
Ni    14.51519362    0.35073164    3.89093071     117
Ni    16.28603182    2.12036910    3.89034719     118
Ni    16.28614958    0.35027996    5.66061233     119
Ni    14.51620375    2.11877274    5.65905841     120
Ni     0.35099888    3.89125229    3.89085501     121
Ni     2.12061057    5.66111129    3.89010151     122
Ni     2.11977693    3.88971919    5.65938261     123
Ni     0.34963235    5.66056523    5.65970750     124
Ni     3.89116903    3.89055283    3.89010151     125
Ni     5.66175609    5.66100902    3.89056087     126
Ni     5.66033447    3.88850157    5.65828895     127
Ni     3.88917106    5.65911331    5.65806745     128
Ni     7.43245548    3.89036804    3.89033429     129
Ni     9.20350633    5.66176817    3.89241771     130
Ni     9.20244832    3.88770315    5.65802434     131
Ni     7.43106696    5.65853635    5.65833875     132
Ni    10.97398654    3.89070534    3.89112303     133
Ni    12.74446676    5.66176817    3.89241771     134
Ni    12.74552476    3.88770315    5.65802434     135
Ni    10.97398654    5.65933776    5.66051943     136
Ni    14.51551761    3.89036804    3.89033429     137
Ni    16.28621700    5.66100902    3.89056088     138
Ni    16.28763862    3.88850157    5.65828895     139
Ni    14.51690613    5.65853635    5.65833876     140
Ni     0.35042685    7.43188353    3.89034719     141
Ni     2.12042579    9.20239774    3.89033429     142
Ni     2.11855932    7.43027672    5.65828895     143
Ni     0.34883049    9.20171159    5.65905841     144
Ni     3.89106677    7.43169834    3.89056087     145
Ni     5.66270358    9.20313202    3.89332385     146
Ni     5.65981740    7.42975965    5.65857792     147
Ni     3.88859411    9.20100921    5.65833876     148
Ni     7.43318977    7.43264583    3.89332385     149
Ni     9.20386472    9.20361744    3.89538184     150
Ni     9.20326596    7.43125305    5.66283821     151
Ni     7.43261656    9.20255881    5.66380400     152
Ni    10.97398654    7.43296023    3.89430823     153
Ni    12.74410837    9.20361744    3.89538184     154
Ni    12.74470713    7.43125305    5.66283821     155
Ni    10.97398654    9.20295966    5.66586198     156
Ni    14.51478331    7.43264583    3.89332386     157
Ni    16.28526951    9.20313202    3.89332386     158
Ni    16.28815568    7.42975965    5.65857792     159
Ni    14.51535652    9.20255881    5.66380400     160
Ni     0.35011966   10.97316498    3.89025244     161
Ni     2.12076309   12.74392879    3.89112303     162
Ni     2.11776091   10.97239057    5.65802434     163
Ni     0.34804428   12.74392879    5.65844790     164
Ni     3.89182592   10.97344858    3.89241771     165
Ni     5.66301799   12.74392879    3.89430824     166
Ni     5.66131080   10.97320820    5.66283821     167
Ni     3.88939552   12.74392879    5.66051943     168
Ni     7.43367520   10.97380697    3.89538184     169
Ni     9.20398702   12.74392879    3.89638868     170
Ni     9.20376941   10.97371166    5.66693569     171
Ni     7.43301742   12.74392879    5.66586198     172
Ni    10.97398654   10.97392926    3.89638868     173
Ni    12.74398607   12.74392879    3.89638868     174
Ni    12.74420367   10.97371166    5.66693569     175
Ni    10.97398654   12.74392879    5.66793585     176
Ni    14.51429789   10.97380697    3.89538184     177
Ni    16.28495510   12.74392879    3.89430824     178
Ni    16.28666228   10.97320820    5.66283821     179
Ni    14.51495567   12.74392879    5.66586198     180
Ni     0.35011966   14.51469261    3.89025245     181
Ni     2.12042579   16.28545985    3.89033430     182
Ni     2.11776091   14.51546701    5.65802435     183
Ni     0.34883050   16.28614600    5.65905842     184
Ni     3.89182592   14.51440900    3.89241771     185
Ni     5.66270359   16.28472556    3.89332387     186
Ni     5.66131081   14.51464938    5.66283822     187
Ni     3.88859411   16.28684837    5.65833877     188
Ni     7.43367520   14.51405061    3.89538185     189
Ni     9.20386472   16.28424014    3.89538185     190
Ni     9.20376942   14.51414592    5.66693570     191
Ni     7.43261657   16.28529877    5.66380401     192
Ni    10.97398654   14.51392832    3.89638868     193
Ni    12.74410837   16.28424014    3.89538185     194
Ni    12.74420367   14.51414592    5.66693570     195
Ni    10.97398654   16.28489791    5.66586198     196
Ni    14.51429789   14.51405061    3.89538185     197
Ni    16.28526950   16.28472556    3.89332387     198
Ni    16.28666228   14.51464937    5.66283822     199
Ni    14.51535652   16.28529877    5.66380401     200
Ni     0.35103697    0.35089695    7.43157811     201
Ni     2.11981330    2.11940215    7.43007961     202
Ni     2.12060320    0.35025153    9.20154970     203
Ni     0.34983497    2.11977722    9.20116117     204
Ni     3.89101827    0.35016698    7.43087322     205
Ni     5.66018916    2.11829083    7.42894802     206
Ni     5.66132941    0.35040508    9.20132941     207
Ni     3.88915895    2.11833743    9.19980174     208
Ni     7.43214294    0.35019801    7.43072355     209
Ni     9.20223015    2.11774860    7.42838691     210
Ni     9.20318289    0.35175570    9.20172066     211
Ni     7.43052297    2.11827707    9.19927546     212
Ni    10.97398654    0.35079311    7.43098294     213
Ni    12.74574294    2.11774860    7.42838691     214
Ni    12.74479020    0.35175570    9.20172066     215
Ni    10.97398654    2.11989800    9.19969760     216
Ni    14.51583015    0.35019801    7.43072355     217
Ni    16.28778393    2.11829083    7.42894802     218
Ni    16.28664368    0.35040508    9.20132941     219
Ni    14.51745012    2.11827707    9.19927546     220
Ni     0.34945989    3.88975555    7.43007961     221
Ni     2.11769973    5.65840297    7.42786988     222
Ni     2.11790762    3.88784987    9.19915302     223
Ni     0.34839518    5.65910121    9.19980174     224
Ni     3.88846071    3.88764198    7.42786988     225
Ni     5.65747921    5.65597301    7.42535909     226
Ni     5.65738628    3.88559122    9.19685712     227
Ni     3.88543631    5.65537855    9.19589350     228
Ni     7.42972239    3.88590322    7.42633348     229
Ni     9.20067452    5.65396704    7.42440553     230
Ni     9.20017098    3.88411964    9.19527228     231
Ni     7.42578478    5.65171946    9.19231116     232
Ni    10.97398654    3.88345980    7.42430587     233
Ni    12.74729856    5.65396704    7.42440553     234
Ni    12.74780211    3.88411964    9.19527228     235
Ni    10.97398654    5.64384673    9.18538509     236
Ni    14.51825069    3.88590322    7.42633349     237
Ni    16.29049388    5.65597302    7.42535909     238
Ni    16.29058680    3.88559122    9.19685713     239
Ni    14.52218830    5.65171946    9.19231116     240
Ni     0.34834858    7.43013141    7.42894802     241
Ni     2.11596098    9.19966464    7.42633349     242
Ni     2.11564898    7.42732853    9.19685713     243
Ni     0.34833482    9.20046522    9.19927547     244
Ni     3.88603077    7.42742145    7.42535909     245
Ni     5.65600081    9.19820161    7.42494266     246
Ni     5.65279902    7.42274126    9.19129387     247
Ni     3.88177722    9.19572703    9.19231117     248
Ni     7.42825937    7.42594305    7.42494266     249
Ni     9.20300210    9.20116407    7.43433851     250
Ni     9.19642582    7.41809907    9.18808697     251
Ni     7.42236652    9.19230875    9.18850528     252
Ni    10.97398654    7.42782792    7.43086282     253
Ni    12.74497099    9.20116407    7.43433851     254
Ni    12.75154726    7.41809907    9.18808697     255
Ni    10.97398654    9.19652010    9.20419682     256
Ni    14.51971372    7.42594305    7.42494267     257
Ni    16.29197227    9.19820161    7.42494266     258
Ni    16.29517407    7.42274126    9.19129387     259
Ni    14.52560657    9.19230875    9.18850528     260
Ni     0.34780636   10.97217240    7.42838692     261
Ni     2.11351756   12.74392879    7.42430588     262
Ni     2.11417740   10.97011322    9.19527229     263
Ni     0.34995576   12.74392879    9.19969761     264
Ni     3.88402480   10.97061677    7.42440553     265
Ni     5.65788568   12.74392879    7.43086283     266
Ni     5.64815684   10.96636806    9.18808697     267
Ni     3.87390450   12.74392878    9.18538509     268
Ni     7.43122183   10.97294434    7.43433851     269
Ni     9.20338087   12.74392878    7.43893580     270
Ni     9.20227670   10.97221894    9.20739238     271
Ni     7.42657787   12.74392878    9.20419682     272
Ni    10.97398654   10.97332311    7.43893580     273
Ni    12.74459221   12.74392878    7.43893580     274
Ni    12.74569638   10.97221894    9.20739238     275
Ni    10.97398654   12.74392878    9.21505867     276
Ni    14.51675125   10.97294434    7.43433851     277
Ni    16.29008740   12.74392879    7.43086283     278
Ni    16.29981625   10.96636806    9.18808697     279
Ni    14.52139522   12.74392878    9.20419682     280
Ni     0.34780636   14.51568518    7.42838692     281
Ni     2.11596098   16.28819294    7.42633350     282
Ni     2.11417740   14.51774434    9.19527229     283
Ni     0.34833483   16.28739236    9.19927548     284
Ni     3.88402480   14.51724081    7.42440554     285
Ni     5.65600082   16.28965596    7.42494267     286
Ni     5.64815684   14.52148951    9.18808698     287
Ni     3.88177723   16.29213055    9.19231117     288
Ni     7.43122184   14.51491323    7.43433852     289
Ni     9.20300210   16.28669350    7.43433852     290
Ni     9.20227670   14.51563862    9.20739239     291
Ni     7.42236652   16.29554881    9.18850529     292
Ni    10.97398654   14.51453446    7.43893580     293
Ni    12.74497098   16.28669350    7.43433852     294
Ni    12.74569638   14.51563862    9.20739239     295
Ni    10.97398654   16.29133746    9.20419682     296
Ni    14.51675125   14.51491323    7.43433852     297
Ni    16.29197227   16.28965596    7.42494267     298
Ni    16.29981625   14.52148950    9.18808698     299
Ni    14.52560657   16.29554881    9.18850529     300
Ni     0.35062438    0.35051125   10.97238921     301
Ni     2.11893563    2.11868444   10.97116725     302
Ni     2.12046490    0.35028894   12.74286617     303
Ni     0.34942190    2.11936415   12.74254094     304
Ni     3.89078126    0.35040072   10.97208535     305
Ni     5.65936099    2.11858885   10.97056465     306
Ni     5.66200924    0.35193877   12.74296561     307
Ni     3.88873644    2.11851099   12.74194572     308
Ni     7.43256986    0.35221712   10.97237153     309
Ni     9.20265183    2.12149416   10.97094049     310
Ni     9.20357325    0.35387864   12.74313326     311
Ni     7.43165197    2.12161566   12.74202190     312
Ni    10.97398654    0.35314128   10.97250298     313
Ni    12.74532126    2.12149416   10.97094049     314
Ni    12.74439984    0.35387864   12.74313326     315
Ni    10.97398654    2.12367006   12.74202651     316
Ni    14.51540323    0.35221712   10.97237153     317
Ni    16.28861209    2.11858886   10.97056465     318
Ni    16.28596385    0.35193878   12.74296561     319
Ni    14.51632111    2.12161567   12.74202190     320
Ni     0.34874218    3.88887789   10.97116726     321
Ni     2.11612233    5.65647095   10.96889482     322
Ni     2.11709184    3.88703409   12.74130603     323
Ni     0.34856874    5.65867869   12.74194572     324
Ni     3.88652871    3.88606457   10.96889482     325
Ni     5.65311941    5.65206557   10.96467753     326
Ni     5.65605802    3.88575961   12.74020939     327
Ni     3.88355559    5.65349783   12.73892065     328
Ni     7.42739285    3.88535277   10.96759640     329
Ni     9.19530391    5.64812757   10.96070925     330
Ni     9.20185924    3.89135376   12.74002041     331
Ni     7.42154993    5.65066228   12.73652348     332
Ni    10.97398654    3.88957317   10.96798870     333
Ni    12.75266918    5.64812757   10.96070925     334
Ni    12.74611385    3.89135376   12.74002041     335
Ni    10.97398654    5.66098987   12.73543814     336
Ni    14.52058024    3.88535277   10.96759640     337
Ni    16.29485367    5.65206557   10.96467753     338
Ni    16.29191506    3.88575961   12.74020939     339
Ni    14.52642316    5.65066228   12.73652348     340
Ni     0.34864661    7.42930324   10.97056465     341
Ni     2.11541053    9.19733509   10.96759640     342
Ni     2.11581737    7.42600027   12.74020939     343
Ni     0.35167342    9.20159422   12.74202190     344
Ni     3.88212333    7.42306166   10.96467753     345
Ni     5.64605950    9.18868462   10.95688653     346
Ni     5.64784702    7.41778926   12.73396568     347
Ni     3.88072005    9.19149217   12.73652348     348
Ni     7.41874238    7.41600173   10.95688653     349
Ni     9.18594235    9.18017479   10.94717120     350
Ni     9.18386243    7.40862731   12.72599221     351
Ni     7.40843847    9.17838070   12.72270847     352
Ni    10.97398654    7.39086131   10.93358743     353
Ni    12.76203074    9.18017479   10.94717120     354
Ni    12.76411066    7.40862731   12.72599221     355
Ni    10.97398654    9.10471175   12.64805266     356
Ni    14.52923070    7.41600173   10.95688654     357
Ni    16.30191359    9.18868462   10.95688654     358
Ni    16.30012606    7.41778926   12.73396568     359
Ni    14.53953462    9.17838070   12.72270847     360
Ni     0.35155192   10.97259407   10.97094049     361
Ni     2.11963093   12.74392878   10.96798871     362
Ni     2.12141152   10.97180148   12.74002041     363
Ni     0.35372782   12.74392879   12.74202651     364
Ni     3.87818533   10.96524615   10.96070925     365
Ni     5.62091908   12.74392878   10.93358743     366
Ni     5.63868508   10.95380466   12.72599221     367
Ni     3.89104764   12.74392878   12.73543814     368
Ni     7.41023255   10.95588458   10.94717120     369
Ni     9.19639077   12.74392878   10.98389297     370
Ni     9.16933259   10.93927482   12.70967553     371
Ni     7.33476952   12.74392878   12.64805266     372
Ni    10.97398654   10.96633301   10.98389297     373
Ni    12.75158231   12.74392878   10.98389297     374
Ni    12.77864049   10.93927483   12.70967553     375
Ni    10.97398654   12.74392878   12.77104465     376
Ni    14.53774053   10.95588458   10.94717120     377
Ni    16.32705400   12.74392878   10.93358743     378
Ni    16.30928800   10.95380466   12.72599221     379
Ni    14.61320356   12.74392878   12.64805266     380
Ni     0.35155192   14.51526350   10.97094050     381
Ni     2.11541054   16.29052248   10.96759641     382
Ni     2.12141153   14.51605609   12.74002041     383
Ni     0.35167343   16.28626335   12.74202191     384
Ni     3.87818534   14.52261142   10.96070925     385
Ni     5.64605950   16.29917295   10.95688654     386
Ni     5.63868508   14.53405290   12.72599221     387
Ni     3.88072005   16.29636540   12.73652349     388
Ni     7.41023255   14.53197298   10.94717121     389
Ni     9.18594235   16.30768278   10.94717121     390
Ni     9.16933259   14.54858274   12.70967553     391
Ni     7.40843847   16.30947686   12.72270847     392
Ni    10.97398654   14.52152455   10.98389297     393
Ni    12.76203074   16.30768278   10.94717121     394
Ni    12.77864049   14.54858273   12.70967553     395
Ni    10.97398654   16.38314581   12.64805266     396
Ni    14.53774053   14.53197298   10.94717121     397
Ni    16.30191359   16.29917294   10.95688654     398
Ni    16.30928800   14.53405290   12.72599221     399
Ni    14.53953462   16.30947686   12.72270847     400
Ni     0.35047389    0.35039270   14.51359313     401
Ni     2.11863362    2.11854470   14.51321342     402
Ni     2.12055085    0.35038427   16.28418871     403
Ni     0.34933620    2.11927845   16.28418871     404
Ni     3.89127279    0.35113491   14.51354761     405
Ni     5.66045277    2.12038575   14.51305533     406
Ni     5.66253107    0.35268616   16.28418872     407
Ni     3.88900167    2.11877011   16.28418872     408
Ni     7.43327760    0.35373516   14.51368845     409
Ni     9.20346058    2.12433515   14.51315646     410
Ni     9.20384767    0.35473455   16.28418872     411
Ni     7.43260133    2.12316483   16.28418872     412
Ni    10.97398654    0.35477794   14.51367957     413
Ni    12.74451250    2.12433516   14.51315646     414
Ni    12.74412542    0.35473455   16.28418872     415
Ni    10.97398654    2.12529780   16.28418873     416
Ni    14.51469549    0.35373516   14.51368845     417
Ni    16.28752032    2.12038575   14.51305533     418
Ni    16.28544202    0.35268616   16.28418872     419
Ni    14.51537176    2.12316483   16.28418873     420
Ni     0.34860245    3.88857587   14.51321342     421
Ni     2.11589858    5.65575474   14.51257379     422
Ni     2.11710093    3.88704318   16.28418872     423
Ni     0.34882787    5.65894392   16.28418872     424
Ni     3.88581249    3.88584082   14.51257379     425
Ni     5.65096078    5.65135015   14.51162213     426
Ni     5.65694161    3.88633414   16.28418873     427
Ni     3.88427537    5.65421761   16.28418873     428
Ni     7.42988271    3.88976586   14.51196215     429
Ni     9.20051436    5.65994272   14.50906491     430
Ni     9.20320917    3.89427249   16.28418873     431
Ni     7.42457988    5.65198623   16.28418873     432
Ni    10.97398654    3.89463939   14.51179420     433
Ni    12.74745873    5.65994272   14.50906491     434
Ni    12.74476392    3.89427250   16.28418873     435
Ni    10.97398654    5.66524988   16.28418874     436
Ni    14.51809037    3.88976587   14.51196215     437
Ni    16.29701230    5.65135016   14.51162213     438
Ni    16.29103148    3.88633414   16.28418873     439
Ni    14.52339320    5.65198623   16.28418873     440
Ni     0.35044350    7.43039502   14.51305533     441
Ni     2.11982363    9.19982496   14.51196215     442
Ni     2.11639190    7.42688386   16.28418872     443
Ni     0.35322259    9.20254358   16.28418872     444
Ni     3.88140792    7.42090302   14.51162213     445
Ni     5.64227771    9.18075752   14.51038548     446
Ni     5.65224954    7.42219178   16.28418873     447
Ni     3.88204400    9.19452213   16.28418873     448
Ni     7.41081529    7.41221994   14.51038548     449
Ni     9.15378614    9.15794437   14.50814797     450
Ni     9.19400770    7.41306758   16.28418874     451
Ni     7.42981147    9.19975370   16.28418874     452
Ni    10.97398654    7.43535233   14.50062721     453
Ni    12.79418694    9.15794437   14.50814797     454
Ni    12.75396539    7.41306759   16.28418874     455
Ni    10.97398654    9.17057923   16.28418874     456
Ni    14.53715780    7.41221994   14.51038548     457
Ni    16.30569537    9.18075753   14.51038548     458
Ni    16.29572354    7.42219178   16.28418873     459
Ni    14.51816162    9.19975370   16.28418874     460
Ni     0.35439292   10.97340283   14.51315646     461
Ni     2.12469716   12.74392879   14.51179420     462
Ni     2.12433026   10.97315141   16.28418873     463
Ni     0.35535557   12.74392879   16.28418872     464
Ni     3.89000049   10.97045660   14.50906491     465
Ni     5.66541010   12.74392878   14.50062720     466
Ni     5.64312535   10.96394993   16.28418874     467
Ni     3.89530765   12.74392878   16.28418873     468
Ni     7.38800214   10.92372838   14.50814797     469
Ni     8.92620096   12.74392878   14.35782939     470
Ni     9.28943003   11.05937226   16.28418873     471
Ni     7.40063700   12.74392878   16.28418874     472
Ni    10.97398654   10.69614320   14.35782939     473
Ni    13.02177213   12.74392878   14.35782939     474
Ni    12.65854306   11.05937226   16.28418873     475
Ni    10.97398654   12.74392878   15.22448201     476
Ni    14.55997095   10.92372838   14.50814797     477
Ni    16.28256298   12.74392878   14.50062720     478
Ni    16.30484773   10.96394993   16.28418874     479
Ni    14.54733608   12.74392878   16.28418874     480
Ni     0.35439292   14.51445475   14.51315646     481
Ni     2.11982364   16.28803261   14.51196215     482
Ni     2.12433027   14.51470616   16.28418873     483
Ni     0.35322260   16.28531400   16.28418872     484
Ni     3.89000049   14.51740097   14.50906491     485
Ni     5.64227771   16.30710004   14.51038548     486
Ni     5.64312536   14.52390763   16.28418874     487
Ni     3.88204400   16.29333545   16.28418873     488
Ni     7.38800214   14.56412919   14.50814797     489
Ni     9.15378614   16.32991319   14.50814797     490
Ni     9.28943002   14.42848530   16.28418873     491
Ni     7.42981147   16.28810386   16.28418873     492
Ni    10.97398654   14.79171437   14.35782939     493
Ni    12.79418694   16.32991320   14.50814797     494
Ni    12.65854306   14.42848530   16.28418873     495
Ni    10.97398654   16.31727833   16.28418874     496
Ni    14.55997095   14.56412918   14.50814797     497
Ni    16.30569537   16.30710004   14.51038548     498
Ni    16.30484773   14.52390763   16.28418874     499
Ni    14.51816162   16.28810386   16.28418874     500
Ni     0.35047389    0.35039270   18.05478428     501
Ni     2.11863362    2.11854470   18.05516401     502
Ni     2.12046491    0.35028894   19.82551125     503
Ni     0.34942190    2.11936415   19.82583648     504
Ni     3.89127279    0.35113490   18.05482982     505
Ni     5.66045277    2.12038574   18.05532211     506
Ni     5.66200925    0.35193877   19.82541183     507
Ni     3.88873644    2.11851099   19.82643172     508
Ni     7.43327760    0.35373515   18.05468899     509
Ni     9.20346059    2.12433516   18.05522100     510
Ni     9.20357325    0.35387863   19.82524418     511
Ni     7.43165197    2.12161566   19.82635555     512
Ni    10.97398654    0.35477794   18.05469787     513
Ni    12.74451251    2.12433515   18.05522100     514
Ni    12.74439984    0.35387863   19.82524418     515
Ni    10.97398655    2.12367006   19.82635094     516
Ni    14.51469549    0.35373515   18.05468899     517
Ni    16.28752032    2.12038574   18.05532211     518
Ni    16.28596385    0.35193877   19.82541183     519
Ni    14.51632112    2.12161566   19.82635555     520
Ni     0.34860245    3.88857587   18.05516401     521
Ni     2.11589858    5.65575474   18.05580366     522
Ni     2.11709184    3.88703409   19.82707141     523
Ni     0.34856874    5.65867869   19.82643172     524
Ni     3.88581249    3.88584082   18.05580366     525
Ni     5.65096078    5.65135016   18.05675533     526
Ni     5.65605803    3.88575961   19.82816806     527
Ni     3.88355559    5.65349783   19.82945680     528
Ni     7.42988271    3.88976586   18.05641531     529
Ni     9.20051436    5.65994272   18.05931256     530
Ni     9.20185924    3.89135376   19.82835705     531
Ni     7.42154993    5.65066229   19.83185398     532
Ni    10.97398654    3.89463939   18.05658326     533
Ni    12.74745873    5.65994272   18.05931256     534
Ni    12.74611385    3.89135376   19.82835705     535
Ni    10.97398654    5.66098987   19.83293933     536
Ni    14.51809037    3.88976587   18.05641531     537
Ni    16.29701230    5.65135016   18.05675533     538
Ni    16.29191506    3.88575961   19.82816806     539
Ni    14.52642316    5.65066229   19.83185398     540
Ni     0.35044351    7.43039502   18.05532211     541
Ni     2.11982363    9.19982496   18.05641531     542
Ni     2.11581737    7.42600027   19.82816806     543
Ni     0.35167343    9.20159423   19.82635554     544
Ni     3.88140792    7.42090303   18.05675533     545
Ni     5.64227771    9.18075753   18.05799199     546
Ni     5.64784702    7.41778926   19.83441178     547
Ni     3.88072005    9.19149217   19.83185398     548
Ni     7.41081529    7.41221995   18.05799199     549
Ni     9.15378615    9.15794438   18.06022950     550
Ni     9.18386243    7.40862732   19.84238526     551
Ni     7.40843847    9.17838071   19.84566900     552