        4001
Lattice="  35.4000   0.0000   0.0000   0.0000  35.4000   0.0000   0.0000   0.0000  35.4000 " Time=0.000E+00  Step=0  Energy=-17793.341  Barrier=0.000
Ni     0.35440965    0.35222473    0.35193774       1
Ni     2.12576748    2.12017326    0.35031001       2
Ni     2.12480356    0.35258273    2.12233212       3
Ni     0.35472753    2.12173095    2.12130713       4
Ni     3.89549339    0.35166922    0.35163990       5
Ni     5.66689214    2.12014223    0.35045970       6
Ni     5.66588930    0.35170088    2.12202076       7
Ni     3.89658101    2.12038033    2.12091588       8
Ni     7.43614882    0.35159295    0.35164440       9
Ni     9.20687344    2.12087220    0.35116460      10
Ni     9.20626134    0.35167812    2.12208282      11
Ni     7.43730721    2.12022678    2.12113618      12
Ni    10.97590712    0.35210274    0.35200805      13
Ni    12.74572519    2.12192082    0.35200805      14
Ni    12.74550909    0.35231884    2.12240855      15
Ni    10.97661878    2.12120915    2.12187529      16
Ni    14.51471995    0.35265322    0.35237270      17
Ni    16.28392388    2.12242148    0.35238183      18
Ni    16.28392388    0.35269812    2.12258659      19
Ni    14.51493063    2.12224385    2.12248947      20
Ni     0.35568027    3.88772386    0.34797338      21
Ni     2.12818802    5.65587848    0.34591994      22
Ni     2.12738745    3.88825233    2.11886193      23
Ni     0.35773944    5.65409490    2.11485873      24
Ni     3.89772125    3.88826609    0.34853449      25
Ni     5.66944970    5.65761725    0.34745635      26
Ni     5.66875145    3.88831269    2.11938821      27
Ni     3.90052412    5.65556649    2.11644359      28
Ni     7.43809712    3.88937740    0.34966610      29
Ni     9.20845052    5.65973081    0.34966610      30
Ni     9.20807544    3.88975248    2.12074766      31
Ni     7.44000279    5.65782513    2.11873949      32
Ni    10.97695573    3.89095449    0.35116461      33
Ni    12.74623497    5.66167911    0.35164441      34
Ni    12.74614980    3.89156660    2.12208283      35
Ni    10.97760114    5.66052072    2.12113619      36
Ni    14.51499667    3.89216511    0.35222021      37
Ni    16.28392387    5.66247801    0.35241494      38
Ni    16.28392387    3.89238681    2.12261392      39
Ni    14.51504109    5.66234564    2.12252880      40
Ni     0.35723589    7.42394231    0.34399197      41
Ni     2.12965104    9.19591832    0.34452910      42
Ni     2.13212563    7.42169474    2.11189761      43
Ni     0.36148459    9.18807435    2.10767341      44
Ni     3.90043120    7.42594828    0.34494554      45
Ni     5.67187964    9.19739672    0.34494554      46
Ni     5.67247410    7.42535382    2.11547996      47
Ni     3.90511139    9.19271653    2.11088032      48
Ni     7.44021068    7.42837823    0.34745635      49
Ni     9.20956183    9.20010668    0.34853449      50
Ni     9.20951523    7.42907647    2.11938821      51
Ni     7.44226143    9.19730380    2.11644359      52
Ni    10.97768569    7.43093579    0.35045971      53
Ni    12.74615868    9.20233455    0.35163991      54
Ni    12.74612703    7.43193864    2.12202077      55
Ni    10.97744758    9.20124693    2.12091589      56
Ni    14.51503572    7.43254644    0.35229059      57
Ni    16.28392387    9.20310002    0.35268192      58
Ni    16.28392387    7.43293196    2.12284740      59
Ni    14.51465804    9.20307813    2.12280108      60
Ni     0.35490832   10.97113934    0.35392494      61
Ni     2.12668858   12.74291960    0.35392494      62
Ni     2.13554389   10.96228402    2.10809171      63
Ni     0.35563371   12.74219421    2.12697881      64
Ni     3.90190960   10.96817688    0.34452910      65
Ni     5.67388561   12.74059203    0.34399197      66
Ni     5.67613318   10.96570229    2.11189761      67
Ni     3.90975357   12.73634333    2.10767341      68
Ni     7.44194943   10.96963991    0.34591994      69
Ni     9.21010404   12.74214767    0.34797337      70
Ni     9.20957558   10.97044048    2.11886193      71
Ni     7.44373301   12.74008849    2.11485873      72
Ni    10.97765464   10.97206047    0.35031002      73
Ni    12.74560317   12.74341829    0.35193774      74
Ni    12.74524516   10.97302439    2.12233213      75
Ni    10.97609695   12.74310041    2.12130713      76
Ni    14.51473251   10.97328632    0.35258082      77
Ni    16.28392386   12.74366624    0.35292083      78
Ni    16.28392386   10.97352407    2.12312438      79
Ni    14.51431703   12.74367604    2.12302883      80
Ni     0.35452954   14.51390405    0.35852221      81
Ni     2.12668858   16.28488849    0.35392493      82
Ni     2.13133255   14.51390405    2.12378324      83
Ni     0.35563371   16.28561389    2.12697880      84
Ni     3.90002473   14.51390405    0.35044925      85
Ni     5.67388561   16.28721607    0.34399196      86
Ni     5.68400591   14.51390405    2.10497152      87
Ni     3.90975357   16.29146477    2.10767340      88
Ni     7.44439285   14.51390406    0.34389232      89
Ni     9.21010405   16.28566045    0.34797337      90
Ni     9.20795464   14.51390406    2.11928406      91
Ni     7.44373301   16.28771962    2.11485872      92
Ni    10.97705954   14.51390406    0.35056940      93
Ni    12.74560318   16.28438983    0.35193773      94
Ni    12.74483651   14.51390406    2.12248779      95
Ni    10.97609695   16.28470771    2.12130713      96
Ni    14.51458949   14.51390406    0.35272450      97
Ni    16.28392386   16.28414187    0.35292083      98
Ni    16.28392387   14.51390406    2.12323458      99
Ni    14.51431704   16.28413208    2.12302883     100
Ni     0.35422242    0.35353727    3.89290011     101
Ni     2.12534056    2.12219237    3.89195800     102
Ni     2.12437137    0.35368280    5.66322196     103
Ni     0.35433717    2.12385389    5.66271972     104
Ni     3.89511265    0.35262765    3.89268814     105
Ni     5.66712915    2.12037597    3.89167182     106
Ni     5.66546185    0.35234056    5.66302568     107
Ni     3.89590117    2.12191403    5.66255207     108
Ni     7.43615975    0.35164569    3.89246723     109
Ni     9.20728603    2.12048650    3.89197569     110
Ni     9.20629643    0.35162054    5.66292520     111
Ni     7.43744550    2.12026419    5.66245265     112
Ni    10.97610193    0.35187751    3.89257530     113
Ni    12.74595042    2.12172600    3.89257531     114
Ni    12.74564028    0.35218765    5.66303709     115
Ni    10.97685238    2.12097554    5.66276108     116
Ni    14.51482106    0.35255183    3.89279436     117
Ni    16.28392387    2.12241918    3.89285448     118
Ni    16.28392387    0.35265598    5.66312755     119
Ni    14.51500180    2.12223689    5.66310929     120
Ni     0.35525859    3.89146942    3.89052694     121
Ni     2.13051756    5.65532804    3.88718285     122
Ni     2.12625844    3.89159092    5.66160835     123
Ni     0.35605118    5.66132902    5.65960685     124
Ni     3.89854942    3.88856412    3.89015111     125
Ni     5.67138170    5.65603984    3.88848128     126
Ni     5.66917397    3.88848625    5.66153218     127
Ni     3.90185238    5.65573487    5.65979584     128
Ni     7.43897477    3.88865970    3.89075373     129
Ni     9.20916822    5.65885315    3.89075373     130
Ni     9.20848851    3.88933941    5.66212741     131
Ni     7.44081856    5.65700935    5.66089249     132
Ni    10.97734142    3.89054190    3.89197570     133
Ni    12.74618223    5.66166818    3.89246724     134
Ni    12.74620738    3.89153150    5.66292521     135
Ni    10.97756372    5.66038242    5.66245265     136
Ni    14.51504726    3.89222429    3.89280804     137
Ni    16.28392387    5.66276356    3.89302679     138
Ni    16.28392387    3.89257835    5.66322527     139
Ni    14.51486338    5.66264692    5.66322711     140
Ni     0.36260651    7.41810284    3.88029569     141
Ni     2.13916803    9.18597701    3.87647298     142
Ni     2.13636048    7.42063755    5.65610993     143
Ni     0.37404799    9.17860258    5.64557865     144
Ni     3.90479099    7.42204084    3.88426398     145
Ni     5.67578707    9.19303693    3.88426398     146
Ni     5.67435481    7.42347310    5.65850710     147
Ni     3.91006338    9.18776453    5.65355213     148
Ni     7.44178808    7.42644622    3.88848128     149
Ni     9.20926380    9.19927851    3.89015112     150
Ni     9.20934166    7.42865395    5.66153218     151
Ni     7.44209304    9.19597553    5.65979585     152
Ni    10.97745194    7.43069878    3.89167183     153
Ni    12.74520024    9.20271529    3.89268815     154
Ni    12.74548734    7.43236608    5.66302569     155
Ni    10.97591388    9.20192676    5.66255208     156
Ni    14.51471284    7.43289157    3.89301345     157
Ni    16.28392386    9.20344341    3.89328329     158
Ni    16.28392386    7.43331412    5.66341914     159
Ni    14.51421971    9.20347897    5.66341978     160
Ni     0.37196806   10.95015006    3.86675764     161
Ni     2.14767786   12.72585985    3.86675763     162
Ni     2.14947194   10.94835597    5.64229490     163
Ni     0.38857782   12.70925009    5.62926196     164
Ni     3.91185091   10.95865989    3.87647298     165
Ni     5.67972507   12.73522142    3.88029569     166
Ni     5.67719036   10.96146744    5.65610993     167
Ni     3.91922533   12.72377993    5.64557865     168
Ni     7.44249987   10.96731036    3.88718286     169
Ni     9.20635848   12.74256934    3.89052695     170
Ni     9.20623698   10.97156949    5.66160836     171
Ni     7.43649888   12.74177674    5.65960686     172
Ni    10.97563553   10.97248738    3.89195800     173
Ni    12.74429062   12.74360552    3.89290011     174
Ni    12.74414510   10.97345657    5.66322197     175
Ni    10.97397401   12.74349076    5.66271973     176
Ni    14.51417634   10.97356674    3.89324856     177
Ni    16.28392386   12.74380729    3.89343229     178
Ni    16.28392386   10.97380549    5.66355892     179
Ni    14.51379674   12.74384991    5.66351265     180
Ni     0.36151964   14.51390405    3.90347939     181
Ni     2.14767786   16.30194824    3.86675763     182
Ni     2.22314089   14.51390405    5.56763908     183
Ni     0.38857782   16.31855800    5.62926195     184
Ni     3.93699133   14.51390405    3.85317386     185
Ni     5.67972507   16.29258668    3.88029568     186
Ni     5.66686277   14.51390405    5.65502458     187
Ni     3.91922533   16.30402817    5.64557864     188
Ni     7.43827947   14.51390405    3.88757514     189
Ni     9.20635849   16.28523877    3.89052694     190
Ni     9.20418258   14.51390405    5.66161296     191
Ni     7.43649888   16.28603135    5.65960685     192
Ni    10.97471137   14.51390406    3.89208944     193
Ni    12.74429063   16.28420259    3.89290011     194
Ni    12.74363938   14.51390405    5.66326415     195
Ni    10.97397401   16.28431734    5.66271972     196
Ni    14.51397477   14.51390406    3.89332860     197
Ni    16.28392386   16.28400083    3.89343229     198
Ni    16.28392387   14.51390405    5.66359715     199
Ni    14.51379674   16.28395819    5.66351265     200
Ni     0.35398623    0.35439329    7.43353594     201
Ni     2.12463281    2.12371041    7.43327491     202
Ni     2.12411539    0.35411094    9.20377518     203
Ni     0.35406274    2.12470980    9.20377517     204
Ni     3.89461760    0.35336329    7.43349310     205
Ni     5.66663762    2.12111016    7.43313407     206
Ni     5.66518023    0.35266339    9.20377518     207
Ni     3.89537933    2.12266141    9.20377517     208
Ni     7.43591210    0.35190374    7.43337474     209
Ni     9.20743652    2.12036795    7.43317961     210
Ni     9.20626148    0.35163234    9.20377518     211
Ni     7.43735956    2.12035952    9.20377518     212
Ni    10.97618039    0.35177859    7.43337058     213
Ni    12.74604933    2.12164753    7.43337058     214
Ni    12.74568759    0.35214033    9.20377518     215
Ni    10.97692499    2.12090292    9.20377518     216
Ni    14.51487804    0.35250612    7.43343438     217
Ni    16.28392387    2.12247899    7.43346949     218
Ni    16.28392387    0.35264773    9.20377518     219
Ni    14.51502062    2.12225436    9.20377519     220
Ni     0.35444983    3.89431041    7.43274290     221
Ni     2.12802769    5.65974113    7.43154859     222
Ni     2.12530907    3.89314009    9.20377517     223
Ni     0.35470124    5.66424775    9.20377517     224
Ni     3.89745763    3.89036101    7.43264179     225
Ni     5.67209791    5.65581608    7.43216025     226
Ni     5.66890873    3.88874537    9.20377517     227
Ni     3.90096879    5.65630940    9.20377517     228
Ni     7.43927679    3.88851996    7.43279988     229
Ni     9.20930795    5.65855113    7.43279988     230
Ni     9.20857421    3.88925370    9.20377518     231
Ni     7.44080947    5.65701843    9.20377518     232
Ni    10.97745996    3.89039140    7.43317961     233
Ni    12.74592417    5.66191582    7.43337474     234
Ni    12.74619558    3.89156643    9.20377518     235
Ni    10.97746839    5.66046835    9.20377518     236
Ni    14.51500534    3.89237095    7.43347095     237
Ni    16.28392387    5.66304150    7.43356426     238
Ni    16.28392387    3.89268592    9.20377518     239
Ni    14.51476172    5.66281579    9.20377518     240
Ni     0.35739605    7.42991798    7.42865135     241
Ni     2.14709511    9.18219521    7.42997192     242
Ni     2.13333052    7.42196149    9.20377517     243
Ni     0.36390271    9.18304285    9.20377518     244
Ni     3.90694962    7.42132542    7.43120858     245
Ni     5.67650248    9.19087829    7.43120858     246
Ni     5.67363503    7.42419287    9.20377518     247
Ni     3.90566086    9.19216704    9.20377518     248
Ni     7.44201183    7.42573000    7.43216025     249
Ni     9.20746690    9.20037028    7.43264180     250
Ni     9.20908254    7.42891918    9.20377518     251
Ni     7.44151850    9.19685912    9.20377518     252
Ni    10.97671774    7.43119030    7.43313408     253
Ni    12.74446461    9.20321032    7.43349311     254
Ni    12.74516452    7.43264768    9.20377518     255
Ni    10.97516649    9.20244858    9.20377518     256
Ni    14.51444310    7.43324651    7.43357507     257
Ni    16.28392386    9.20375269    7.43365759     258
Ni    16.28392387    7.43349904    9.20377518     259
Ni    14.51404871    9.20368595    9.20377519     260
Ni     0.40412426   10.92791964    7.42773441     261
Ni     2.16990827   12.69370364    7.42773441     262
Ni     2.12809893   10.96972896    9.20377518     263
Ni     0.26848038   12.82934752    9.20377518     264
Ni     3.91563269   10.95073279    7.42997192     265
Ni     5.66790991   12.74043186    7.42865135     266
Ni     5.67586640   10.96449738    9.20377518     267
Ni     3.91478504   12.73392519    9.20377518     268
Ni     7.43808677   10.96980022    7.43154860     269
Ni     9.20351748   12.74337809    7.43274291     270
Ni     9.20468781   10.97251884    9.20377518     271
Ni     7.43358014   12.74312667    9.20377518     272
Ni    10.97411749   10.97319511    7.43327492     273
Ni    12.74343461   12.74384169    7.43353595     274
Ni    12.74371696   10.97371253    9.20377518     275
Ni    10.97311810   12.74376517    9.20377518     276
Ni    14.51381960   10.97384805    7.43364685     277
Ni    16.28392387   12.74394111    7.43369400     278
Ni    16.28392387   10.97394780    9.20377518     279
Ni    14.51360745   12.74394373    9.20377518     280
Ni     0.63170947   14.51390404    7.27741581     281
Ni     2.16990827   16.33410444    7.42773440     282
Ni     2.15727340   14.51390404    9.20377518     283
Ni     0.26848038   16.19846055    9.20377517     284
Ni     3.89250030   14.51390404    7.42021364     285
Ni     5.66790992   16.28737622    7.42865135     286
Ni     5.66260275   14.51390404    9.20377517     287
Ni     3.91478505   16.29388288    9.20377517     288
Ni     7.43321325   14.51390404    7.43138064     289
Ni     9.20351748   16.28443000    7.43274290     290
Ni     9.20255484   14.51390404    9.20377518     291
Ni     7.43358014   16.28468141    9.20377517     292
Ni    10.97307471   14.51390405    7.43326603     293
Ni    12.74343461   16.28396640    7.43353595     294
Ni    12.74319302   14.51390404    9.20377518     295
Ni    10.97311810   16.28404291    9.20377518     296
Ni    14.51360062   14.51390405    7.43366027     297
Ni    16.28392387   16.28386699    7.43369400     298
Ni    16.28392387   14.51390404    9.20377518     299
Ni    14.51360745   16.28386435    9.20377518     300
Ni     0.35398622    0.35439329   10.97401441     301
Ni     2.12463280    2.12371041   10.97427544     302
Ni     2.12437135    0.35368280   12.74432839     303
Ni     0.35433716    2.12385389   12.74483063     304
Ni     3.89461759    0.35336329   10.97405725     305
Ni     5.66663762    2.12111016   10.97441628     306
Ni     5.66546184    0.35234056   12.74452467     307
Ni     3.89590116    2.12191403   12.74499828     308
Ni     7.43591210    0.35190374   10.97417562     309
Ni     9.20743652    2.12036795   10.97437075     310
Ni     9.20629643    0.35162054   12.74462516     311
Ni     7.43744550    2.12026419   12.74509771     312
Ni    10.97618039    0.35177858   10.97417979     313
Ni    12.74604933    2.12164752   10.97417979     314
Ni    12.74564028    0.35218764   12.74451328     315
Ni    10.97685239    2.12097553   12.74478928     316
Ni    14.51487804    0.35250612   10.97411599     317
Ni    16.28392387    2.12247898   10.97408089     318
Ni    16.28392387    0.35265596   12.74442283     319
Ni    14.51500181    2.12223687   12.74444108     320
Ni     0.35444982    3.89431041   10.97480745     321
Ni     2.12802769    5.65974112   10.97600176     322
Ni     2.12625843    3.89159092   12.74594200     323
Ni     0.35605117    5.66132901   12.74794350     324
Ni     3.89745763    3.89036100   10.97490856     325
Ni     5.67209791    5.65581608   10.97539011     326
Ni     5.66917396    3.88848624   12.74601817     327
Ni     3.90185238    5.65573486   12.74775451     328
Ni     7.43927679    3.88851995   10.97475047     329
Ni     9.20930795    5.65855112   10.97475048     330
Ni     9.20848851    3.88933940   12.74542295     331
Ni     7.44081856    5.65700934   12.74665786     332
Ni    10.97745996    3.89039139   10.97437075     333
Ni    12.74592417    5.66191581   10.97417562     334
Ni    12.74620738    3.89153148   12.74462516     335
Ni    10.97756372    5.66038240   12.74509771     336
Ni    14.51500534    3.89237094   10.97407943     337
Ni    16.28392387    5.66304149   10.97398611     338
Ni    16.28392387    3.89257833   12.74432510     339
Ni    14.51486338    5.66264690   12.74432327     340
Ni     0.35739604    7.42991797   10.97889900     341
Ni     2.14709511    9.18219520   10.97757844     342
Ni     2.13636047    7.42063753   12.75144042     343
Ni     0.37404798    9.17860256   12.76197171     344
Ni     3.90694962    7.42132541   10.97634177     345
Ni     5.67650248    9.19087828   10.97634177     346
Ni     5.67435482    7.42347308   12.74904325     347
Ni     3.91006338    9.18776451   12.75399822     348
Ni     7.44201183    7.42572999   10.97539011     349
Ni     9.20746690    9.20037027   10.97490857     350
Ni     9.20934166    7.42865394   12.74601818     351
Ni     7.44209304    9.19597552   12.74775451     352
Ni    10.97671775    7.43119029   10.97441629     353
Ni    12.74446461    9.20321031   10.97405726     354
Ni    12.74548735    7.43236606   12.74452468     355
Ni    10.97591388    9.20192674   12.74499829     356
Ni    14.51444311    7.43324650   10.97397530     357
Ni    16.28392387    9.20375268   10.97389278     358
Ni    16.28392387    7.43331410   12.74413123     359
Ni    14.51421972    9.20347895   12.74413059     360
Ni     0.40412426   10.92791962   10.97981595     361
Ni     2.16990826   12.69370364   10.97981594     362
Ni     2.14947193   10.94835595   12.76525545     363
Ni     0.38857781   12.70925007   12.77828839     364
Ni     3.91563269   10.95073278   10.97757844     365
Ni     5.66790992   12.74043185   10.97889900     366
Ni     5.67719036   10.96146742   12.75144042     367
Ni     3.91922532   12.72377991   12.76197170     368
Ni     7.43808677   10.96980021   10.97600176     369
Ni     9.20351748   12.74337808   10.97480745     370
Ni     9.20623698   10.97156947   12.74594200     371
Ni     7.43649888   12.74177673   12.74794350     372
Ni    10.97411749   10.97319511   10.97427545     373
Ni    12.74343461   12.74384168   10.97401441     374
Ni    12.74414511   10.97345655   12.74432840     375
Ni    10.97397402   12.74349074   12.74483063     376
Ni    14.51381960   10.97384804   10.97390352     377
Ni    16.28392387   12.74394110   10.97385636     378
Ni    16.28392387   10.97380547   12.74399145     379
Ni    14.51379675   12.74384989   12.74403771     380
Ni     0.63170942   14.51390403   11.13013452     381
Ni     2.16990826   16.33410442   10.97981593     382
Ni     2.22314087   14.51390402   12.83991124     383
Ni     0.38857781   16.31855798   12.77828839     384
Ni     3.89250030   14.51390403   10.98733670     385
Ni     5.66790992   16.28737621   10.97889899     386
Ni     5.66686276   14.51390403   12.75252577     387
Ni     3.91922532   16.30402814   12.76197169     388
Ni     7.43321325   14.51390403   10.97616970     389
Ni     9.20351748   16.28442999   10.97480744     390
Ni     9.20418258   14.51390403   12.74593739     391
Ni     7.43649888   16.28603133   12.74794349     392
Ni    10.97307471   14.51390403   10.97428433     393
Ni    12.74343461   16.28396639   10.97401441     394
Ni    12.74363939   14.51390403   12.74428620     395
Ni    10.97397401   16.28431732   12.74483063     396
Ni    14.51360063   14.51390404   10.97389009     397
Ni    16.28392387   16.28386698   10.97385636     398
Ni    16.28392387   14.51390403   12.74395321     399
Ni    14.51379675   16.28395817   12.74403771     400
Ni     0.35422240    0.35353728   14.51465025     401
Ni     2.12534055    2.12219237   14.51559236     402
Ni     2.12480354    0.35258273   16.28521823     403
Ni     0.35472752    2.12173094   16.28624323     404
Ni     3.89511264    0.35262766   14.51486221     405
Ni     5.66712914    2.12037596   14.51587854     406
Ni     5.66588929    0.35170088   16.28552959     407
Ni     3.89658100    2.12038032   16.28663447     408
Ni     7.43615975    0.35164569   14.51508313     409
Ni     9.20728603    2.12048650   14.51557467     410
Ni     9.20626133    0.35167811   16.28546754     411
Ni     7.43730721    2.12022677   16.28641418     412
Ni    10.97610193    0.35187750   14.51497506     413
Ni    12.74595041    2.12172598   14.51497507     414
Ni    12.74550909    0.35231883   16.28514183     415
Ni    10.97661878    2.12120913   16.28567508     416
Ni    14.51482105    0.35255182   14.51475602     417
Ni    16.28392387    2.12241916   14.51469591     418
Ni    16.28392387    0.35269811   16.28496381     419
Ni    14.51493062    2.12224383   16.28506091     420
Ni     0.35525858    3.89146941   14.51702342     421
Ni     2.13051755    5.65532803   14.52036750     422
Ni     2.12738744    3.88825231   16.28868843     423
Ni     0.35773942    5.65409488   16.29269163     424
Ni     3.89854941    3.88856410   14.51739924     425
Ni     5.67138170    5.65603982   14.51906907     426
Ni     5.66875145    3.88831267   16.28816215     427
Ni     3.90052412    5.65556647   16.29110677     428
Ni     7.43897477    3.88865968   14.51679663     429
Ni     9.20916822    5.65885313   14.51679663     430
Ni     9.20807544    3.88975246   16.28680271     431
Ni     7.44000279    5.65782512   16.28881087     432
Ni    10.97734142    3.89054188   14.51557467     433
Ni    12.74618223    5.66166816   14.51508314     434
Ni    12.74614980    3.89156658   16.28546755     435
Ni    10.97760115    5.66052069   16.28641418     436
Ni    14.51504726    3.89222427   14.51474233     437
Ni    16.28392387    5.66276353   14.51452359     438
Ni    16.28392387    3.89238678   16.28493647     439
Ni    14.51504109    5.66234561   16.28502158     440
Ni     0.36260649    7.41810281   14.52725467     441
Ni     2.13916802    9.18597698   14.53107738     442
Ni     2.13212562    7.42169471   16.29565274     443
Ni     0.36148458    9.18807432   16.29987694     444
Ni     3.90479099    7.42204082   14.52328637     445
Ni     5.67578707    9.19303690   14.52328637     446
Ni     5.67247410    7.42535380   16.29207040     447
Ni     3.90511139    9.19271650   16.29667003     448
Ni     7.44178808    7.42644620   14.51906907     449
Ni     9.20926380    9.19927849   14.51739924     450
Ni     9.20951523    7.42907645   16.28816215     451
Ni     7.44226143    9.19730377   16.29110676     452
Ni    10.97745194    7.43069876   14.51587854     453
Ni    12.74520025    9.20271526   14.51486222     454
Ni    12.74612703    7.43193861   16.28552960     455
Ni    10.97744759    9.20124690   16.28663448     456
Ni    14.51471285    7.43289154   14.51453693     457
Ni    16.28392387    9.20344338   14.51426708     458
Ni    16.28392387    7.43293193   16.28470299     459
Ni    14.51465805    9.20307810   16.28474930     460
Ni     0.37196805   10.95015003   14.54079271     461
Ni     2.14767785   12.72585983   14.54079271     462
Ni     2.13554389   10.96228400   16.29945863     463
Ni     0.35563370   12.74219418   16.28057153     464
Ni     3.91185091   10.95865986   14.53107737     465
Ni     5.67972507   12.73522139   14.52725466     466
Ni     5.67613318   10.96570227   16.29565274     467
Ni     3.90975356   12.73634330   16.29987693     468
Ni     7.44249987   10.96731034   14.52036750     469
Ni     9.20635849   12.74256932   14.51702341     470
Ni     9.20957558   10.97044046   16.28868843     471
Ni     7.44373301   12.74008847   16.29269161     472
Ni    10.97563554   10.97248735   14.51559236     473
Ni    12.74429063   12.74360549   14.51465025     474
Ni    12.74524517   10.97302436   16.28521824     475
Ni    10.97609696   12.74310038   16.28624322     476
Ni    14.51417635   10.97356671   14.51430181     477
Ni    16.28392387   12.74380726   14.51411807     478
Ni    16.28392387   10.97352403   16.28442599     479
Ni    14.51431704   12.74367601   16.28452154     480
Ni     0.36151962   14.51390402   14.50407094     481
Ni     2.14767785   16.30194822   14.54079270     482
Ni     2.13133253   14.51390403   16.28376709     483
Ni     0.35563370   16.28561387   16.28057152     484
Ni     3.93699132   14.51390402   14.55437647     485
Ni     5.67972507   16.29258666   14.52725465     486
Ni     5.68400590   14.51390403   16.30257881     487
Ni     3.90975356   16.29146475   16.29987692     488
Ni     7.43827947   14.51390403   14.51997520     489
Ni     9.20635849   16.28523874   14.51702340     490
Ni     9.20795465   14.51390403   16.28826629     491
Ni     7.44373300   16.28771959   16.29269161     492
Ni    10.97471138   14.51390403   14.51546091     493
Ni    12.74429063   16.28420257   14.51465024     494
Ni    12.74483652   14.51390403   16.28506257     495
Ni    10.97609695   16.28470768   16.28624321     496
Ni    14.51397478   14.51390403   14.51422176     497
Ni    16.28392387   16.28400080   14.51411807     498
Ni    16.28392387   14.51390403   16.28431579     499
Ni    14.51431704   16.28413205   16.28452152     500
Ni     0.35440964    0.35222472   18.05561263     501
Ni     2.12576746    2.12017325   18.05724035     502
Ni     2.12497073    0.35158536   19.82615388     503
Ni     0.35478710    2.12002777   19.82753498     504
Ni     3.89549338    0.35166922   18.05591045     505
Ni     5.66689214    2.12014222   18.05709066     506
Ni     5.66578781    0.35160747   19.82615842     507
Ni     3.89608689    2.12025520   19.82735155     508
Ni     7.43614882    0.35159294   18.05590596     509
Ni     9.20687344    2.12087219   18.05638577     510
Ni     9.20598415    0.35199735   19.82584006     511
Ni     7.43663482    2.12081193   19.82682900     512
Ni    10.97590711    0.35210273   18.05554233     513
Ni    12.74572519    2.12192080   18.05554233     514
Ni    12.74528812    0.35253979   19.82537366     515
Ni    10.97615371    2.12167420   19.82599176     516
Ni    14.51471994    0.35265320   18.05517769     517
Ni    16.28392387    2.12242146   18.05516858     518
Ni    16.28392387    0.35279727   19.82515068     519
Ni    14.51478203    2.12236599   19.82533033     520
Ni     0.35568026    3.88772384   18.05957699     521
Ni     2.12818801    5.65587846   18.06163041     522
Ni     2.12614107    3.88874798   19.82890549     523
Ni     0.35546208    5.65767839   19.82993956     524
Ni     3.89772125    3.88826607   18.05901587     525
Ni     5.66944969    5.65761723   18.06009400     526
Ni     5.66728744    3.88954984   19.82825638     527
Ni     3.89757594    5.65847681   19.82967494     528
Ni     7.43809711    3.88937739   18.05788427     529
Ni     9.20845052    5.65973079   18.05788427     530
Ni     9.20714323    3.89068469   19.82709209     531
Ni     7.43813349    5.65969442   19.82858127     532
Ni    10.97695573    3.89095447   18.05638577     533
Ni    12.74623497    5.66167909   18.05590598     534
Ni    12.74583057    3.89184376   19.82584007     535
Ni    10.97701598    5.66119308   19.82682901     536
Ni    14.51499666    3.89216508   18.05533018     537
Ni    16.28392387    5.66247798   18.05513546     538
Ni    16.28392387    3.89235019   19.82529585     539
Ni    14.51501284    5.66227614   19.82549852     540
Ni     0.35723588    7.42394228   18.06355838     541
Ni     2.12965104    9.19591830   18.06302125     542
Ni     2.12684345    7.42851159   19.82962515     543
Ni     0.35464445    9.20122829   19.82512570     544
Ni     3.90043120    7.42594826   18.06260481     545
Ni     5.67187964    9.19739669   18.06260481     546
Ni     5.66873935    7.42908855   19.82989644     547
Ni     3.89809300    9.19973489   19.82938598     548
Ni     7.44021068    7.42837821   18.06009400     549
Ni     9.20956183    9.20010665   18.05901587     550
Ni     9.20827807    7.43054047   19.82825638     551
Ni     7.43935109    9.20025196   19.82967493     552