ITEM: TIMESTEP
0
ITEM: NUMBER OF ATOMS
4001
ITEM: BOX BOUNDS pp pp pp
0.0000000000000000e+00 3.5399999999999999e+01
0.0000000000000000e+00 3.5399999999999999e+01
0.0000000000000000e+00 3.5399999999999999e+01
ITEM: ATOMS id type x y z c_1[1] c_1[2] c_1[3] c_1[4] c_1[5] c_1[6]
1 1 3.54000000000000e-01 3.54000000000000e-01 3.54000000000000e-01 3.284e+05 3.284e+05 3.284e+05 -1.128e-09 -1.089e-09 -1.056e-09
2 1 2.12400000000000e+00 2.12400000000000e+00 3.54000000000000e-01 3.284e+05 3.284e+05 3.284e+05 1.529e-10 -6.670e-11 4.725e-11
3 1 2.12400000000000e+00 3.54000000000000e-01 2.12400000000000e+00 3.284e+05 3.284e+05 3.284e+05 3.057e-11 4.447e-11 -1.055e-09
4 1 3.54000000000000e-01 2.12400000000000e+00 2.12400000000000e+00 3.284e+05 3.284e+05 3.284e+05 -1.034e-09 -1.017e-09 9.450e-11
5 1 3.89400000000000e+00 3.54000000000000e-01 3.54000000000000e-01 3.284e+05 3.284e+05 3.284e+05 -4.475e-10 -4.197e-10 -1.267e-09
8 1 3.89400000000000e+00 2.12400000000000e+00 2.12400000000000e+00 3.284e+05 3.284e+05 3.284e+05 1.529e-10 2.557e-10 -4.336e-10
6 1 5.66400000000000e+00 2.12400000000000e+00 3.54000000000000e-01 3.284e+05 3.284e+05 3.284e+05 -4.030e-11 2.421e-09 3.335e-11
7 1 5.66400000000000e+00 3.54000000000000e-01 2.12400000000000e+00 3.284e+05 3.284e+05 3.284e+05 2.449e-09 -5.559e-12 -9.728e-10
9 1 7.43400000000000e+00 3.54000000000000e-01 3.54000000000000e-01 3.284e+05 3.284e+05 3.284e+05 -0.000e+00 -2.779e-12 -1.112e-09
12 1 7.43400000000000e+00 2.12400000000000e+00 2.12400000000000e+00 3.284e+05 3.284e+05 3.284e+05 5.559e-12 1.112e-11 7.782e-11
10 1 9.20400000000000e+00 2.12400000000000e+00 3.54000000000000e-01 3.284e+05 3.284e+05 3.284e+05 2.918e-11 -2.429e-09 2.223e-11
11 1 9.20400000000000e+00 3.54000000000000e-01 2.12400000000000e+00 3.284e+05 3.284e+05 3.284e+05 -2.471e-09 3.613e-11 -9.950e-10
13 1 1.09740000000000e+01 3.54000000000000e-01 3.54000000000000e-01 3.284e+05 3.284e+05 3.284e+05 -2.779e-11 -2.501e-11 -1.251e-09
16 1 1.09740000000000e+01 2.12400000000000e+00 2.12400000000000e+00 3.284e+05 3.284e+05 3.284e+05 -2.251e-10 -2.779e-12 -2.446e-10
14 1 1.27440000000000e+01 2.12400000000000e+00 3.54000000000000e-01 3.284e+05 3.284e+05 3.284e+05 2.057e-10 -2.779e-12 -2.223e-10
15 1 1.27440000000000e+01 3.54000000000000e-01 2.12400000000000e+00 3.284e+05 3.284e+05 3.284e+05 -0.000e+00 2.057e-10 -1.051e-09
17 1 1.45140000000000e+01 3.54000000000000e-01 3.54000000000000e-01 3.284e+05 3.284e+05 3.284e+05 -2.779e-12 -5.559e-12 -1.027e-09
20 1 1.45140000000000e+01 2.12400000000000e+00 2.12400000000000e+00 3.284e+05 3.284e+05 3.284e+05 2.251e-10 -1.390e-11 -6.893e-10
18 1 1.62840000000000e+01 2.12400000000000e+00 3.54000000000000e-01 3.284e+05 3.284e+05 3.284e+05 -2.168e-10 2.251e-10 -5.559e-12
19 1 1.62840000000000e+01 3.54000000000000e-01 2.12400000000000e+00 3.284e+05 3.284e+05 3.284e+05 2.112e-10 -2.335e-10 -1.062e-09
21 1 3.54000000000000e-01 3.89400000000000e+00 3.54000000000000e-01 3.284e+05 3.284e+05 3.284e+05 -8.672e-10 -1.312e-09 -4.336e-10
23 1 2.12400000000000e+00 3.89400000000000e+00 2.12400000000000e+00 3.284e+05 3.284e+05 3.284e+05 3.057e-11 -3.029e-10 1.695e-10
25 1 3.89400000000000e+00 3.89400000000000e+00 3.54000000000000e-01 3.284e+05 3.284e+05 3.284e+05 7.101e-10 -8.963e-10 -8.866e-10
27 1 5.66400000000000e+00 3.89400000000000e+00 2.12400000000000e+00 3.284e+05 3.284e+05 3.284e+05 -1.173e-09 5.003e-11 1.390e-10
29 1 7.43400000000000e+00 3.89400000000000e+00 3.54000000000000e-01 3.284e+05 3.284e+05 3.284e+05 2.779e-12 -0.000e+00 -6.907e-10
31 1 9.20400000000000e+00 3.89400000000000e+00 2.12400000000000e+00 3.284e+05 3.284e+05 3.284e+05 1.187e-09 -4.169e-11 1.612e-10
33 1 1.09740000000000e+01 3.89400000000000e+00 3.54000000000000e-01 3.284e+05 3.284e+05 3.284e+05 -2.779e-12 -6.670e-11 -7.949e-10
35 1 1.27440000000000e+01 3.89400000000000e+00 2.12400000000000e+00 3.284e+05 3.284e+05 3.284e+05 -5.559e-12 2.779e-12 -3.391e-10
37 1 1.45140000000000e+01 3.89400000000000e+00 3.54000000000000e-01 3.284e+05 3.284e+05 3.284e+05 -0.000e+00 -0.000e+00 -1.006e-09
39 1 1.62840000000000e+01 3.89400000000000e+00 2.12400000000000e+00 3.284e+05 3.284e+05 3.284e+05 1.112e-11 -1.112e-11 8.338e-11
22 1 2.12400000000000e+00 5.66400000000000e+00 3.54000000000000e-01 3.284e+05 3.284e+05 3.284e+05 -3.474e-11 2.779e-11 2.415e-09
24 1 3.54000000000000e-01 5.66400000000000e+00 2.12400000000000e+00 3.284e+05 3.284e+05 3.284e+05 2.446e-09 -9.616e-10 -2.223e-11
41 1 3.54000000000000e-01 7.43400000000000e+00 3.54000000000000e-01 3.284e+05 3.284e+05 3.284e+05 -2.857e-09 -1.067e-09 -2.779e-11
43 1 2.12400000000000e+00 7.43400000000000e+00 2.12400000000000e+00 3.284e+05 3.284e+05 3.284e+05 -6.670e-11 1.251e-10 -3.196e-11
28 1 3.89400000000000e+00 5.66400000000000e+00 2.12400000000000e+00 3.284e+05 3.284e+05 3.284e+05 -1.181e-09 1.501e-10 5.003e-11
45 1 3.89400000000000e+00 7.43400000000000e+00 3.54000000000000e-01 3.284e+05 3.284e+05 3.284e+05 -5.559e-12 -6.782e-10 5.559e-12
26 1 5.66400000000000e+00 5.66400000000000e+00 3.54000000000000e-01 3.284e+05 3.284e+05 3.284e+05 -2.223e-11 2.472e-09 2.479e-09
32 1 7.43400000000000e+00 5.66400000000000e+00 2.12400000000000e+00 3.284e+05 3.284e+05 3.284e+05 -0.000e+00 -2.779e-12 -1.668e-11
47 1 5.66400000000000e+00 7.43400000000000e+00 2.12400000000000e+00 3.284e+05 3.284e+05 3.284e+05 1.112e-11 -5.559e-12 -0.000e+00
49 1 7.43400000000000e+00 7.43400000000000e+00 3.54000000000000e-01 3.284e+05 3.284e+05 3.284e+05 -0.000e+00 -5.559e-12 -5.559e-12
30 1 9.20400000000000e+00 5.66400000000000e+00 3.54000000000000e-01 3.284e+05 3.284e+05 3.284e+05 6.670e-11 -2.508e-09 2.457e-09
51 1 9.20400000000000e+00 7.43400000000000e+00 2.12400000000000e+00 3.284e+05 3.284e+05 3.284e+05 1.112e-11 8.338e-12 -0.000e+00
36 1 1.09740000000000e+01 5.66400000000000e+00 2.12400000000000e+00 3.284e+05 3.284e+05 3.284e+05 1.278e-10 -5.559e-12 1.001e-10
53 1 1.09740000000000e+01 7.43400000000000e+00 3.54000000000000e-01 3.284e+05 3.284e+05 3.284e+05 5.559e-12 -1.612e-10 -5.559e-12
34 1 1.27440000000000e+01 5.66400000000000e+00 3.54000000000000e-01 3.284e+05 3.284e+05 3.284e+05 -0.000e+00 2.779e-12 2.168e-09
40 1 1.45140000000000e+01 5.66400000000000e+00 2.12400000000000e+00 3.284e+05 3.284e+05 3.284e+05 -2.223e-10 -0.000e+00 9.728e-11
55 1 1.27440000000000e+01 7.43400000000000e+00 2.12400000000000e+00 3.284e+05 3.284e+05 3.284e+05 -0.000e+00 -5.559e-12 5.559e-12
57 1 1.45140000000000e+01 7.43400000000000e+00 3.54000000000000e-01 3.284e+05 3.284e+05 3.284e+05 5.559e-12 -5.559e-12 5.559e-12
38 1 1.62840000000000e+01 5.66400000000000e+00 3.54000000000000e-01 3.284e+05 3.284e+05 3.284e+05 2.112e-10 2.168e-10 2.179e-09
59 1 1.62840000000000e+01 7.43400000000000e+00 2.12400000000000e+00 3.284e+05 3.284e+05 3.284e+05 1.112e-11 -2.335e-10 -0.000e+00
42 1 2.12400000000000e+00 9.20400000000000e+00 3.54000000000000e-01 3.284e+05 3.284e+05 3.284e+05 1.056e-10 -1.140e-10 -2.360e-09
44 1 3.54000000000000e-01 9.20400000000000e+00 2.12400000000000e+00 3.284e+05 3.284e+05 3.284e+05 -2.935e-09 -1.006e-09 2.446e-10
48 1 3.89400000000000e+00 9.20400000000000e+00 2.12400000000000e+00 3.284e+05 3.284e+05 3.284e+05 1.184e-09 1.529e-10 -3.891e-11
46 1 5.66400000000000e+00 9.20400000000000e+00 3.54000000000000e-01 3.284e+05 3.284e+05 3.284e+05 6.392e-11 2.454e-09 -2.504e-09
52 1 7.43400000000000e+00 9.20400000000000e+00 2.12400000000000e+00 3.284e+05 3.284e+05 3.284e+05 -2.223e-11 -0.000e+00 1.668e-11
50 1 9.20400000000000e+00 9.20400000000000e+00 3.54000000000000e-01 3.284e+05 3.284e+05 3.284e+05 -1.001e-10 -2.493e-09 -2.493e-09
56 1 1.09740000000000e+01 9.20400000000000e+00 2.12400000000000e+00 3.284e+05 3.284e+05 3.284e+05 -1.362e-10 5.559e-12 -8.338e-11
54 1 1.27440000000000e+01 9.20400000000000e+00 3.54000000000000e-01 3.284e+05 3.284e+05 3.284e+05 -0.000e+00 -0.000e+00 -2.173e-09
60 1 1.45140000000000e+01 9.20400000000000e+00 2.12400000000000e+00 3.284e+05 3.284e+05 3.284e+05 2.223e-10 -5.559e-12 -9.589e-11
58 1 1.62840000000000e+01 9.20400000000000e+00 3.54000000000000e-01 3.284e+05 3.284e+05 3.284e+05 -2.001e-10 2.446e-10 -2.207e-09
61 1 3.54000000000000e-01 1.09740000000000e+01 3.54000000000000e-01 3.284e+05 3.284e+05 3.284e+05 -6.559e-10 -1.012e-09 -2.223e-11
63 1 2.12400000000000e+00 1.09740000000000e+01 2.12400000000000e+00 3.284e+05 3.284e+05 3.284e+05 -3.585e-10 -5.920e-10 -8.894e-11
65 1 3.89400000000000e+00 1.09740000000000e+01 3.54000000000000e-01 3.284e+05 3.284e+05 3.284e+05 1.668e-11 -1.008e-09 -5.281e-11
67 1 5.66400000000000e+00 1.09740000000000e+01 2.12400000000000e+00 3.284e+05 3.284e+05 3.284e+05 1.362e-10 1.001e-10 5.559e-12
69 1 7.43400000000000e+00 1.09740000000000e+01 3.54000000000000e-01 3.284e+05 3.284e+05 3.284e+05 1.112e-11 -2.779e-12 -1.626e-10
71 1 9.20400000000000e+00 1.09740000000000e+01 2.12400000000000e+00 3.284e+05 3.284e+05 3.284e+05 -1.445e-10 -1.028e-10 1.668e-11
73 1 1.09740000000000e+01 1.09740000000000e+01 3.54000000000000e-01 3.284e+05 3.284e+05 3.284e+05 -2.501e-10 -7.087e-11 -7.504e-11
75 1 1.27440000000000e+01 1.09740000000000e+01 2.12400000000000e+00 3.284e+05 3.284e+05 3.284e+05 -0.000e+00 2.779e-12 1.668e-11
77 1 1.45140000000000e+01 1.09740000000000e+01 3.54000000000000e-01 3.284e+05 3.284e+05 3.284e+05 2.501e-10 -1.112e-11 -6.948e-11
79 1 1.62840000000000e+01 1.09740000000000e+01 2.12400000000000e+00 3.284e+05 3.284e+05 3.284e+05 2.223e-10 -0.000e+00 -0.000e+00
62 1 2.12400000000000e+00 1.27440000000000e+01 3.54000000000000e-01 3.284e+05 3.284e+05 3.284e+05 2.779e-12 -4.558e-10 2.779e-12
64 1 3.54000000000000e-01 1.27440000000000e+01 2.12400000000000e+00 3.284e+05 3.284e+05 3.284e+05 -2.779e-12 -8.282e-10 5.559e-12
81 1 3.54000000000000e-01 1.45140000000000e+01 3.54000000000000e-01 3.284e+05 3.284e+05 3.284e+05 -4.113e-10 -1.023e-09 -5.559e-12
83 1 2.12400000000000e+00 1.45140000000000e+01 2.12400000000000e+00 3.284e+05 3.284e+05 3.284e+05 8.616e-11 -5.864e-10 -7.782e-11
68 1 3.89400000000000e+00 1.27440000000000e+01 2.12400000000000e+00 3.284e+05 3.284e+05 3.284e+05 -0.000e+00 -5.475e-10 -0.000e+00
85 1 3.89400000000000e+00 1.45140000000000e+01 3.54000000000000e-01 3.284e+05 3.284e+05 3.284e+05 1.112e-11 -1.009e-09 -1.112e-11
66 1 5.66400000000000e+00 1.27440000000000e+01 3.54000000000000e-01 3.284e+05 3.284e+05 3.284e+05 -2.779e-12 2.175e-09 -2.779e-12
72 1 7.43400000000000e+00 1.27440000000000e+01 2.12400000000000e+00 3.284e+05 3.284e+05 3.284e+05 1.112e-11 -0.000e+00 1.112e-11
87 1 5.66400000000000e+00 1.45140000000000e+01 2.12400000000000e+00 3.284e+05 3.284e+05 3.284e+05 -2.251e-10 9.172e-11 -0.000e+00
89 1 7.43400000000000e+00 1.45140000000000e+01 3.54000000000000e-01 3.284e+05 3.284e+05 3.284e+05 -5.559e-12 -8.338e-12 -0.000e+00
70 1 9.20400000000000e+00 1.27440000000000e+01 3.54000000000000e-01 3.284e+05 3.284e+05 3.284e+05 8.338e-12 -2.183e-09 -2.779e-12
91 1 9.20400000000000e+00 1.45140000000000e+01 2.12400000000000e+00 3.284e+05 3.284e+05 3.284e+05 2.307e-10 -8.894e-11 -0.000e+00
76 1 1.09740000000000e+01 1.27440000000000e+01 2.12400000000000e+00 3.284e+05 3.284e+05 3.284e+05 -2.779e-12 5.559e-12 -0.000e+00
93 1 1.09740000000000e+01 1.45140000000000e+01 3.54000000000000e-01 3.284e+05 3.284e+05 3.284e+05 5.559e-12 -5.559e-11 -5.559e-12
74 1 1.27440000000000e+01 1.27440000000000e+01 3.54000000000000e-01 3.284e+05 3.284e+05 3.284e+05 8.338e-12 -2.779e-12 -0.000e+00
80 1 1.45140000000000e+01 1.27440000000000e+01 2.12400000000000e+00 3.284e+05 3.284e+05 3.284e+05 5.559e-12 -2.223e-11 1.112e-11
95 1 1.27440000000000e+01 1.45140000000000e+01 2.12400000000000e+00 3.284e+05 3.284e+05 3.284e+05 -2.779e-12 5.559e-12 -1.112e-11
97 1 1.45140000000000e+01 1.45140000000000e+01 3.54000000000000e-01 3.284e+05 3.284e+05 3.284e+05 -2.779e-12 -1.668e-11 -1.668e-11
78 1 1.62840000000000e+01 1.27440000000000e+01 3.54000000000000e-01 3.284e+05 3.284e+05 3.284e+05 -0.000e+00 -5.559e-12 5.559e-12
99 1 1.62840000000000e+01 1.45140000000000e+01 2.12400000000000e+00 3.284e+05 3.284e+05 3.284e+05 -2.390e-10 -5.559e-12 -2.779e-12
82 1 2.12400000000000e+00 1.62840000000000e+01 3.54000000000000e-01 3.284e+05 3.284e+05 3.284e+05 -5.753e-10 -3.613e-10 2.974e-10
84 1 3.54000000000000e-01 1.62840000000000e+01 2.12400000000000e+00 3.284e+05 3.284e+05 3.284e+05 -1.112e-11 -8.227e-10 -2.168e-10
88 1 3.89400000000000e+00 1.62840000000000e+01 2.12400000000000e+00 3.284e+05 3.284e+05 3.284e+05 -1.112e-11 -1.278e-10 -5.559e-12
86 1 5.66400000000000e+00 1.62840000000000e+01 3.54000000000000e-01 3.284e+05 3.284e+05 3.284e+05 1.973e-10 2.173e-09 2.196e-10
92 1 7.43400000000000e+00 1.62840000000000e+01 2.12400000000000e+00 3.284e+05 3.284e+05 3.284e+05 8.338e-12 -0.000e+00 -2.279e-10
90 1 9.20400000000000e+00 1.62840000000000e+01 3.54000000000000e-01 3.284e+05 3.284e+05 3.284e+05 -1.946e-10 -2.179e-09 2.307e-10
96 1 1.09740000000000e+01 1.62840000000000e+01 2.12400000000000e+00 3.284e+05 3.284e+05 3.284e+05 2.223e-10 5.559e-12 5.559e-12
94 1 1.27440000000000e+01 1.62840000000000e+01 3.54000000000000e-01 3.284e+05 3.284e+05 3.284e+05 -5.559e-12 -2.779e-12 -2.779e-12
100 1 1.45140000000000e+01 1.62840000000000e+01 2.12400000000000e+00 3.284e+05 3.284e+05 3.284e+05 -2.279e-10 -2.779e-12 -2.779e-12
98 1 1.62840000000000e+01 1.62840000000000e+01 3.54000000000000e-01 3.284e+05 3.284e+05 3.284e+05 4.336e-10 -1.112e-11 -0.000e+00
101 1 3.54000000000000e-01 3.54000000000000e-01 3.89400000000000e+00 3.284e+05 3.284e+05 3.284e+05 -1.362e-09 -8.227e-10 -8.116e-10
102 1 2.12400000000000e+00 2.12400000000000e+00 3.89400000000000e+00 3.284e+05 3.284e+05 3.284e+05 -2.251e-10 6.670e-11 5.559e-11
105 1 3.89400000000000e+00 3.54000000000000e-01 3.89400000000000e+00 3.284e+05 3.284e+05 3.284e+05 -8.366e-10 6.921e-10 -1.360e-09
106 1 5.66400000000000e+00 2.12400000000000e+00 3.89400000000000e+00 3.284e+05 3.284e+05 3.284e+05 4.725e-11 -1.180e-09 -0.000e+00
109 1 7.43400000000000e+00 3.54000000000000e-01 3.89400000000000e+00 3.284e+05 3.284e+05 3.284e+05 -0.000e+00 -5.559e-12 -9.158e-10
110 1 9.20400000000000e+00 2.12400000000000e+00 3.89400000000000e+00 3.284e+05 3.284e+05 3.284e+05 -5.003e-11 1.188e-09 -0.000e+00
113 1 1.09740000000000e+01 3.54000000000000e-01 3.89400000000000e+00 3.284e+05 3.284e+05 3.284e+05 -5.281e-11 -5.559e-12 -1.347e-09
114 1 1.27440000000000e+01 2.12400000000000e+00 3.89400000000000e+00 3.284e+05 3.284e+05 3.284e+05 -2.779e-12 -5.559e-12 -6.670e-11
117 1 1.45140000000000e+01 3.54000000000000e-01 3.89400000000000e+00 3.284e+05 3.284e+05 3.284e+05 -2.779e-12 -5.559e-12 -1.347e-09
118 1 1.62840000000000e+01 2.12400000000000e+00 3.89400000000000e+00 3.284e+05 3.284e+05 3.284e+05 1.112e-11 -1.112e-11 -5.837e-11
121 1 3.54000000000000e-01 3.89400000000000e+00 3.89400000000000e+00 3.284e+05 3.284e+05 3.284e+05 -1.267e-09 -1.360e-09 7.004e-10
125 1 3.89400000000000e+00 3.89400000000000e+00 3.89400000000000e+00 3.284e+05 3.284e+05 3.284e+05 6.504e-10 7.171e-10 7.115e-10
129 1 7.43400000000000e+00 3.89400000000000e+00 3.89400000000000e+00 3.284e+05 3.284e+05 3.284e+05 -0.000e+00 -0.000e+00 6.698e-10
133 1 1.09740000000000e+01 3.89400000000000e+00 3.89400000000000e+00 3.284e+05 3.284e+05 3.284e+05 1.668e-11 2.057e-10 7.115e-10
137 1 1.45140000000000e+01 3.89400000000000e+00 3.89400000000000e+00 3.284e+05 3.284e+05 3.284e+05 -0.000e+00 -2.001e-10 7.032e-10
122 1 2.12400000000000e+00 5.66400000000000e+00 3.89400000000000e+00 3.284e+05 3.284e+05 3.284e+05 6.115e-11 -0.000e+00 -1.177e-09
141 1 3.54000000000000e-01 7.43400000000000e+00 3.89400000000000e+00 3.284e+05 3.284e+05 3.284e+05 -2.868e-09 -9.297e-10 -0.000e+00
145 1 3.89400000000000e+00 7.43400000000000e+00 3.89400000000000e+00 3.284e+05 3.284e+05 3.284e+05 -5.559e-12 6.726e-10 1.112e-11
126 1 5.66400000000000e+00 5.66400000000000e+00 3.89400000000000e+00 3.284e+05 3.284e+05 3.284e+05 2.724e-10 -1.142e-09 -1.145e-09
149 1 7.43400000000000e+00 7.43400000000000e+00 3.89400000000000e+00 3.284e+05 3.284e+05 3.284e+05 -0.000e+00 5.559e-12 -0.000e+00
130 1 9.20400000000000e+00 5.66400000000000e+00 3.89400000000000e+00 3.284e+05 3.284e+05 3.284e+05 -2.585e-10 1.153e-09 -1.162e-09
153 1 1.09740000000000e+01 7.43400000000000e+00 3.89400000000000e+00 3.284e+05 3.284e+05 3.284e+05 -0.000e+00 -9.172e-11 -0.000e+00
134 1 1.27440000000000e+01 5.66400000000000e+00 3.89400000000000e+00 3.284e+05 3.284e+05 3.284e+05 -0.000e+00 2.779e-12 -1.351e-09
157 1 1.45140000000000e+01 7.43400000000000e+00 3.89400000000000e+00 3.284e+05 3.284e+05 3.284e+05 -0.000e+00 1.112e-11 -0.000e+00
138 1 1.62840000000000e+01 5.66400000000000e+00 3.89400000000000e+00 3.284e+05 3.284e+05 3.284e+05 2.223e-10 -4.169e-12 -1.123e-09
142 1 2.12400000000000e+00 9.20400000000000e+00 3.89400000000000e+00 3.284e+05 3.284e+05 3.284e+05 -4.447e-11 -0.000e+00 1.183e-09
146 1 5.66400000000000e+00 9.20400000000000e+00 3.89400000000000e+00 3.284e+05 3.284e+05 3.284e+05 -2.529e-10 -1.165e-09 1.134e-09
150 1 9.20400000000000e+00 9.20400000000000e+00 3.89400000000000e+00 3.284e+05 3.284e+05 3.284e+05 2.557e-10 1.156e-09 1.145e-09
154 1 1.27440000000000e+01 9.20400000000000e+00 3.89400000000000e+00 3.284e+05 3.284e+05 3.284e+05 5.559e-12 -0.000e+00 1.356e-09
158 1 1.62840000000000e+01 9.20400000000000e+00 3.89400000000000e+00 3.284e+05 3.284e+05 3.284e+05 -1.890e-10 -1.112e-11 1.123e-09
161 1 3.54000000000000e-01 1.09740000000000e+01 3.89400000000000e+00 3.284e+05 3.284e+05 3.284e+05 -4.892e-10 -1.369e-09 1.112e-11
165 1 3.89400000000000e+00 1.09740000000000e+01 3.89400000000000e+00 3.284e+05 3.284e+05 3.284e+05 1.112e-11 6.948e-10 2.335e-10
169 1 7.43400000000000e+00 1.09740000000000e+01 3.89400000000000e+00 3.284e+05 3.284e+05 3.284e+05 -0.000e+00 -0.000e+00 -1.140e-10
173 1 1.09740000000000e+01 1.09740000000000e+01 3.89400000000000e+00 3.284e+05 3.284e+05 3.284e+05 -0.000e+00 2.279e-10 2.223e-10
177 1 1.45140000000000e+01 1.09740000000000e+01 3.89400000000000e+00 3.284e+05 3.284e+05 3.284e+05 -0.000e+00 -2.223e-10 2.279e-10
162 1 2.12400000000000e+00 1.27440000000000e+01 3.89400000000000e+00 3.284e+05 3.284e+05 3.284e+05 -0.000e+00 -6.670e-11 2.223e-11
181 1 3.54000000000000e-01 1.45140000000000e+01 3.89400000000000e+00 3.284e+05 3.284e+05 3.284e+05 -4.113e-10 -1.358e-09 2.779e-12
185 1 3.89400000000000e+00 1.45140000000000e+01 3.89400000000000e+00 3.284e+05 3.284e+05 3.284e+05 1.112e-11 6.893e-10 -2.223e-10
166 1 5.66400000000000e+00 1.27440000000000e+01 3.89400000000000e+00 3.284e+05 3.284e+05 3.284e+05 2.779e-12 -1.331e-09 1.112e-11
189 1 7.43400000000000e+00 1.45140000000000e+01 3.89400000000000e+00 3.284e+05 3.284e+05 3.284e+05 -0.000e+00 -5.559e-12 1.112e-11
170 1 9.20400000000000e+00 1.27440000000000e+01 3.89400000000000e+00 3.284e+05 3.284e+05 3.284e+05 -0.000e+00 1.356e-09 -1.112e-11
193 1 1.09740000000000e+01 1.45140000000000e+01 3.89400000000000e+00 3.284e+05 3.284e+05 3.284e+05 -0.000e+00 2.335e-10 -2.223e-10
174 1 1.27440000000000e+01 1.27440000000000e+01 3.89400000000000e+00 3.284e+05 3.284e+05 3.284e+05 -0.000e+00 -5.559e-12 -0.000e+00
197 1 1.45140000000000e+01 1.45140000000000e+01 3.89400000000000e+00 3.284e+05 3.284e+05 3.284e+05 -0.000e+00 -2.390e-10 -2.223e-10
178 1 1.62840000000000e+01 1.27440000000000e+01 3.89400000000000e+00 3.284e+05 3.284e+05 3.284e+05 -0.000e+00 -2.446e-10 -5.559e-12
182 1 2.12400000000000e+00 1.62840000000000e+01 3.89400000000000e+00 3.284e+05 3.284e+05 3.284e+05 1.668e-11 -5.559e-11 -5.559e-12
186 1 5.66400000000000e+00 1.62840000000000e+01 3.89400000000000e+00 3.284e+05 3.284e+05 3.284e+05 2.112e-10 -1.131e-09 -1.112e-11
190 1 9.20400000000000e+00 1.62840000000000e+01 3.89400000000000e+00 3.284e+05 3.284e+05 3.284e+05 -2.112e-10 1.134e-09 -1.112e-11
194 1 1.27440000000000e+01 1.62840000000000e+01 3.89400000000000e+00 3.284e+05 3.284e+05 3.284e+05 -0.000e+00 -1.112e-11 -2.557e-10
198 1 1.62840000000000e+01 1.62840000000000e+01 3.89400000000000e+00 3.284e+05 3.284e+05 3.284e+05 2.223e-11 -1.112e-11 -3.335e-11
103 1 2.12400000000000e+00 3.54000000000000e-01 5.66400000000000e+00 3.284e+05 3.284e+05 3.284e+05 1.112e-11 -3.335e-11 2.403e-09
104 1 3.54000000000000e-01 2.12400000000000e+00 5.66400000000000e+00 3.284e+05 3.284e+05 3.284e+05 -1.012e-09 2.457e-09 -6.670e-11
201 1 3.54000000000000e-01 3.54000000000000e-01 7.43400000000000e+00 3.284e+05 3.284e+05 3.284e+05 -1.223e-09 -2.729e-09 -2.674e-09
202 1 2.12400000000000e+00 2.12400000000000e+00 7.43400000000000e+00 3.284e+05 3.284e+05 3.284e+05 1.278e-10 -6.392e-11 -1.765e-10
108 1 3.89400000000000e+00 2.12400000000000e+00 5.66400000000000e+00 3.284e+05 3.284e+05 3.284e+05 2.140e-10 -1.149e-09 -0.000e+00
205 1 3.89400000000000e+00 3.54000000000000e-01 7.43400000000000e+00 3.284e+05 3.284e+05 3.284e+05 -6.128e-10 5.559e-12 -2.507e-09
107 1 5.66400000000000e+00 3.54000000000000e-01 5.66400000000000e+00 3.284e+05 3.284e+05 3.284e+05 2.454e-09 -2.501e-11 2.335e-09
112 1 7.43400000000000e+00 2.12400000000000e+00 5.66400000000000e+00 3.284e+05 3.284e+05 3.284e+05 -2.779e-12 -1.112e-11 -2.335e-10
206 1 5.66400000000000e+00 2.12400000000000e+00 7.43400000000000e+00 3.284e+05 3.284e+05 3.284e+05 -2.362e-10 1.390e-12 -1.556e-10
209 1 7.43400000000000e+00 3.54000000000000e-01 7.43400000000000e+00 3.284e+05 3.284e+05 3.284e+05 -5.559e-12 -0.000e+00 -2.404e-09
111 1 9.20400000000000e+00 3.54000000000000e-01 5.66400000000000e+00 3.284e+05 3.284e+05 3.284e+05 -2.490e-09 7.504e-11 2.312e-09
210 1 9.20400000000000e+00 2.12400000000000e+00 7.43400000000000e+00 3.284e+05 3.284e+05 3.284e+05 2.418e-10 1.529e-11 -1.556e-10
116 1 1.09740000000000e+01 2.12400000000000e+00 5.66400000000000e+00 3.284e+05 3.284e+05 3.284e+05 5.559e-12 -1.001e-10 -0.000e+00
213 1 1.09740000000000e+01 3.54000000000000e-01 7.43400000000000e+00 3.284e+05 3.284e+05 3.284e+05 -1.862e-10 2.529e-10 -2.519e-09
115 1 1.27440000000000e+01 3.54000000000000e-01 5.66400000000000e+00 3.284e+05 3.284e+05 3.284e+05 -2.779e-12 5.559e-12 2.196e-09
120 1 1.45140000000000e+01 2.12400000000000e+00 5.66400000000000e+00 3.284e+05 3.284e+05 3.284e+05 -5.559e-12 -0.000e+00 -5.559e-12
214 1 1.27440000000000e+01 2.12400000000000e+00 7.43400000000000e+00 3.284e+05 3.284e+05 3.284e+05 -5.559e-12 -0.000e+00 -1.334e-10
217 1 1.45140000000000e+01 3.54000000000000e-01 7.43400000000000e+00 3.284e+05 3.284e+05 3.284e+05 -2.779e-12 -2.279e-10 -2.532e-09
119 1 1.62840000000000e+01 3.54000000000000e-01 5.66400000000000e+00 3.284e+05 3.284e+05 3.284e+05 2.335e-10 2.112e-10 2.157e-09
218 1 1.62840000000000e+01 2.12400000000000e+00 7.43400000000000e+00 3.284e+05 3.284e+05 3.284e+05 -2.251e-10 -1.112e-11 -1.334e-10
123 1 2.12400000000000e+00 3.89400000000000e+00 5.66400000000000e+00 3.284e+05 3.284e+05 3.284e+05 1.334e-10 -7.782e-11 -1.105e-09
221 1 3.54000000000000e-01 3.89400000000000e+00 7.43400000000000e+00 3.284e+05 3.284e+05 3.284e+05 -9.561e-10 -2.802e-09 8.338e-11
225 1 3.89400000000000e+00 3.89400000000000e+00 7.43400000000000e+00 3.284e+05 3.284e+05 3.284e+05 3.822e-10 -0.000e+00 1.112e-11
127 1 5.66400000000000e+00 3.89400000000000e+00 5.66400000000000e+00 3.284e+05 3.284e+05 3.284e+05 -1.096e-09 1.362e-10 -1.312e-09
229 1 7.43400000000000e+00 3.89400000000000e+00 7.43400000000000e+00 3.284e+05 3.284e+05 3.284e+05 2.779e-12 -2.779e-12 5.559e-12
131 1 9.20400000000000e+00 3.89400000000000e+00 5.66400000000000e+00 3.284e+05 3.284e+05 3.284e+05 1.085e-09 -1.334e-10 -1.306e-09
233 1 1.09740000000000e+01 3.89400000000000e+00 7.43400000000000e+00 3.284e+05 3.284e+05 3.284e+05 2.474e-10 -0.000e+00 -1.112e-11
135 1 1.27440000000000e+01 3.89400000000000e+00 5.66400000000000e+00 3.284e+05 3.284e+05 3.284e+05 -8.338e-12 -0.000e+00 -1.128e-09
237 1 1.45140000000000e+01 3.89400000000000e+00 7.43400000000000e+00 3.284e+05 3.284e+05 3.284e+05 -2.779e-12 -0.000e+00 1.390e-12
139 1 1.62840000000000e+01 3.89400000000000e+00 5.66400000000000e+00 3.284e+05 3.284e+05 3.284e+05 -0.000e+00 2.335e-10 -1.123e-09
124 1 3.54000000000000e-01 5.66400000000000e+00 5.66400000000000e+00 3.284e+05 3.284e+05 3.284e+05 2.451e-09 2.312e-09 -3.335e-11
143 1 2.12400000000000e+00 7.43400000000000e+00 5.66400000000000e+00 3.284e+05 3.284e+05 3.284e+05 -7.782e-11 -3.224e-10 4.586e-11
222 1 2.12400000000000e+00 5.66400000000000e+00 7.43400000000000e+00 3.284e+05 3.284e+05 3.284e+05 -2.335e-10 -1.556e-10 1.390e-12
241 1 3.54000000000000e-01 7.43400000000000e+00 7.43400000000000e+00 3.284e+05 3.284e+05 3.284e+05 -2.546e-09 -2.468e-09 8.338e-11
128 1 3.89400000000000e+00 5.66400000000000e+00 5.66400000000000e+00 3.284e+05 3.284e+05 3.284e+05 -1.096e-09 -1.312e-09 1.390e-10
245 1 3.89400000000000e+00 7.43400000000000e+00 7.43400000000000e+00 3.284e+05 3.284e+05 3.284e+05 -5.559e-12 -2.779e-12 -0.000e+00
132 1 7.43400000000000e+00 5.66400000000000e+00 5.66400000000000e+00 3.284e+05 3.284e+05 3.284e+05 -0.000e+00 -1.112e-11 -5.892e-10
147 1 5.66400000000000e+00 7.43400000000000e+00 5.66400000000000e+00 3.284e+05 3.284e+05 3.284e+05 -8.338e-12 -5.864e-10 2.779e-12
226 1 5.66400000000000e+00 5.66400000000000e+00 7.43400000000000e+00 3.284e+05 3.284e+05 3.284e+05 -2.918e-10 -2.779e-12 -0.000e+00
249 1 7.43400000000000e+00 7.43400000000000e+00 7.43400000000000e+00 3.284e+05 3.284e+05 3.284e+05 -0.000e+00 -0.000e+00 -0.000e+00
151 1 9.20400000000000e+00 7.43400000000000e+00 5.66400000000000e+00 3.284e+05 3.284e+05 3.284e+05 2.779e-12 3.585e-10 2.779e-12
230 1 9.20400000000000e+00 5.66400000000000e+00 7.43400000000000e+00 3.284e+05 3.284e+05 3.284e+05 8.894e-11 -1.390e-11 -0.000e+00
136 1 1.09740000000000e+01 5.66400000000000e+00 5.66400000000000e+00 3.284e+05 3.284e+05 3.284e+05 -2.001e-10 1.223e-10 -1.112e-11
253 1 1.09740000000000e+01 7.43400000000000e+00 7.43400000000000e+00 3.284e+05 3.284e+05 3.284e+05 -0.000e+00 -0.000e+00 5.559e-12
140 1 1.45140000000000e+01 5.66400000000000e+00 5.66400000000000e+00 3.284e+05 3.284e+05 3.284e+05 -0.000e+00 -0.000e+00 -5.559e-12
155 1 1.27440000000000e+01 7.43400000000000e+00 5.66400000000000e+00 3.284e+05 3.284e+05 3.284e+05 -0.000e+00 -0.000e+00 -0.000e+00
234 1 1.27440000000000e+01 5.66400000000000e+00 7.43400000000000e+00 3.284e+05 3.284e+05 3.284e+05 -0.000e+00 -0.000e+00 -0.000e+00
257 1 1.45140000000000e+01 7.43400000000000e+00 7.43400000000000e+00 3.284e+05 3.284e+05 3.284e+05 -0.000e+00 2.112e-10 -0.000e+00
159 1 1.62840000000000e+01 7.43400000000000e+00 5.66400000000000e+00 3.284e+05 3.284e+05 3.284e+05 -0.000e+00 2.182e-10 -1.390e-11
238 1 1.62840000000000e+01 5.66400000000000e+00 7.43400000000000e+00 3.284e+05 3.284e+05 3.284e+05 2.223e-10 -1.112e-11 2.335e-10
144 1 3.54000000000000e-01 9.20400000000000e+00 5.66400000000000e+00 3.284e+05 3.284e+05 3.284e+05 -2.835e-09 2.379e-09 1.112e-11
242 1 2.12400000000000e+00 9.20400000000000e+00 7.43400000000000e+00 3.284e+05 3.284e+05 3.284e+05 1.640e-10 -7.782e-11 -5.142e-11
148 1 3.89400000000000e+00 9.20400000000000e+00 5.66400000000000e+00 3.284e+05 3.284e+05 3.284e+05 1.091e-09 -1.306e-09 -1.278e-10
152 1 7.43400000000000e+00 9.20400000000000e+00 5.66400000000000e+00 3.284e+05 3.284e+05 3.284e+05 2.779e-12 -0.000e+00 6.003e-10
246 1 5.66400000000000e+00 9.20400000000000e+00 7.43400000000000e+00 3.284e+05 3.284e+05 3.284e+05 2.835e-10 -1.112e-11 2.779e-12
250 1 9.20400000000000e+00 9.20400000000000e+00 7.43400000000000e+00 3.284e+05 3.284e+05 3.284e+05 -8.894e-11 -2.779e-12 2.779e-12
156 1 1.09740000000000e+01 9.20400000000000e+00 5.66400000000000e+00 3.284e+05 3.284e+05 3.284e+05 2.112e-10 1.223e-10 2.223e-11
160 1 1.45140000000000e+01 9.20400000000000e+00 5.66400000000000e+00 3.284e+05 3.284e+05 3.284e+05 -0.000e+00 -0.000e+00 2.918e-11
254 1 1.27440000000000e+01 9.20400000000000e+00 7.43400000000000e+00 3.284e+05 3.284e+05 3.284e+05 2.779e-12 -0.000e+00 -0.000e+00
258 1 1.62840000000000e+01 9.20400000000000e+00 7.43400000000000e+00 3.284e+05 3.284e+05 3.284e+05 -2.335e-10 1.112e-11 -2.223e-10
163 1 2.12400000000000e+00 1.09740000000000e+01 5.66400000000000e+00 3.284e+05 3.284e+05 3.284e+05 -7.226e-11 -7.226e-11 -4.447e-11
261 1 3.54000000000000e-01 1.09740000000000e+01 7.43400000000000e+00 3.284e+05 3.284e+05 3.284e+05 -5.559e-10 -2.590e-09 8.894e-11
265 1 3.89400000000000e+00 1.09740000000000e+01 7.43400000000000e+00 3.284e+05 3.284e+05 3.284e+05 2.362e-10 -0.000e+00 -5.559e-12
167 1 5.66400000000000e+00 1.09740000000000e+01 5.66400000000000e+00 3.284e+05 3.284e+05 3.284e+05 -2.029e-10 2.168e-10 1.167e-10
269 1 7.43400000000000e+00 1.09740000000000e+01 7.43400000000000e+00 3.284e+05 3.284e+05 3.284e+05 -8.338e-12 -0.000e+00 -5.559e-12
171 1 9.20400000000000e+00 1.09740000000000e+01 5.66400000000000e+00 3.284e+05 3.284e+05 3.284e+05 2.112e-10 -1.946e-10 1.223e-10
273 1 1.09740000000000e+01 1.09740000000000e+01 7.43400000000000e+00 3.284e+05 3.284e+05 3.284e+05 -0.000e+00 -0.000e+00 -0.000e+00
175 1 1.27440000000000e+01 1.09740000000000e+01 5.66400000000000e+00 3.284e+05 3.284e+05 3.284e+05 -0.000e+00 -0.000e+00 1.223e-10
277 1 1.45140000000000e+01 1.09740000000000e+01 7.43400000000000e+00 3.284e+05 3.284e+05 3.284e+05 -0.000e+00 -0.000e+00 -0.000e+00
179 1 1.62840000000000e+01 1.09740000000000e+01 5.66400000000000e+00 3.284e+05 3.284e+05 3.284e+05 -1.112e-11 2.223e-10 1.167e-10
164 1 3.54000000000000e-01 1.27440000000000e+01 5.66400000000000e+00 3.284e+05 3.284e+05 3.284e+05 2.223e-11 2.162e-09 -2.223e-11
183 1 2.12400000000000e+00 1.45140000000000e+01 5.66400000000000e+00 3.284e+05 3.284e+05 3.284e+05 -7.226e-11 -7.226e-11 4.447e-11
262 1 2.12400000000000e+00 1.27440000000000e+01 7.43400000000000e+00 3.284e+05 3.284e+05 3.284e+05 2.779e-12 -1.334e-10 -0.000e+00
281 1 3.54000000000000e-01 1.45140000000000e+01 7.43400000000000e+00 3.284e+05 3.284e+05 3.284e+05 -3.669e-10 -2.579e-09 6.115e-11
168 1 3.89400000000000e+00 1.27440000000000e+01 5.66400000000000e+00 3.284e+05 3.284e+05 3.284e+05 8.338e-12 -1.117e-09 -0.000e+00
285 1 3.89400000000000e+00 1.45140000000000e+01 7.43400000000000e+00 3.284e+05 3.284e+05 3.284e+05 5.559e-12 -0.000e+00 -0.000e+00
172 1 7.43400000000000e+00 1.27440000000000e+01 5.66400000000000e+00 3.284e+05 3.284e+05 3.284e+05 2.779e-12 1.112e-11 -2.112e-10