          94
Lattice="  10.5600   0.0000   0.0000   0.0000  10.5600   0.0000   0.0000   0.0000  10.5600 " Time=0.000E+00  Step=0
Ni     3.49985762    1.75410809    1.75410809       1
Ni     1.75410809    3.49985762    1.75410809       2
Ni     5.28000000    3.44378928    1.68702889       3
Ni     3.44378928    5.28000000    1.68702889       4
Ni     1.75410809    7.06014238    1.75410809       5
Ni     5.28000000    7.11621072    1.68702889       6
Ni     3.49985762    8.80589191    1.75410809       7
Ni     1.75008020   10.56000000    1.75008020       8
Ni     5.28000000   10.56000000    1.71961817       9
Ni     1.75410809    1.75410809    3.49985762      10
Ni     5.28000000    1.68702889    3.44378928      11
Ni     3.44378928    1.68702889    5.28000000      12
Ni     1.68702889    5.28000000    3.44378928      13
Ni     1.68702889    3.44378928    5.28000000      14
Ni     1.75410809    8.80589191    3.49985762      19
Ni     1.68702889    7.11621072    5.28000000      20
Ni     5.28000000    8.87297111    3.44378928      22
Ni     3.44378928    8.87297111    5.28000000      24
Ni     1.71961817   10.56000000    5.28000000      25
Ni     3.49835432   10.56000000    3.49835432      26
Ni     5.28000000   10.56000000    5.28000000      27
Ni     1.75410809    1.75410809    7.06014238      28
Ni     5.28000000    1.68702889    7.11621072      29
Ni     3.49985762    1.75410809    8.80589191      30
Ni     1.68702889    5.28000000    7.11621072      31
Ni     1.75410809    3.49985762    8.80589191      32
Ni     5.28000000    3.44378928    8.87297111      35
Ni     3.44378928    5.28000000    8.87297111      36
Ni     1.75410809    8.80589191    7.06014238      37
Ni     1.75410809    7.06014238    8.80589191      38
Ni     5.28000000    8.87297111    7.11621072      40
Ni     5.28000000    7.11621072    8.87297111      41
Ni     3.49985762    8.80589191    8.80589191      42
Ni     1.75008020   10.56000000    8.80991980      43
Ni     3.49835432   10.56000000    7.06164568      44
Ni     5.28000000   10.56000000    8.84038183      45
Ni     1.75008020    1.75008020   10.56000000      46
Ni     5.28000000    1.71961817   10.56000000      47
Ni     1.71961817    5.28000000   10.56000000      48
Ni     3.49835432    3.49835432   10.56000000      49
Ni     5.28000000    5.28000000   10.56000000      50
Ni     1.75008020    8.80991980   10.56000000      51
Ni     3.49835432    7.06164568   10.56000000      52
Ni     5.28000000    8.84038183   10.56000000      53
Ni     3.49836779   10.56000000   10.56000000      54
Ni     7.06014238    1.75410809    1.75410809      55
Ni    10.56000000    1.75008020    1.75008020      56
Ni     8.80589191    3.49985762    1.75410809      57
Ni     7.11621072    5.28000000    1.68702889      58
Ni    10.56000000    5.28000000    1.71961817      59
Ni     8.80589191    7.06014238    1.75410809      60
Ni     7.06014238    8.80589191    1.75410809      61
Ni    10.56000000    8.80991980    1.75008020      62
Ni     8.80991980   10.56000000    1.75008020      63
Ni     8.80589191    1.75410809    3.49985762      64
Ni     7.11621072    1.68702889    5.28000000      65
Ni    10.56000000    1.71961817    5.28000000      66
Ni     8.87297111    5.28000000    3.44378928      68
Ni     8.87297111    3.44378928    5.28000000      69
Ni    10.56000000    3.49835432    3.49835432      71
Ni    10.56000000    5.28000000    5.28000000      72
Ni     8.80589191    8.80589191    3.49985762      74
Ni     8.87297111    7.11621072    5.28000000      75
Ni     7.11621072    8.87297111    5.28000000      76
Ni    10.56000000    7.06164568    3.49835432      77
Ni    10.56000000    8.84038183    5.28000000      78
Ni     7.06164568   10.56000000    3.49835432      79
Ni     8.84038183   10.56000000    5.28000000      80
Ni    10.56000000   10.56000000    3.49836779      81
Ni     8.80589191    1.75410809    7.06014238      82
Ni     7.06014238    1.75410809    8.80589191      83
Ni    10.56000000    1.75008020    8.80991980      84
Ni     8.87297111    5.28000000    7.11621072      86
Ni     8.80589191    3.49985762    8.80589191      87
Ni     7.11621072    5.28000000    8.87297111      88
Ni    10.56000000    3.49835432    7.06164568      89
Ni    10.56000000    5.28000000    8.84038183      90
Ni     8.80589191    8.80589191    7.06014238      92
Ni     8.80589191    7.06014238    8.80589191      93
Ni     7.06014238    8.80589191    8.80589191      94
Ni    10.56000000    7.06164568    7.06164568      95
Ni    10.56000000    8.80991980    8.80991980      96
Ni     7.06164568   10.56000000    7.06164568      97
Ni     8.80991980   10.56000000    8.80991980      98
Ni    10.56000000   10.56000000    7.06163221      99
Ni     8.80991980    1.75008020   10.56000000     100
Ni     7.06164568    3.49835432   10.56000000     101
Ni     8.84038183    5.28000000   10.56000000     102
Ni    10.56000000    3.49836779   10.56000000     103
Ni     7.06164568    7.06164568   10.56000000     104
Ni     8.80991980    8.80991980   10.56000000     105
Ni    10.56000000    7.06163221   10.56000000     106
Ni     7.06163221   10.56000000   10.56000000     107
Ni    10.56000000   10.56000000   10.56000000     108
