          15
Lattice="  10.5600   0.0000   0.0000   0.0000  10.5600   0.0000   0.0000   0.0000  10.5600 " Time=0.000E+00  Step=0
Ni     3.54651519    3.54651519    3.54651519      15
Ni     5.28000000    5.28000000    3.11192922      16
Ni     5.28000000    3.11192922    5.28000000      17
Ni     3.11192922    5.28000000    5.28000000      18
Ni     3.54651519    7.01348481    3.54651519      21
Ni     5.28000000    7.44807078    5.28000000      23
Ni     3.54651519    3.54651519    7.01348481      33
Ni     5.28000000    5.28000000    7.44807078      34
Ni     3.54651519    7.01348481    7.01348481      39
Ni     7.01348481    3.54651519    3.54651519      67
Ni     7.44807078    5.28000000    5.28000000      70
Ni     7.01348481    7.01348481    3.54651519      73
Ni     7.01348481    3.54651519    7.01348481      85
Ni     7.01348481    7.01348481    7.01348481      91
Ni     5.28000000    5.28000000    5.28000000     109
