ITEM: TIMESTEP
0
ITEM: NUMBER OF ATOMS
109
ITEM: BOX BOUNDS pp pp pp
8.8000000000000000e-01 1.1440000000000000e+01
8.8000000000000000e-01 1.1440000000000000e+01
8.8000000000000000e-01 1.1440000000000000e+01
ITEM: ATOMS id type x y z
1 1 3.520e+00 1.760e+00 1.760e+00
2 1 1.760e+00 3.520e+00 1.760e+00
3 1 5.280e+00 3.520e+00 1.760e+00
4 1 3.520e+00 5.280e+00 1.760e+00
5 1 1.760e+00 7.040e+00 1.760e+00
6 1 5.280e+00 7.040e+00 1.760e+00
8 1 1.760e+00 1.056e+01 1.760e+00
7 1 3.520e+00 8.800e+00 1.760e+00
9 1 5.280e+00 1.056e+01 1.760e+00
10 1 1.760e+00 1.760e+00 3.520e+00
11 1 5.280e+00 1.760e+00 3.520e+00
12 1 3.520e+00 1.760e+00 5.280e+00
13 1 1.760e+00 5.280e+00 3.520e+00
14 1 1.760e+00 3.520e+00 5.280e+00
15 1 3.520e+00 3.520e+00 3.520e+00
16 1 5.280e+00 5.280e+00 3.520e+00
17 1 5.280e+00 3.520e+00 5.280e+00
18 1 3.520e+00 5.280e+00 5.280e+00
109 1 5.280e+00 5.280e+00 5.280e+00
20 1 1.760e+00 7.040e+00 5.280e+00
21 1 3.520e+00 7.040e+00 3.520e+00
23 1 5.280e+00 7.040e+00 5.280e+00
19 1 1.760e+00 8.800e+00 3.520e+00
25 1 1.760e+00 1.056e+01 5.280e+00
22 1 5.280e+00 8.800e+00 3.520e+00
24 1 3.520e+00 8.800e+00 5.280e+00
26 1 3.520e+00 1.056e+01 3.520e+00
27 1 5.280e+00 1.056e+01 5.280e+00
28 1 1.760e+00 1.760e+00 7.040e+00
29 1 5.280e+00 1.760e+00 7.040e+00
31 1 1.760e+00 5.280e+00 7.040e+00
33 1 3.520e+00 3.520e+00 7.040e+00
34 1 5.280e+00 5.280e+00 7.040e+00
39 1 3.520e+00 7.040e+00 7.040e+00
37 1 1.760e+00 8.800e+00 7.040e+00
40 1 5.280e+00 8.800e+00 7.040e+00
44 1 3.520e+00 1.056e+01 7.040e+00
46 1 1.760e+00 1.760e+00 1.056e+01
30 1 3.520e+00 1.760e+00 8.800e+00
47 1 5.280e+00 1.760e+00 1.056e+01
32 1 1.760e+00 3.520e+00 8.800e+00
48 1 1.760e+00 5.280e+00 1.056e+01
35 1 5.280e+00 3.520e+00 8.800e+00
36 1 3.520e+00 5.280e+00 8.800e+00
49 1 3.520e+00 3.520e+00 1.056e+01
50 1 5.280e+00 5.280e+00 1.056e+01
38 1 1.760e+00 7.040e+00 8.800e+00
41 1 5.280e+00 7.040e+00 8.800e+00
52 1 3.520e+00 7.040e+00 1.056e+01
43 1 1.760e+00 1.056e+01 8.800e+00
51 1 1.760e+00 8.800e+00 1.056e+01
42 1 3.520e+00 8.800e+00 8.800e+00
45 1 5.280e+00 1.056e+01 8.800e+00
53 1 5.280e+00 8.800e+00 1.056e+01
54 1 3.520e+00 1.056e+01 1.056e+01
55 1 7.040e+00 1.760e+00 1.760e+00
56 1 1.056e+01 1.760e+00 1.760e+00
58 1 7.040e+00 5.280e+00 1.760e+00
57 1 8.800e+00 3.520e+00 1.760e+00
59 1 1.056e+01 5.280e+00 1.760e+00
60 1 8.800e+00 7.040e+00 1.760e+00
61 1 7.040e+00 8.800e+00 1.760e+00
62 1 1.056e+01 8.800e+00 1.760e+00
63 1 8.800e+00 1.056e+01 1.760e+00
65 1 7.040e+00 1.760e+00 5.280e+00
64 1 8.800e+00 1.760e+00 3.520e+00
66 1 1.056e+01 1.760e+00 5.280e+00
67 1 7.040e+00 3.520e+00 3.520e+00
70 1 7.040e+00 5.280e+00 5.280e+00
68 1 8.800e+00 5.280e+00 3.520e+00
69 1 8.800e+00 3.520e+00 5.280e+00
71 1 1.056e+01 3.520e+00 3.520e+00
72 1 1.056e+01 5.280e+00 5.280e+00
73 1 7.040e+00 7.040e+00 3.520e+00
75 1 8.800e+00 7.040e+00 5.280e+00
77 1 1.056e+01 7.040e+00 3.520e+00
76 1 7.040e+00 8.800e+00 5.280e+00
79 1 7.040e+00 1.056e+01 3.520e+00
74 1 8.800e+00 8.800e+00 3.520e+00
78 1 1.056e+01 8.800e+00 5.280e+00
80 1 8.800e+00 1.056e+01 5.280e+00
81 1 1.056e+01 1.056e+01 3.520e+00
82 1 8.800e+00 1.760e+00 7.040e+00
85 1 7.040e+00 3.520e+00 7.040e+00
86 1 8.800e+00 5.280e+00 7.040e+00
89 1 1.056e+01 3.520e+00 7.040e+00
91 1 7.040e+00 7.040e+00 7.040e+00
95 1 1.056e+01 7.040e+00 7.040e+00
97 1 7.040e+00 1.056e+01 7.040e+00
92 1 8.800e+00 8.800e+00 7.040e+00
99 1 1.056e+01 1.056e+01 7.040e+00
83 1 7.040e+00 1.760e+00 8.800e+00
84 1 1.056e+01 1.760e+00 8.800e+00
100 1 8.800e+00 1.760e+00 1.056e+01
88 1 7.040e+00 5.280e+00 8.800e+00
101 1 7.040e+00 3.520e+00 1.056e+01
87 1 8.800e+00 3.520e+00 8.800e+00
90 1 1.056e+01 5.280e+00 8.800e+00
102 1 8.800e+00 5.280e+00 1.056e+01
103 1 1.056e+01 3.520e+00 1.056e+01
104 1 7.040e+00 7.040e+00 1.056e+01
93 1 8.800e+00 7.040e+00 8.800e+00
106 1 1.056e+01 7.040e+00 1.056e+01
94 1 7.040e+00 8.800e+00 8.800e+00
107 1 7.040e+00 1.056e+01 1.056e+01
96 1 1.056e+01 8.800e+00 8.800e+00
98 1 8.800e+00 1.056e+01 8.800e+00
105 1 8.800e+00 8.800e+00 1.056e+01
108 1 1.056e+01 1.056e+01 1.056e+01
ITEM: TIMESTEP
1000
ITEM: NUMBER OF ATOMS
109
ITEM: BOX BOUNDS pp pp pp
8.8000000000000000e-01 1.1440000000000000e+01
8.8000000000000000e-01 1.1440000000000000e+01
8.8000000000000000e-01 1.1440000000000000e+01
ITEM: ATOMS id type x y z
1 1 3.471e+00 1.741e+00 1.805e+00
2 1 1.734e+00 3.469e+00 1.813e+00
3 1 5.285e+00 3.267e+00 1.707e+00
4 1 3.234e+00 5.269e+00 1.683e+00
16 1 5.301e+00 5.373e+00 2.372e+00
5 1 1.718e+00 7.111e+00 1.788e+00
6 1 5.289e+00 7.396e+00 1.651e+00
8 1 1.771e+00 1.058e+01 1.732e+00
7 1 3.448e+00 8.863e+00 1.791e+00
9 1 5.286e+00 1.055e+01 1.768e+00
10 1 1.759e+00 1.763e+00 3.574e+00
12 1 3.472e+00 1.723e+00 5.316e+00
14 1 1.750e+00 3.482e+00 5.305e+00
11 1 5.265e+00 1.752e+00 3.540e+00
17 1 5.289e+00 3.229e+00 5.474e+00
13 1 1.763e+00 5.276e+00 3.538e+00
18 1 3.287e+00 5.303e+00 5.449e+00
15 1 3.628e+00 3.612e+00 3.589e+00
109 1 5.237e+00 5.139e+00 4.473e+00
20 1 1.720e+00 7.090e+00 5.292e+00
24 1 3.520e+00 8.794e+00 5.294e+00
21 1 3.634e+00 6.923e+00 3.552e+00
23 1 5.306e+00 7.164e+00 5.414e+00
19 1 1.745e+00 8.833e+00 3.545e+00
25 1 1.757e+00 1.054e+01 5.293e+00
22 1 5.278e+00 8.809e+00 3.531e+00
26 1 3.530e+00 1.057e+01 3.521e+00
27 1 5.287e+00 1.060e+01 5.341e+00
28 1 1.746e+00 1.722e+00 7.065e+00
33 1 3.511e+00 3.511e+00 7.081e+00
29 1 5.277e+00 1.688e+00 7.143e+00
35 1 5.277e+00 3.518e+00 8.782e+00
31 1 1.684e+00 5.281e+00 7.114e+00
36 1 3.513e+00 5.282e+00 8.772e+00
34 1 5.280e+00 5.269e+00 7.006e+00
37 1 1.754e+00 8.792e+00 7.064e+00
39 1 3.535e+00 7.022e+00 7.066e+00
41 1 5.275e+00 7.046e+00 8.771e+00
44 1 3.451e+00 1.055e+01 7.092e+00
40 1 5.281e+00 8.851e+00 7.095e+00
45 1 5.291e+00 1.056e+01 8.765e+00
46 1 1.747e+00 1.755e+00 1.059e+01
30 1 3.490e+00 1.767e+00 8.818e+00
32 1 1.760e+00 3.495e+00 8.817e+00
49 1 3.473e+00 3.474e+00 1.058e+01
47 1 5.278e+00 1.706e+00 1.053e+01
48 1 1.711e+00 5.289e+00 1.051e+01
50 1 5.282e+00 5.300e+00 1.058e+01
38 1 1.780e+00 7.066e+00 8.811e+00
52 1 3.472e+00 7.110e+00 1.057e+01
42 1 3.515e+00 8.796e+00 8.803e+00
43 1 1.764e+00 1.054e+01 8.836e+00
51 1 1.760e+00 8.812e+00 1.058e+01
54 1 3.492e+00 1.058e+01 1.055e+01
53 1 5.286e+00 8.874e+00 1.050e+01
55 1 7.092e+00 1.735e+00 1.796e+00
56 1 1.056e+01 1.789e+00 1.730e+00
57 1 8.844e+00 3.453e+00 1.784e+00
58 1 7.343e+00 5.279e+00 1.653e+00
59 1 1.056e+01 5.277e+00 1.773e+00
60 1 8.846e+00 7.122e+00 1.813e+00
61 1 7.132e+00 8.868e+00 1.803e+00
62 1 1.056e+01 8.805e+00 1.754e+00
63 1 8.804e+00 1.057e+01 1.749e+00
81 1 1.058e+01 1.059e+01 3.448e+00
65 1 7.097e+00 1.711e+00 5.307e+00
64 1 8.814e+00 1.758e+00 3.564e+00
66 1 1.055e+01 1.736e+00 5.294e+00
69 1 8.810e+00 3.493e+00 5.302e+00
67 1 6.934e+00 3.622e+00 3.576e+00
70 1 7.214e+00 5.312e+00 5.432e+00
68 1 8.801e+00 5.278e+00 3.527e+00
71 1 1.056e+01 3.527e+00 3.538e+00
72 1 1.058e+01 5.286e+00 5.324e+00
73 1 6.893e+00 6.901e+00 3.561e+00
75 1 8.826e+00 7.061e+00 5.272e+00
77 1 1.058e+01 7.033e+00 3.528e+00
76 1 7.052e+00 8.811e+00 5.277e+00
79 1 7.028e+00 1.059e+01 3.524e+00
80 1 8.796e+00 1.054e+01 5.278e+00
74 1 8.821e+00 8.823e+00 3.546e+00
78 1 1.055e+01 8.814e+00 5.273e+00
82 1 8.785e+00 1.733e+00 7.067e+00
85 1 7.034e+00 3.515e+00 7.063e+00
89 1 1.056e+01 3.449e+00 7.088e+00
88 1 7.051e+00 5.277e+00 8.772e+00
86 1 8.864e+00 5.291e+00 7.113e+00
90 1 1.056e+01 5.282e+00 8.760e+00
91 1 7.023e+00 7.023e+00 7.063e+00
92 1 8.794e+00 8.787e+00 7.056e+00
94 1 7.070e+00 8.793e+00 8.800e+00
95 1 1.055e+01 7.106e+00 7.086e+00
97 1 7.099e+00 1.054e+01 7.084e+00
99 1 1.054e+01 1.054e+01 7.104e+00
83 1 7.058e+00 1.772e+00 8.818e+00
101 1 7.071e+00 3.466e+00 1.059e+01
87 1 8.785e+00 3.511e+00 8.809e+00
84 1 1.055e+01 1.761e+00 8.835e+00
100 1 8.813e+00 1.760e+00 1.059e+01
103 1 1.058e+01 3.503e+00 1.056e+01
102 1 8.863e+00 5.283e+00 1.051e+01
104 1 7.100e+00 7.113e+00 1.056e+01
93 1 8.805e+00 7.061e+00 8.805e+00
106 1 1.057e+01 7.052e+00 1.057e+01
96 1 1.057e+01 8.785e+00 8.836e+00
107 1 7.056e+00 1.058e+01 1.057e+01
98 1 8.785e+00 1.056e+01 8.834e+00
105 1 8.811e+00 8.824e+00 1.059e+01
108 1 1.055e+01 1.055e+01 1.059e+01
ITEM: TIMESTEP
2000
ITEM: NUMBER OF ATOMS
109
ITEM: BOX BOUNDS pp pp pp
8.8000000000000000e-01 1.1440000000000000e+01
8.8000000000000000e-01 1.1440000000000000e+01
8.8000000000000000e-01 1.1440000000000000e+01
ITEM: ATOMS id type x y z
1 1 3.481e+00 1.702e+00 1.763e+00
2 1 1.722e+00 3.468e+00 1.760e+00
3 1 5.281e+00 3.239e+00 1.622e+00
4 1 3.236e+00 5.282e+00 1.630e+00
16 1 5.308e+00 5.295e+00 2.441e+00
5 1 1.714e+00 7.078e+00 1.778e+00
6 1 5.276e+00 7.349e+00 1.617e+00
21 1 3.628e+00 6.928e+00 3.514e+00
8 1 1.738e+00 1.056e+01 1.786e+00
7 1 3.459e+00 8.826e+00 1.765e+00
9 1 5.277e+00 1.055e+01 1.778e+00
10 1 1.758e+00 1.763e+00 3.535e+00
12 1 3.459e+00 1.710e+00 5.294e+00
14 1 1.699e+00 3.465e+00 5.297e+00
11 1 5.284e+00 1.708e+00 3.532e+00
17 1 5.299e+00 3.181e+00 5.411e+00
13 1 1.712e+00 5.274e+00 3.543e+00
18 1 3.197e+00 5.302e+00 5.418e+00
15 1 3.622e+00 3.613e+00 3.531e+00
109 1 5.264e+00 5.245e+00 4.579e+00
20 1 1.700e+00 7.100e+00 5.296e+00
19 1 1.760e+00 8.789e+00 3.546e+00
23 1 5.285e+00 7.325e+00 5.447e+00
24 1 3.470e+00 8.825e+00 5.300e+00
25 1 1.739e+00 1.056e+01 5.299e+00
26 1 3.510e+00 1.055e+01 3.522e+00
22 1 5.278e+00 8.825e+00 3.567e+00
27 1 5.265e+00 1.055e+01 5.310e+00
28 1 1.734e+00 1.743e+00 7.078e+00
33 1 3.490e+00 3.496e+00 7.045e+00
29 1 5.290e+00 1.660e+00 7.141e+00
31 1 1.664e+00 5.273e+00 7.131e+00
34 1 5.276e+00 5.273e+00 7.054e+00
39 1 3.488e+00 7.085e+00 7.094e+00
37 1 1.738e+00 8.832e+00 7.080e+00
44 1 3.477e+00 1.056e+01 7.053e+00
40 1 5.273e+00 8.888e+00 7.131e+00
46 1 1.750e+00 1.748e+00 1.058e+01
30 1 3.487e+00 1.735e+00 8.821e+00
32 1 1.738e+00 3.493e+00 8.822e+00
49 1 3.498e+00 3.492e+00 1.051e+01
35 1 5.278e+00 3.503e+00 8.815e+00
47 1 5.286e+00 1.676e+00 1.050e+01
36 1 3.500e+00 5.278e+00 8.828e+00
48 1 1.674e+00 5.280e+00 1.050e+01
50 1 5.277e+00 5.280e+00 1.059e+01
38 1 1.731e+00 7.083e+00 8.824e+00
52 1 3.477e+00 7.062e+00 1.050e+01
41 1 5.279e+00 7.054e+00 8.840e+00
42 1 3.462e+00 8.853e+00 8.823e+00
43 1 1.731e+00 1.057e+01 8.831e+00
51 1 1.734e+00 8.816e+00 1.059e+01
54 1 3.504e+00 1.057e+01 1.056e+01
45 1 5.282e+00 1.057e+01 8.804e+00
53 1 5.283e+00 8.906e+00 1.047e+01
55 1 7.074e+00 1.703e+00 1.775e+00
56 1 1.055e+01 1.740e+00 1.785e+00
57 1 8.830e+00 3.457e+00 1.764e+00
58 1 7.362e+00 5.290e+00 1.628e+00
67 1 6.935e+00 3.641e+00 3.517e+00
59 1 1.055e+01 5.284e+00 1.783e+00
73 1 6.956e+00 6.956e+00 3.514e+00
60 1 8.853e+00 7.107e+00 1.774e+00
61 1 7.097e+00 8.832e+00 1.760e+00
62 1 1.057e+01 8.821e+00 1.797e+00
63 1 8.813e+00 1.055e+01 1.794e+00
65 1 7.102e+00 1.697e+00 5.284e+00
64 1 8.791e+00 1.760e+00 3.538e+00
66 1 1.055e+01 1.729e+00 5.296e+00
69 1 8.845e+00 3.474e+00 5.300e+00
71 1 1.056e+01 3.516e+00 3.534e+00
70 1 7.341e+00 5.309e+00 5.426e+00
68 1 8.842e+00 5.270e+00 3.566e+00
72 1 1.056e+01 5.274e+00 5.317e+00
75 1 8.849e+00 7.100e+00 5.317e+00
77 1 1.055e+01 7.031e+00 3.532e+00
74 1 8.806e+00 8.799e+00 3.543e+00
76 1 7.087e+00 8.842e+00 5.313e+00
79 1 7.034e+00 1.053e+01 3.536e+00
81 1 1.056e+01 1.057e+01 3.541e+00
80 1 8.822e+00 1.056e+01 5.298e+00
78 1 1.056e+01 8.827e+00 5.301e+00
85 1 7.086e+00 3.502e+00 7.081e+00
82 1 8.814e+00 1.749e+00 7.073e+00
89 1 1.055e+01 3.471e+00 7.070e+00
86 1 8.898e+00 5.283e+00 7.125e+00
90 1 1.057e+01 5.290e+00 8.798e+00
91 1 7.071e+00 7.083e+00 7.105e+00
95 1 1.056e+01 7.079e+00 7.059e+00
97 1 7.076e+00 1.056e+01 7.058e+00
92 1 8.821e+00 8.830e+00 7.097e+00
99 1 1.056e+01 1.056e+01 7.042e+00
83 1 7.082e+00 1.737e+00 8.823e+00
101 1 7.062e+00 3.492e+00 1.050e+01
87 1 8.849e+00 3.488e+00 8.824e+00
84 1 1.056e+01 1.734e+00 8.840e+00
100 1 8.813e+00 1.736e+00 1.058e+01
103 1 1.056e+01 3.510e+00 1.056e+01
88 1 7.060e+00 5.281e+00 8.832e+00
102 1 8.908e+00 5.292e+00 1.048e+01
104 1 7.066e+00 7.055e+00 1.051e+01
93 1 8.837e+00 7.086e+00 8.824e+00
106 1 1.057e+01 7.064e+00 1.058e+01
94 1 7.092e+00 8.832e+00 8.827e+00
107 1 7.058e+00 1.058e+01 1.058e+01
96 1 1.055e+01 8.834e+00 8.830e+00
98 1 8.823e+00 1.056e+01 8.833e+00
105 1 8.823e+00 8.814e+00 1.059e+01
108 1 1.056e+01 1.056e+01 1.059e+01
ITEM: TIMESTEP
3000
ITEM: NUMBER OF ATOMS
109
ITEM: BOX BOUNDS pp pp pp
8.8000000000000000e-01 1.1440000000000000e+01
8.8000000000000000e-01 1.1440000000000000e+01
8.8000000000000000e-01 1.1440000000000000e+01
ITEM: ATOMS id type x y z
1 1 3.473e+00 1.727e+00 1.740e+00
2 1 1.735e+00 3.488e+00 1.743e+00
10 1 1.808e+00 1.803e+00 3.506e+00
3 1 5.273e+00 3.282e+00 1.636e+00
11 1 5.276e+00 1.720e+00 3.519e+00
4 1 3.282e+00 5.277e+00 1.641e+00
16 1 5.313e+00 5.302e+00 2.511e+00
5 1 1.713e+00 7.089e+00 1.742e+00
19 1 1.789e+00 8.774e+00 3.512e+00
6 1 5.281e+00 7.327e+00 1.638e+00
8 1 1.727e+00 1.057e+01 1.791e+00
7 1 3.467e+00 8.843e+00 1.760e+00
9 1 5.264e+00 1.054e+01 1.789e+00
12 1 3.475e+00 1.709e+00 5.322e+00
14 1 1.722e+00 3.473e+00 5.323e+00
17 1 5.305e+00 3.210e+00 5.455e+00
13 1 1.722e+00 5.294e+00 3.525e+00
18 1 3.207e+00 5.314e+00 5.449e+00
15 1 3.618e+00 3.615e+00 3.536e+00
109 1 5.240e+00 5.239e+00 4.626e+00
20 1 1.698e+00 7.117e+00 5.326e+00
21 1 3.614e+00 6.960e+00 3.528e+00
23 1 5.304e+00 7.300e+00 5.426e+00
24 1 3.479e+00 8.830e+00 5.310e+00
25 1 1.729e+00 1.055e+01 5.267e+00
26 1 3.504e+00 1.056e+01 3.526e+00
22 1 5.283e+00 8.870e+00 3.529e+00
27 1 5.279e+00 1.058e+01 5.321e+00
28 1 1.729e+00 1.712e+00 7.054e+00
33 1 3.495e+00 3.493e+00 7.094e+00
29 1 5.275e+00 1.667e+00 7.181e+00
31 1 1.680e+00 5.297e+00 7.180e+00
34 1 5.279e+00 5.294e+00 7.064e+00
39 1 3.494e+00 7.088e+00 7.094e+00
37 1 1.721e+00 8.836e+00 7.075e+00
44 1 3.494e+00 1.055e+01 7.044e+00
40 1 5.279e+00 8.877e+00 7.156e+00
46 1 1.723e+00 1.733e+00 1.056e+01
30 1 3.479e+00 1.719e+00 8.807e+00
32 1 1.727e+00 3.480e+00 8.808e+00
49 1 3.492e+00 3.498e+00 1.050e+01
35 1 5.276e+00 3.503e+00 8.818e+00
47 1 5.271e+00 1.704e+00 1.047e+01
36 1 3.500e+00 5.286e+00 8.824e+00
48 1 1.710e+00 5.266e+00 1.049e+01
50 1 5.272e+00 5.276e+00 1.060e+01
38 1 1.734e+00 7.067e+00 8.825e+00
52 1 3.511e+00 7.064e+00 1.053e+01
41 1 5.277e+00 7.077e+00 8.846e+00
42 1 3.490e+00 8.826e+00 8.823e+00
43 1 1.739e+00 1.056e+01 8.804e+00
51 1 1.742e+00 8.813e+00 1.058e+01
54 1 3.516e+00 1.055e+01 1.056e+01
45 1 5.277e+00 1.053e+01 8.874e+00
53 1 5.263e+00 8.858e+00 1.052e+01
55 1 7.078e+00 1.724e+00 1.747e+00
64 1 8.764e+00 1.800e+00 3.519e+00
56 1 1.057e+01 1.720e+00 1.786e+00
57 1 8.841e+00 3.463e+00 1.744e+00
71 1 1.057e+01 3.497e+00 3.519e+00
58 1 7.315e+00 5.267e+00 1.635e+00
59 1 1.056e+01 5.255e+00 1.791e+00
73 1 6.961e+00 6.954e+00 3.515e+00
74 1 8.775e+00 8.784e+00 3.514e+00
60 1 8.856e+00 7.083e+00 1.760e+00
61 1 7.082e+00 8.854e+00 1.763e+00
62 1 1.056e+01 8.847e+00 1.790e+00
63 1 8.838e+00 1.057e+01 1.792e+00
65 1 7.110e+00 1.704e+00 5.324e+00
66 1 1.056e+01 1.717e+00 5.260e+00
69 1 8.840e+00 3.479e+00 5.321e+00
67 1 6.948e+00 3.604e+00 3.525e+00
70 1 7.300e+00 5.301e+00 5.426e+00
68 1 8.861e+00 5.270e+00 3.530e+00
72 1 1.058e+01 5.283e+00 5.319e+00
75 1 8.839e+00 7.093e+00 5.309e+00
77 1 1.057e+01 7.066e+00 3.531e+00
76 1 7.096e+00 8.838e+00 5.319e+00
79 1 7.058e+00 1.057e+01 3.540e+00
81 1 1.057e+01 1.057e+01 3.552e+00
80 1 8.832e+00 1.056e+01 5.267e+00
78 1 1.055e+01 8.833e+00 5.269e+00
85 1 7.069e+00 3.490e+00 7.100e+00
82 1 8.830e+00 1.726e+00 7.062e+00
89 1 1.057e+01 3.498e+00 7.033e+00
84 1 1.056e+01 1.725e+00 8.781e+00
86 1 8.877e+00 5.283e+00 7.155e+00
91 1 7.076e+00 7.087e+00 7.109e+00
95 1 1.056e+01 7.081e+00 7.051e+00
97 1 7.069e+00 1.056e+01 7.044e+00
92 1 8.826e+00 8.830e+00 7.078e+00
99 1 1.055e+01 1.056e+01 7.025e+00
83 1 7.060e+00 1.734e+00 8.815e+00
101 1 7.065e+00 3.507e+00 1.051e+01
87 1 8.827e+00 3.483e+00 8.811e+00
100 1 8.822e+00 1.742e+00 1.057e+01
103 1 1.056e+01 3.517e+00 1.054e+01
88 1 7.066e+00 5.284e+00 8.836e+00
90 1 1.056e+01 5.274e+00 8.867e+00
102 1 8.864e+00 5.255e+00 1.050e+01
104 1 7.067e+00 7.065e+00 1.052e+01
93 1 8.837e+00 7.047e+00 8.819e+00
106 1 1.056e+01 7.022e+00 1.059e+01
96 1 1.055e+01 8.793e+00 8.840e+00
94 1 7.062e+00 8.829e+00 8.827e+00
107 1 7.034e+00 1.054e+01 1.058e+01
98 1 8.793e+00 1.056e+01 8.818e+00
105 1 8.806e+00 8.809e+00 1.059e+01
108 1 1.056e+01 1.056e+01 1.053e+01
ITEM: TIMESTEP
4000
ITEM: NUMBER OF ATOMS
109
ITEM: BOX BOUNDS pp pp pp
8.8000000000000000e-01 1.1440000000000000e+01
8.8000000000000000e-01 1.1440000000000000e+01
8.8000000000000000e-01 1.1440000000000000e+01
ITEM: ATOMS id type x y z
1 1 3.495e+00 1.770e+00 1.783e+00
2 1 1.760e+00 3.493e+00 1.794e+00
3 1 5.270e+00 3.365e+00 1.628e+00
11 1 5.275e+00 1.700e+00 3.490e+00
4 1 3.333e+00 5.255e+00 1.648e+00
13 1 1.698e+00 5.258e+00 3.514e+00
16 1 5.341e+00 5.342e+00 2.550e+00
5 1 1.765e+00 7.055e+00 1.799e+00
6 1 5.262e+00 7.326e+00 1.643e+00
8 1 1.746e+00 1.058e+01 1.799e+00
7 1 3.470e+00 8.807e+00 1.793e+00
26 1 3.489e+00 1.056e+01 3.508e+00
9 1 5.275e+00 1.057e+01 1.720e+00
10 1 1.783e+00 1.789e+00 3.538e+00
12 1 3.482e+00 1.717e+00 5.276e+00
14 1 1.713e+00 3.479e+00 5.292e+00
17 1 5.301e+00 3.190e+00 5.413e+00
18 1 3.209e+00 5.281e+00 5.417e+00
15 1 3.647e+00 3.631e+00 3.567e+00
109 1 5.238e+00 5.242e+00 4.648e+00
19 1 1.771e+00 8.790e+00 3.534e+00
20 1 1.707e+00 7.075e+00 5.268e+00
21 1 3.626e+00 6.922e+00 3.578e+00
23 1 5.288e+00 7.271e+00 5.458e+00
24 1 3.503e+00 8.832e+00 5.296e+00
25 1 1.715e+00 1.055e+01 5.283e+00
22 1 5.267e+00 8.853e+00 3.545e+00
27 1 5.270e+00 1.056e+01 5.327e+00
28 1 1.731e+00 1.749e+00 7.070e+00
33 1 3.505e+00 3.500e+00 7.020e+00
30 1 3.514e+00 1.748e+00 8.785e+00
32 1 1.773e+00 3.506e+00 8.800e+00
29 1 5.289e+00 1.684e+00 7.163e+00
31 1 1.688e+00 5.263e+00 7.155e+00
34 1 5.271e+00 5.272e+00 7.102e+00
39 1 3.496e+00 7.068e+00 7.050e+00
38 1 1.761e+00 7.059e+00 8.791e+00
42 1 3.512e+00 8.795e+00 8.791e+00
37 1 1.740e+00 8.811e+00 7.050e+00
44 1 3.480e+00 1.055e+01 7.041e+00
43 1 1.771e+00 1.056e+01 8.782e+00
40 1 5.276e+00 8.849e+00 7.119e+00
46 1 1.727e+00 1.729e+00 1.056e+01
49 1 3.486e+00 3.461e+00 1.055e+01
35 1 5.280e+00 3.490e+00 8.840e+00
47 1 5.282e+00 1.714e+00 1.055e+01
36 1 3.491e+00 5.285e+00 8.840e+00
48 1 1.736e+00 5.298e+00 1.055e+01
50 1 5.284e+00 5.299e+00 1.059e+01
52 1 3.478e+00 7.078e+00 1.056e+01
41 1 5.272e+00 7.066e+00 8.825e+00
51 1 1.719e+00 8.834e+00 1.058e+01
54 1 3.502e+00 1.056e+01 1.060e+01
45 1 5.297e+00 1.055e+01 8.802e+00
53 1 5.290e+00 8.871e+00 1.050e+01
55 1 7.050e+00 1.763e+00 1.790e+00
56 1 1.057e+01 1.754e+00 1.804e+00
57 1 8.814e+00 3.486e+00 1.790e+00
71 1 1.056e+01 3.492e+00 3.513e+00
58 1 7.299e+00 5.254e+00 1.607e+00
59 1 1.056e+01 5.275e+00 1.708e+00
60 1 8.811e+00 7.073e+00 1.804e+00
77 1 1.056e+01 7.044e+00 3.512e+00
61 1 7.059e+00 8.814e+00 1.805e+00
79 1 7.058e+00 1.054e+01 3.508e+00
62 1 1.057e+01 8.831e+00 1.816e+00
63 1 8.821e+00 1.058e+01 1.810e+00
81 1 1.057e+01 1.058e+01 3.510e+00
64 1 8.772e+00 1.800e+00 3.539e+00
65 1 7.095e+00 1.711e+00 5.267e+00
66 1 1.054e+01 1.719e+00 5.293e+00
69 1 8.830e+00 3.505e+00 5.316e+00
67 1 6.911e+00 3.629e+00 3.572e+00
70 1 7.270e+00 5.285e+00 5.455e+00
68 1 8.838e+00 5.249e+00 3.536e+00
72 1 1.056e+01 5.282e+00 5.321e+00
73 1 6.942e+00 6.932e+00 3.578e+00
74 1 8.781e+00 8.779e+00 3.527e+00
75 1 8.834e+00 7.062e+00 5.281e+00
76 1 7.072e+00 8.833e+00 5.300e+00
80 1 8.833e+00 1.055e+01 5.268e+00
78 1 1.055e+01 8.836e+00 5.268e+00
85 1 7.055e+00 3.500e+00 7.047e+00
83 1 7.062e+00 1.742e+00 8.797e+00
82 1 8.809e+00 1.747e+00 7.053e+00
89 1 1.055e+01 3.488e+00 7.059e+00
84 1 1.055e+01 1.776e+00 8.793e+00
86 1 8.858e+00 5.273e+00 7.129e+00
87 1 8.808e+00 3.522e+00 8.794e+00
91 1 7.052e+00 7.048e+00 7.073e+00
95 1 1.055e+01 7.053e+00 7.044e+00
92 1 8.813e+00 8.800e+00 7.040e+00
96 1 1.056e+01 8.792e+00 8.791e+00
97 1 7.071e+00 1.055e+01 7.031e+00
98 1 8.771e+00 1.055e+01 8.799e+00
99 1 1.055e+01 1.056e+01 7.053e+00
101 1 7.081e+00 3.468e+00 1.055e+01
100 1 8.840e+00 1.725e+00 1.057e+01
103 1 1.058e+01 3.497e+00 1.059e+01
88 1 7.066e+00 5.285e+00 8.827e+00
90 1 1.057e+01 5.304e+00 8.800e+00
102 1 8.880e+00 5.292e+00 1.051e+01
104 1 7.079e+00 7.082e+00 1.058e+01
94 1 7.060e+00 8.797e+00 8.802e+00
93 1 8.803e+00 7.055e+00 8.806e+00
106 1 1.057e+01 7.086e+00 1.061e+01
107 1 7.067e+00 1.057e+01 1.061e+01
105 1 8.844e+00 8.836e+00 1.060e+01
108 1 1.057e+01 1.058e+01 1.054e+01
ITEM: TIMESTEP
5000
ITEM: NUMBER OF ATOMS
109
ITEM: BOX BOUNDS pp pp pp
8.8000000000000000e-01 1.1440000000000000e+01
8.8000000000000000e-01 1.1440000000000000e+01
8.8000000000000000e-01 1.1440000000000000e+01
ITEM: ATOMS id type x y z
1 1 3.469e+00 1.724e+00 1.790e+00
2 1 1.723e+00 3.481e+00 1.761e+00
10 1 1.743e+00 1.750e+00 3.511e+00
3 1 5.266e+00 3.266e+00 1.658e+00
4 1 3.317e+00 5.262e+00 1.662e+00
16 1 5.343e+00 5.287e+00 2.514e+00
5 1 1.746e+00 7.064e+00 1.787e+00
6 1 5.257e+00 7.300e+00 1.623e+00
8 1 1.751e+00 1.057e+01 1.754e+00
7 1 3.469e+00 8.826e+00 1.796e+00
9 1 5.284e+00 1.055e+01 1.751e+00
12 1 3.496e+00 1.755e+00 5.280e+00
14 1 1.760e+00 3.469e+00 5.266e+00
11 1 5.279e+00 1.699e+00 3.574e+00
17 1 5.289e+00 3.278e+00 5.460e+00
13 1 1.713e+00 5.256e+00 3.549e+00
18 1 3.247e+00 5.273e+00 5.456e+00
15 1 3.600e+00 3.590e+00 3.530e+00
109 1 5.231e+00 5.256e+00 4.597e+00
19 1 1.755e+00 8.789e+00 3.539e+00
20 1 1.751e+00 7.069e+00 5.293e+00
21 1 3.631e+00 6.912e+00 3.521e+00
23 1 5.289e+00 7.273e+00 5.417e+00
24 1 3.496e+00 8.801e+00 5.276e+00
25 1 1.787e+00 1.055e+01 5.311e+00
26 1 3.548e+00 1.055e+01 3.544e+00
22 1 5.277e+00 8.819e+00 3.557e+00
27 1 5.287e+00 1.057e+01 5.376e+00
28 1 1.771e+00 1.778e+00 7.047e+00
33 1 3.485e+00 3.490e+00 7.068e+00
29 1 5.281e+00 1.676e+00 7.121e+00
31 1 1.676e+00 5.294e+00 7.133e+00
34 1 5.274e+00 5.286e+00 7.031e+00
39 1 3.506e+00 7.062e+00 7.049e+00
37 1 1.766e+00 8.794e+00 7.074e+00
41 1 5.280e+00 7.053e+00 8.795e+00
44 1 3.498e+00 1.058e+01 7.032e+00
40 1 5.282e+00 8.877e+00 7.124e+00
30 1 3.507e+00 1.737e+00 8.822e+00
32 1 1.746e+00 3.507e+00 8.836e+00
46 1 1.748e+00 1.749e+00 1.054e+01
35 1 5.277e+00 3.508e+00 8.813e+00
47 1 5.280e+00 1.686e+00 1.052e+01
36 1 3.503e+00 5.279e+00 8.810e+00
48 1 1.696e+00 5.290e+00 1.052e+01
49 1 3.525e+00 3.530e+00 1.058e+01
50 1 5.288e+00 5.295e+00 1.056e+01
38 1 1.754e+00 7.079e+00 8.813e+00
52 1 3.519e+00 7.062e+00 1.055e+01
42 1 3.506e+00 8.817e+00 8.807e+00
43 1 1.745e+00 1.057e+01 8.811e+00
51 1 1.758e+00 8.827e+00 1.056e+01
54 1 3.491e+00 1.055e+01 1.059e+01
45 1 5.289e+00 1.056e+01 8.820e+00
53 1 5.276e+00 8.876e+00 1.049e+01
55 1 7.069e+00 1.733e+00 1.795e+00
56 1 1.057e+01 1.750e+00 1.748e+00
57 1 8.845e+00 3.465e+00 1.775e+00
64 1 8.809e+00 1.757e+00 3.520e+00
58 1 7.329e+00 5.261e+00 1.631e+00
67 1 6.922e+00 3.618e+00 3.513e+00
59 1 1.055e+01 5.288e+00 1.741e+00
73 1 6.946e+00 6.944e+00 3.518e+00
60 1 8.832e+00 7.082e+00 1.790e+00
61 1 7.067e+00 8.820e+00 1.784e+00
62 1 1.057e+01 8.823e+00 1.757e+00
63 1 8.806e+00 1.057e+01 1.756e+00
65 1 7.068e+00 1.741e+00 5.284e+00
69 1 8.786e+00 3.498e+00 5.276e+00
66 1 1.056e+01 1.798e+00 5.296e+00
70 1 7.250e+00 5.276e+00 5.421e+00
71 1 1.056e+01 3.551e+00 3.551e+00
68 1 8.837e+00 5.277e+00 3.555e+00
72 1 1.057e+01 5.282e+00 5.381e+00
74 1 8.796e+00 8.784e+00 3.545e+00
77 1 1.057e+01 7.016e+00 3.551e+00
75 1 8.811e+00 7.061e+00 5.296e+00
78 1 1.055e+01 8.795e+00 5.295e+00
79 1 7.026e+00 1.055e+01 3.557e+00
76 1 7.072e+00 8.825e+00 5.304e+00
80 1 8.795e+00 1.055e+01 5.307e+00
81 1 1.055e+01 1.054e+01 3.572e+00
85 1 7.054e+00 3.498e+00 7.073e+00
82 1 8.780e+00 1.771e+00 7.056e+00
89 1 1.056e+01 3.509e+00 7.035e+00
88 1 7.052e+00 5.274e+00 8.790e+00
86 1 8.873e+00 5.296e+00 7.114e+00
91 1 7.041e+00 7.055e+00 7.052e+00
92 1 8.798e+00 8.792e+00 7.087e+00
95 1 1.056e+01 7.069e+00 7.049e+00
97 1 7.056e+00 1.057e+01 7.060e+00
99 1 1.056e+01 1.056e+01 7.061e+00
83 1 7.064e+00 1.760e+00 8.836e+00
84 1 1.056e+01 1.756e+00 8.814e+00
100 1 8.809e+00 1.755e+00 1.055e+01
103 1 1.056e+01 3.499e+00 1.058e+01
101 1 7.055e+00 3.522e+00 1.057e+01
87 1 8.817e+00 3.521e+00 8.824e+00
90 1 1.056e+01 5.296e+00 8.822e+00
102 1 8.879e+00 5.301e+00 1.049e+01
104 1 7.045e+00 7.052e+00 1.055e+01
94 1 7.065e+00 8.785e+00 8.806e+00
93 1 8.795e+00 7.067e+00 8.815e+00
106 1 1.057e+01 7.088e+00 1.058e+01
107 1 7.083e+00 1.055e+01 1.058e+01
96 1 1.055e+01 8.824e+00 8.821e+00
98 1 8.821e+00 1.057e+01 8.810e+00
105 1 8.810e+00 8.806e+00 1.055e+01
108 1 1.055e+01 1.055e+01 1.060e+01
ITEM: TIMESTEP
6000
ITEM: NUMBER OF ATOMS
109
ITEM: BOX BOUNDS pp pp pp
8.8000000000000000e-01 1.1440000000000000e+01
8.8000000000000000e-01 1.1440000000000000e+01
8.8000000000000000e-01 1.1440000000000000e+01
ITEM: ATOMS id type x y z
1 1 3.460e+00 1.717e+00 1.775e+00
2 1 1.733e+00 3.473e+00 1.790e+00
3 1 5.260e+00 3.219e+00 1.629e+00
4 1 3.246e+00 5.288e+00 1.642e+00
16 1 5.303e+00 5.254e+00 2.409e+00
5 1 1.714e+00 7.099e+00 1.770e+00
6 1 5.273e+00 7.298e+00 1.638e+00
8 1 1.745e+00 1.057e+01 1.813e+00
7 1 3.455e+00 8.849e+00 1.787e+00
9 1 5.287e+00 1.057e+01 1.758e+00
26 1 3.572e+00 1.055e+01 3.520e+00
10 1 1.765e+00 1.757e+00 3.557e+00
12 1 3.481e+00 1.717e+00 5.307e+00
14 1 1.721e+00 3.477e+00 5.312e+00
11 1 5.292e+00 1.784e+00 3.534e+00
17 1 5.275e+00 3.275e+00 5.434e+00
13 1 1.789e+00 5.295e+00 3.539e+00
18 1 3.266e+00 5.280e+00 5.442e+00
15 1 3.584e+00 3.579e+00 3.549e+00
109 1 5.262e+00 5.285e+00 4.512e+00
20 1 1.740e+00 7.096e+00 5.328e+00
21 1 3.566e+00 7.003e+00 3.535e+00
23 1 5.282e+00 7.289e+00 5.416e+00
22 1 5.297e+00 8.781e+00 3.543e+00
19 1 1.754e+00 8.810e+00 3.540e+00
24 1 3.479e+00 8.839e+00 5.300e+00
25 1 1.758e+00 1.057e+01 5.264e+00
27 1 5.280e+00 1.055e+01 5.282e+00
28 1 1.727e+00 1.733e+00 7.056e+00
33 1 3.487e+00 3.504e+00 7.089e+00
29 1 5.255e+00 1.710e+00 7.134e+00
35 1 5.283e+00 3.507e+00 8.790e+00
31 1 1.706e+00 5.252e+00 7.143e+00
36 1 3.509e+00 5.271e+00 8.798e+00
34 1 5.269e+00 5.261e+00 7.014e+00
39 1 3.515e+00 7.059e+00 7.082e+00
37 1 1.730e+00 8.817e+00 7.058e+00
44 1 3.487e+00 1.054e+01 7.062e+00
40 1 5.268e+00 8.836e+00 7.127e+00
30 1 3.482e+00 1.735e+00 8.810e+00
32 1 1.730e+00 3.473e+00 8.827e+00
46 1 1.751e+00 1.758e+00 1.059e+01
49 1 3.490e+00 3.492e+00 1.053e+01
47 1 5.266e+00 1.669e+00 1.049e+01
48 1 1.685e+00 5.275e+00 1.051e+01
50 1 5.274e+00 5.281e+00 1.056e+01
38 1 1.733e+00 7.044e+00 8.826e+00
52 1 3.499e+00 7.080e+00 1.056e+01
41 1 5.276e+00 7.039e+00 8.804e+00
42 1 3.470e+00 8.820e+00 8.839e+00
43 1 1.761e+00 1.056e+01 8.834e+00
51 1 1.727e+00 8.831e+00 1.055e+01
54 1 3.491e+00 1.055e+01 1.060e+01
45 1 5.264e+00 1.056e+01 8.817e+00
53 1 5.278e+00 8.863e+00 1.049e+01
55 1 7.084e+00 1.712e+00 1.774e+00
56 1 1.057e+01 1.753e+00 1.826e+00
57 1 8.845e+00 3.459e+00 1.794e+00
58 1 7.348e+00 5.275e+00 1.634e+00
59 1 1.057e+01 5.295e+00 1.755e+00
71 1 1.056e+01 3.581e+00 3.514e+00
73 1 6.964e+00 6.968e+00 3.518e+00
60 1 8.860e+00 7.109e+00 1.768e+00
61 1 7.092e+00 8.859e+00 1.784e+00
79 1 7.003e+00 1.057e+01 3.511e+00
62 1 1.056e+01 8.845e+00 1.791e+00
63 1 8.842e+00 1.058e+01 1.787e+00
65 1 7.090e+00 1.730e+00 5.325e+00
64 1 8.802e+00 1.758e+00 3.548e+00
69 1 8.846e+00 3.488e+00 5.305e+00
66 1 1.056e+01 1.766e+00 5.262e+00
67 1 7.004e+00 3.556e+00 3.539e+00
70 1 7.272e+00 5.293e+00 5.413e+00
68 1 8.789e+00 5.294e+00 3.551e+00
72 1 1.057e+01 5.298e+00 5.285e+00
77 1 1.057e+01 7.003e+00 3.526e+00
75 1 8.828e+00 7.087e+00 5.300e+00
74 1 8.799e+00 8.803e+00 3.528e+00
76 1 7.092e+00 8.830e+00 5.318e+00
78 1 1.056e+01 8.803e+00 5.266e+00
80 1 8.806e+00 1.056e+01 5.270e+00
81 1 1.055e+01 1.055e+01 3.525e+00
85 1 7.063e+00 3.498e+00 7.082e+00
82 1 8.837e+00 1.722e+00 7.052e+00
89 1 1.055e+01 3.496e+00 7.074e+00
86 1 8.832e+00 5.250e+00 7.127e+00
91 1 7.067e+00 7.070e+00 7.087e+00
95 1 1.054e+01 7.051e+00 7.090e+00
97 1 7.067e+00 1.055e+01 7.096e+00
92 1 8.832e+00 8.824e+00 7.048e+00
99 1 1.057e+01 1.056e+01 7.069e+00
83 1 7.048e+00 1.741e+00 8.818e+00
101 1 7.061e+00 3.493e+00 1.056e+01
84 1 1.055e+01 1.752e+00 8.837e+00
100 1 8.812e+00 1.738e+00 1.057e+01
103 1 1.056e+01 3.489e+00 1.061e+01
87 1 8.804e+00 3.471e+00 8.840e+00
88 1 7.045e+00 5.278e+00 8.806e+00
90 1 1.056e+01 5.270e+00 8.817e+00
102 1 8.869e+00 5.266e+00 1.049e+01
104 1 7.077e+00 7.074e+00 1.058e+01
93 1 8.829e+00 7.060e+00 8.844e+00
106 1 1.056e+01 7.079e+00 1.057e+01
94 1 7.072e+00 8.833e+00 8.854e+00
107 1 7.058e+00 1.056e+01 1.057e+01
96 1 1.056e+01 8.823e+00 8.805e+00
98 1 8.812e+00 1.056e+01 8.823e+00
105 1 8.839e+00 8.846e+00 1.054e+01
108 1 1.058e+01 1.058e+01 1.058e+01
ITEM: TIMESTEP
7000
ITEM: NUMBER OF ATOMS
109
ITEM: BOX BOUNDS pp pp pp
8.8000000000000000e-01 1.1440000000000000e+01
8.8000000000000000e-01 1.1440000000000000e+01
8.8000000000000000e-01 1.1440000000000000e+01
ITEM: ATOMS id type x y z
1 1 3.452e+00 1.735e+00 1.773e+00
2 1 1.726e+00 3.449e+00 1.763e+00
3 1 5.279e+00 3.224e+00 1.684e+00
4 1 3.219e+00 5.271e+00 1.680e+00
16 1 5.272e+00 5.287e+00 2.447e+00
5 1 1.744e+00 7.084e+00 1.786e+00
6 1 5.266e+00 7.313e+00 1.624e+00
8 1 1.754e+00 1.058e+01 1.794e+00
7 1 3.457e+00 8.837e+00 1.756e+00
9 1 5.285e+00 1.054e+01 1.769e+00
10 1 1.734e+00 1.736e+00 3.535e+00
12 1 3.469e+00 1.727e+00 5.321e+00
14 1 1.726e+00 3.477e+00 5.316e+00
11 1 5.277e+00 1.727e+00 3.546e+00
17 1 5.248e+00 3.250e+00 5.430e+00
13 1 1.724e+00 5.282e+00 3.556e+00
18 1 3.258e+00 5.261e+00 5.421e+00
15 1 3.538e+00 3.525e+00 3.535e+00
109 1 5.291e+00 5.280e+00 4.539e+00
20 1 1.727e+00 7.068e+00 5.331e+00
21 1 3.556e+00 7.003e+00 3.552e+00
23 1 5.247e+00 7.311e+00 5.417e+00
19 1 1.764e+00 8.803e+00 3.545e+00
24 1 3.466e+00 8.869e+00 5.301e+00
25 1 1.733e+00 1.057e+01 5.267e+00
26 1 3.555e+00 1.057e+01 3.526e+00
22 1 5.279e+00 8.821e+00 3.552e+00
27 1 5.286e+00 1.057e+01 5.311e+00
28 1 1.772e+00 1.761e+00 7.065e+00
33 1 3.512e+00 3.497e+00 7.137e+00
29 1 5.301e+00 1.702e+00 7.151e+00
31 1 1.700e+00 5.293e+00 7.116e+00
36 1 3.514e+00 5.287e+00 8.787e+00
35 1 5.282e+00 3.533e+00 8.800e+00
34 1 5.299e+00 5.297e+00 7.054e+00
39 1 3.470e+00 7.044e+00 7.112e+00
37 1 1.738e+00 8.831e+00 7.044e+00
44 1 3.519e+00 1.055e+01 7.077e+00
40 1 5.289e+00 8.871e+00 7.127e+00
45 1 5.304e+00 1.055e+01 8.799e+00