ITEM: TIMESTEP
0
ITEM: NUMBER OF ATOMS
109
ITEM: BOX BOUNDS pp pp pp
8.8000000000000000e-01 1.1440000000000000e+01
8.8000000000000000e-01 1.1440000000000000e+01
8.8000000000000000e-01 1.1440000000000000e+01
ITEM: ATOMS id type x y z
1 1 3.520e+00 1.760e+00 1.760e+00
2 1 1.760e+00 3.520e+00 1.760e+00
3 1 5.280e+00 3.520e+00 1.760e+00
4 1 3.520e+00 5.280e+00 1.760e+00
5 1 1.760e+00 7.040e+00 1.760e+00
6 1 5.280e+00 7.040e+00 1.760e+00
8 1 1.760e+00 1.056e+01 1.760e+00
7 1 3.520e+00 8.800e+00 1.760e+00
9 1 5.280e+00 1.056e+01 1.760e+00
10 1 1.760e+00 1.760e+00 3.520e+00
11 1 5.280e+00 1.760e+00 3.520e+00
12 1 3.520e+00 1.760e+00 5.280e+00
13 1 1.760e+00 5.280e+00 3.520e+00
14 1 1.760e+00 3.520e+00 5.280e+00
15 1 3.520e+00 3.520e+00 3.520e+00
16 1 5.280e+00 5.280e+00 3.520e+00
17 1 5.280e+00 3.520e+00 5.280e+00
18 1 3.520e+00 5.280e+00 5.280e+00
109 1 5.280e+00 5.280e+00 5.280e+00
20 1 1.760e+00 7.040e+00 5.280e+00
21 1 3.520e+00 7.040e+00 3.520e+00
23 1 5.280e+00 7.040e+00 5.280e+00
19 1 1.760e+00 8.800e+00 3.520e+00
25 1 1.760e+00 1.056e+01 5.280e+00
22 1 5.280e+00 8.800e+00 3.520e+00
24 1 3.520e+00 8.800e+00 5.280e+00
26 1 3.520e+00 1.056e+01 3.520e+00
27 1 5.280e+00 1.056e+01 5.280e+00
28 1 1.760e+00 1.760e+00 7.040e+00
29 1 5.280e+00 1.760e+00 7.040e+00
31 1 1.760e+00 5.280e+00 7.040e+00
33 1 3.520e+00 3.520e+00 7.040e+00
34 1 5.280e+00 5.280e+00 7.040e+00
39 1 3.520e+00 7.040e+00 7.040e+00
37 1 1.760e+00 8.800e+00 7.040e+00
40 1 5.280e+00 8.800e+00 7.040e+00
44 1 3.520e+00 1.056e+01 7.040e+00
46 1 1.760e+00 1.760e+00 1.056e+01
30 1 3.520e+00 1.760e+00 8.800e+00
47 1 5.280e+00 1.760e+00 1.056e+01
32 1 1.760e+00 3.520e+00 8.800e+00
48 1 1.760e+00 5.280e+00 1.056e+01
35 1 5.280e+00 3.520e+00 8.800e+00
36 1 3.520e+00 5.280e+00 8.800e+00
49 1 3.520e+00 3.520e+00 1.056e+01
50 1 5.280e+00 5.280e+00 1.056e+01
38 1 1.760e+00 7.040e+00 8.800e+00
41 1 5.280e+00 7.040e+00 8.800e+00
52 1 3.520e+00 7.040e+00 1.056e+01
43 1 1.760e+00 1.056e+01 8.800e+00
51 1 1.760e+00 8.800e+00 1.056e+01
42 1 3.520e+00 8.800e+00 8.800e+00
45 1 5.280e+00 1.056e+01 8.800e+00
53 1 5.280e+00 8.800e+00 1.056e+01
54 1 3.520e+00 1.056e+01 1.056e+01
55 1 7.040e+00 1.760e+00 1.760e+00
56 1 1.056e+01 1.760e+00 1.760e+00
58 1 7.040e+00 5.280e+00 1.760e+00
57 1 8.800e+00 3.520e+00 1.760e+00
59 1 1.056e+01 5.280e+00 1.760e+00
60 1 8.800e+00 7.040e+00 1.760e+00
61 1 7.040e+00 8.800e+00 1.760e+00
62 1 1.056e+01 8.800e+00 1.760e+00
63 1 8.800e+00 1.056e+01 1.760e+00
65 1 7.040e+00 1.760e+00 5.280e+00
64 1 8.800e+00 1.760e+00 3.520e+00
66 1 1.056e+01 1.760e+00 5.280e+00
67 1 7.040e+00 3.520e+00 3.520e+00
70 1 7.040e+00 5.280e+00 5.280e+00
68 1 8.800e+00 5.280e+00 3.520e+00
69 1 8.800e+00 3.520e+00 5.280e+00
71 1 1.056e+01 3.520e+00 3.520e+00
72 1 1.056e+01 5.280e+00 5.280e+00
73 1 7.040e+00 7.040e+00 3.520e+00
75 1 8.800e+00 7.040e+00 5.280e+00
77 1 1.056e+01 7.040e+00 3.520e+00
76 1 7.040e+00 8.800e+00 5.280e+00
79 1 7.040e+00 1.056e+01 3.520e+00
74 1 8.800e+00 8.800e+00 3.520e+00
78 1 1.056e+01 8.800e+00 5.280e+00
80 1 8.800e+00 1.056e+01 5.280e+00
81 1 1.056e+01 1.056e+01 3.520e+00
82 1 8.800e+00 1.760e+00 7.040e+00
85 1 7.040e+00 3.520e+00 7.040e+00
86 1 8.800e+00 5.280e+00 7.040e+00
89 1 1.056e+01 3.520e+00 7.040e+00
91 1 7.040e+00 7.040e+00 7.040e+00
95 1 1.056e+01 7.040e+00 7.040e+00
97 1 7.040e+00 1.056e+01 7.040e+00
92 1 8.800e+00 8.800e+00 7.040e+00
99 1 1.056e+01 1.056e+01 7.040e+00
83 1 7.040e+00 1.760e+00 8.800e+00
84 1 1.056e+01 1.760e+00 8.800e+00
100 1 8.800e+00 1.760e+00 1.056e+01
88 1 7.040e+00 5.280e+00 8.800e+00
101 1 7.040e+00 3.520e+00 1.056e+01
87 1 8.800e+00 3.520e+00 8.800e+00
90 1 1.056e+01 5.280e+00 8.800e+00
102 1 8.800e+00 5.280e+00 1.056e+01
103 1 1.056e+01 3.520e+00 1.056e+01
104 1 7.040e+00 7.040e+00 1.056e+01
93 1 8.800e+00 7.040e+00 8.800e+00
106 1 1.056e+01 7.040e+00 1.056e+01
94 1 7.040e+00 8.800e+00 8.800e+00
107 1 7.040e+00 1.056e+01 1.056e+01
96 1 1.056e+01 8.800e+00 8.800e+00
98 1 8.800e+00 1.056e+01 8.800e+00
105 1 8.800e+00 8.800e+00 1.056e+01
108 1 1.056e+01 1.056e+01 1.056e+01
ITEM: TIMESTEP
52
ITEM: NUMBER OF ATOMS
109
ITEM: BOX BOUNDS pp pp pp
8.8000000000000000e-01 1.1440000000000000e+01
8.8000000000000000e-01 1.1440000000000000e+01
8.8000000000000000e-01 1.1440000000000000e+01
ITEM: ATOMS id type x y z
1 1 3.500e+00 1.754e+00 1.754e+00
2 1 1.754e+00 3.500e+00 1.754e+00
3 1 5.280e+00 3.444e+00 1.687e+00
4 1 3.444e+00 5.280e+00 1.687e+00
5 1 1.754e+00 7.060e+00 1.754e+00
6 1 5.280e+00 7.116e+00 1.687e+00
8 1 1.750e+00 1.056e+01 1.750e+00
7 1 3.500e+00 8.806e+00 1.754e+00
9 1 5.280e+00 1.056e+01 1.720e+00
10 1 1.754e+00 1.754e+00 3.500e+00
11 1 5.280e+00 1.687e+00 3.444e+00
12 1 3.444e+00 1.687e+00 5.280e+00
13 1 1.687e+00 5.280e+00 3.444e+00
14 1 1.687e+00 3.444e+00 5.280e+00
15 1 3.547e+00 3.547e+00 3.547e+00
16 1 5.280e+00 5.280e+00 3.112e+00
17 1 5.280e+00 3.112e+00 5.280e+00
18 1 3.112e+00 5.280e+00 5.280e+00
109 1 5.280e+00 5.280e+00 5.280e+00
20 1 1.687e+00 7.116e+00 5.280e+00
21 1 3.547e+00 7.013e+00 3.547e+00
23 1 5.280e+00 7.448e+00 5.280e+00
19 1 1.754e+00 8.806e+00 3.500e+00
25 1 1.720e+00 1.056e+01 5.280e+00
22 1 5.280e+00 8.873e+00 3.444e+00
24 1 3.444e+00 8.873e+00 5.280e+00
26 1 3.498e+00 1.056e+01 3.498e+00
27 1 5.280e+00 1.056e+01 5.280e+00
28 1 1.754e+00 1.754e+00 7.060e+00
29 1 5.280e+00 1.687e+00 7.116e+00
31 1 1.687e+00 5.280e+00 7.116e+00
33 1 3.547e+00 3.547e+00 7.013e+00
34 1 5.280e+00 5.280e+00 7.448e+00
39 1 3.547e+00 7.013e+00 7.013e+00
37 1 1.754e+00 8.806e+00 7.060e+00
40 1 5.280e+00 8.873e+00 7.116e+00
44 1 3.498e+00 1.056e+01 7.062e+00
46 1 1.750e+00 1.750e+00 1.056e+01
30 1 3.500e+00 1.754e+00 8.806e+00
47 1 5.280e+00 1.720e+00 1.056e+01
32 1 1.754e+00 3.500e+00 8.806e+00
48 1 1.720e+00 5.280e+00 1.056e+01
35 1 5.280e+00 3.444e+00 8.873e+00
36 1 3.444e+00 5.280e+00 8.873e+00
49 1 3.498e+00 3.498e+00 1.056e+01
50 1 5.280e+00 5.280e+00 1.056e+01
38 1 1.754e+00 7.060e+00 8.806e+00
41 1 5.280e+00 7.116e+00 8.873e+00
52 1 3.498e+00 7.062e+00 1.056e+01
43 1 1.750e+00 1.056e+01 8.810e+00
51 1 1.750e+00 8.810e+00 1.056e+01
42 1 3.500e+00 8.806e+00 8.806e+00
45 1 5.280e+00 1.056e+01 8.840e+00
53 1 5.280e+00 8.840e+00 1.056e+01
54 1 3.498e+00 1.056e+01 1.056e+01
55 1 7.060e+00 1.754e+00 1.754e+00
56 1 1.056e+01 1.750e+00 1.750e+00
58 1 7.116e+00 5.280e+00 1.687e+00
57 1 8.806e+00 3.500e+00 1.754e+00
59 1 1.056e+01 5.280e+00 1.720e+00
60 1 8.806e+00 7.060e+00 1.754e+00
61 1 7.060e+00 8.806e+00 1.754e+00
62 1 1.056e+01 8.810e+00 1.750e+00
63 1 8.810e+00 1.056e+01 1.750e+00
65 1 7.116e+00 1.687e+00 5.280e+00
64 1 8.806e+00 1.754e+00 3.500e+00
66 1 1.056e+01 1.720e+00 5.280e+00
67 1 7.013e+00 3.547e+00 3.547e+00
70 1 7.448e+00 5.280e+00 5.280e+00
68 1 8.873e+00 5.280e+00 3.444e+00
69 1 8.873e+00 3.444e+00 5.280e+00
71 1 1.056e+01 3.498e+00 3.498e+00
72 1 1.056e+01 5.280e+00 5.280e+00
73 1 7.013e+00 7.013e+00 3.547e+00
75 1 8.873e+00 7.116e+00 5.280e+00
77 1 1.056e+01 7.062e+00 3.498e+00
76 1 7.116e+00 8.873e+00 5.280e+00
79 1 7.062e+00 1.056e+01 3.498e+00
74 1 8.806e+00 8.806e+00 3.500e+00
78 1 1.056e+01 8.840e+00 5.280e+00
80 1 8.840e+00 1.056e+01 5.280e+00
81 1 1.056e+01 1.056e+01 3.498e+00
82 1 8.806e+00 1.754e+00 7.060e+00
85 1 7.013e+00 3.547e+00 7.013e+00
86 1 8.873e+00 5.280e+00 7.116e+00
89 1 1.056e+01 3.498e+00 7.062e+00
91 1 7.013e+00 7.013e+00 7.013e+00
95 1 1.056e+01 7.062e+00 7.062e+00
97 1 7.062e+00 1.056e+01 7.062e+00
92 1 8.806e+00 8.806e+00 7.060e+00
99 1 1.056e+01 1.056e+01 7.062e+00
83 1 7.060e+00 1.754e+00 8.806e+00
84 1 1.056e+01 1.750e+00 8.810e+00
100 1 8.810e+00 1.750e+00 1.056e+01
88 1 7.116e+00 5.280e+00 8.873e+00
101 1 7.062e+00 3.498e+00 1.056e+01
87 1 8.806e+00 3.500e+00 8.806e+00
90 1 1.056e+01 5.280e+00 8.840e+00
102 1 8.840e+00 5.280e+00 1.056e+01
103 1 1.056e+01 3.498e+00 1.056e+01
104 1 7.062e+00 7.062e+00 1.056e+01
93 1 8.806e+00 7.060e+00 8.806e+00
106 1 1.056e+01 7.062e+00 1.056e+01
94 1 7.060e+00 8.806e+00 8.806e+00
107 1 7.062e+00 1.056e+01 1.056e+01
96 1 1.056e+01 8.810e+00 8.810e+00
98 1 8.810e+00 1.056e+01 8.810e+00
105 1 8.810e+00 8.810e+00 1.056e+01
108 1 1.056e+01 1.056e+01 1.056e+01
