ITEM: TIMESTEP
0
ITEM: NUMBER OF ATOMS
109
ITEM: BOX BOUNDS pp pp pp
8.8000000000000000e-01 1.1440000000000000e+01
8.8000000000000000e-01 1.1440000000000000e+01
8.8000000000000000e-01 1.1440000000000000e+01
ITEM: ATOMS id type x y z
1 1 3.520e+00 1.760e+00 1.760e+00
2 1 1.760e+00 3.520e+00 1.760e+00
3 1 5.280e+00 3.520e+00 1.760e+00
4 1 3.520e+00 5.280e+00 1.760e+00
5 1 1.760e+00 7.040e+00 1.760e+00
6 1 5.280e+00 7.040e+00 1.760e+00
8 1 1.760e+00 1.056e+01 1.760e+00
7 1 3.520e+00 8.800e+00 1.760e+00
9 1 5.280e+00 1.056e+01 1.760e+00
10 1 1.760e+00 1.760e+00 3.520e+00
11 1 5.280e+00 1.760e+00 3.520e+00
12 1 3.520e+00 1.760e+00 5.280e+00
13 1 1.760e+00 5.280e+00 3.520e+00
14 1 1.760e+00 3.520e+00 5.280e+00
15 1 3.520e+00 3.520e+00 3.520e+00
16 1 5.280e+00 5.280e+00 3.520e+00
17 1 5.280e+00 3.520e+00 5.280e+00
18 1 3.520e+00 5.280e+00 5.280e+00
109 1 5.280e+00 5.280e+00 5.280e+00
20 1 1.760e+00 7.040e+00 5.280e+00
21 1 3.520e+00 7.040e+00 3.520e+00
23 1 5.280e+00 7.040e+00 5.280e+00
19 1 1.760e+00 8.800e+00 3.520e+00
25 1 1.760e+00 1.056e+01 5.280e+00
22 1 5.280e+00 8.800e+00 3.520e+00
24 1 3.520e+00 8.800e+00 5.280e+00
26 1 3.520e+00 1.056e+01 3.520e+00
27 1 5.280e+00 1.056e+01 5.280e+00
28 1 1.760e+00 1.760e+00 7.040e+00
29 1 5.280e+00 1.760e+00 7.040e+00
31 1 1.760e+00 5.280e+00 7.040e+00
33 1 3.520e+00 3.520e+00 7.040e+00
34 1 5.280e+00 5.280e+00 7.040e+00
39 1 3.520e+00 7.040e+00 7.040e+00
37 1 1.760e+00 8.800e+00 7.040e+00
40 1 5.280e+00 8.800e+00 7.040e+00
44 1 3.520e+00 1.056e+01 7.040e+00
46 1 1.760e+00 1.760e+00 1.056e+01
30 1 3.520e+00 1.760e+00 8.800e+00
47 1 5.280e+00 1.760e+00 1.056e+01
32 1 1.760e+00 3.520e+00 8.800e+00
48 1 1.760e+00 5.280e+00 1.056e+01
35 1 5.280e+00 3.520e+00 8.800e+00
36 1 3.520e+00 5.280e+00 8.800e+00
49 1 3.520e+00 3.520e+00 1.056e+01
50 1 5.280e+00 5.280e+00 1.056e+01
38 1 1.760e+00 7.040e+00 8.800e+00
41 1 5.280e+00 7.040e+00 8.800e+00
52 1 3.520e+00 7.040e+00 1.056e+01
43 1 1.760e+00 1.056e+01 8.800e+00
51 1 1.760e+00 8.800e+00 1.056e+01
42 1 3.520e+00 8.800e+00 8.800e+00
45 1 5.280e+00 1.056e+01 8.800e+00
53 1 5.280e+00 8.800e+00 1.056e+01
54 1 3.520e+00 1.056e+01 1.056e+01
55 1 7.040e+00 1.760e+00 1.760e+00
56 1 1.056e+01 1.760e+00 1.760e+00
58 1 7.040e+00 5.280e+00 1.760e+00
57 1 8.800e+00 3.520e+00 1.760e+00
59 1 1.056e+01 5.280e+00 1.760e+00
60 1 8.800e+00 7.040e+00 1.760e+00
61 1 7.040e+00 8.800e+00 1.760e+00
62 1 1.056e+01 8.800e+00 1.760e+00
63 1 8.800e+00 1.056e+01 1.760e+00
65 1 7.040e+00 1.760e+00 5.280e+00
64 1 8.800e+00 1.760e+00 3.520e+00
66 1 1.056e+01 1.760e+00 5.280e+00
67 1 7.040e+00 3.520e+00 3.520e+00
70 1 7.040e+00 5.280e+00 5.280e+00
68 1 8.800e+00 5.280e+00 3.520e+00
69 1 8.800e+00 3.520e+00 5.280e+00
71 1 1.056e+01 3.520e+00 3.520e+00
72 1 1.056e+01 5.280e+00 5.280e+00
73 1 7.040e+00 7.040e+00 3.520e+00
75 1 8.800e+00 7.040e+00 5.280e+00
77 1 1.056e+01 7.040e+00 3.520e+00
76 1 7.040e+00 8.800e+00 5.280e+00
79 1 7.040e+00 1.056e+01 3.520e+00
74 1 8.800e+00 8.800e+00 3.520e+00
78 1 1.056e+01 8.800e+00 5.280e+00
80 1 8.800e+00 1.056e+01 5.280e+00
81 1 1.056e+01 1.056e+01 3.520e+00
82 1 8.800e+00 1.760e+00 7.040e+00
85 1 7.040e+00 3.520e+00 7.040e+00
86 1 8.800e+00 5.280e+00 7.040e+00
89 1 1.056e+01 3.520e+00 7.040e+00
91 1 7.040e+00 7.040e+00 7.040e+00
95 1 1.056e+01 7.040e+00 7.040e+00
97 1 7.040e+00 1.056e+01 7.040e+00
92 1 8.800e+00 8.800e+00 7.040e+00
99 1 1.056e+01 1.056e+01 7.040e+00
83 1 7.040e+00 1.760e+00 8.800e+00
84 1 1.056e+01 1.760e+00 8.800e+00
100 1 8.800e+00 1.760e+00 1.056e+01
88 1 7.040e+00 5.280e+00 8.800e+00
101 1 7.040e+00 3.520e+00 1.056e+01
87 1 8.800e+00 3.520e+00 8.800e+00
90 1 1.056e+01 5.280e+00 8.800e+00
102 1 8.800e+00 5.280e+00 1.056e+01
103 1 1.056e+01 3.520e+00 1.056e+01
104 1 7.040e+00 7.040e+00 1.056e+01
93 1 8.800e+00 7.040e+00 8.800e+00
106 1 1.056e+01 7.040e+00 1.056e+01
94 1 7.040e+00 8.800e+00 8.800e+00
107 1 7.040e+00 1.056e+01 1.056e+01
96 1 1.056e+01 8.800e+00 8.800e+00
98 1 8.800e+00 1.056e+01 8.800e+00
105 1 8.800e+00 8.800e+00 1.056e+01
108 1 1.056e+01 1.056e+01 1.056e+01
ITEM: TIMESTEP
1000
ITEM: NUMBER OF ATOMS
109
ITEM: BOX BOUNDS pp pp pp
8.8000000000000000e-01 1.1440000000000000e+01
8.8000000000000000e-01 1.1440000000000000e+01
8.8000000000000000e-01 1.1440000000000000e+01
ITEM: ATOMS id type x y z
1 1 3.487e+00 1.735e+00 1.775e+00
2 1 1.740e+00 3.489e+00 1.777e+00
3 1 5.281e+00 3.291e+00 1.619e+00
4 1 3.299e+00 5.284e+00 1.621e+00
13 1 1.746e+00 5.281e+00 3.520e+00
16 1 5.266e+00 5.249e+00 2.599e+00
5 1 1.733e+00 7.074e+00 1.776e+00
6 1 5.284e+00 7.237e+00 1.632e+00
8 1 1.747e+00 1.056e+01 1.775e+00
7 1 3.491e+00 8.812e+00 1.780e+00
9 1 5.280e+00 1.056e+01 1.755e+00
22 1 5.280e+00 8.810e+00 3.519e+00
26 1 3.524e+00 1.056e+01 3.514e+00
10 1 1.766e+00 1.764e+00 3.526e+00
12 1 3.485e+00 1.727e+00 5.289e+00
14 1 1.726e+00 3.481e+00 5.287e+00
11 1 5.280e+00 1.744e+00 3.520e+00
17 1 5.278e+00 3.249e+00 5.424e+00
18 1 3.240e+00 5.275e+00 5.428e+00
15 1 3.600e+00 3.598e+00 3.546e+00
109 1 5.290e+00 5.304e+00 4.680e+00
20 1 1.723e+00 7.075e+00 5.294e+00
19 1 1.764e+00 8.794e+00 3.531e+00
21 1 3.605e+00 6.952e+00 3.554e+00
23 1 5.280e+00 7.339e+00 5.442e+00
25 1 1.762e+00 1.056e+01 5.278e+00
24 1 3.478e+00 8.839e+00 5.295e+00
27 1 5.281e+00 1.055e+01 5.309e+00
28 1 1.750e+00 1.750e+00 7.044e+00
33 1 3.512e+00 3.513e+00 7.060e+00
29 1 5.280e+00 1.682e+00 7.131e+00
31 1 1.679e+00 5.281e+00 7.130e+00
34 1 5.281e+00 5.283e+00 7.057e+00
39 1 3.506e+00 7.051e+00 7.062e+00
37 1 1.747e+00 8.815e+00 7.052e+00
44 1 3.473e+00 1.056e+01 7.072e+00
40 1 5.280e+00 8.886e+00 7.139e+00
46 1 1.745e+00 1.744e+00 1.058e+01
30 1 3.486e+00 1.743e+00 8.818e+00
32 1 1.744e+00 3.486e+00 8.818e+00
49 1 3.481e+00 3.482e+00 1.053e+01
47 1 5.278e+00 1.683e+00 1.050e+01
35 1 5.282e+00 3.511e+00 8.820e+00
48 1 1.688e+00 5.280e+00 1.050e+01
36 1 3.509e+00 5.285e+00 8.819e+00
50 1 5.279e+00 5.275e+00 1.061e+01
38 1 1.741e+00 7.076e+00 8.822e+00
52 1 3.482e+00 7.080e+00 1.054e+01
41 1 5.281e+00 7.048e+00 8.818e+00
43 1 1.746e+00 1.056e+01 8.824e+00
51 1 1.742e+00 8.820e+00 1.058e+01
42 1 3.484e+00 8.814e+00 8.820e+00
54 1 3.498e+00 1.055e+01 1.058e+01
45 1 5.281e+00 1.055e+01 8.815e+00
53 1 5.281e+00 8.859e+00 1.051e+01
55 1 7.073e+00 1.733e+00 1.776e+00
56 1 1.056e+01 1.749e+00 1.775e+00
57 1 8.814e+00 3.490e+00 1.777e+00
58 1 7.245e+00 5.287e+00 1.628e+00
59 1 1.056e+01 5.281e+00 1.755e+00
68 1 8.813e+00 5.280e+00 3.519e+00
71 1 1.056e+01 3.525e+00 3.513e+00
60 1 8.821e+00 7.073e+00 1.780e+00
77 1 1.056e+01 7.044e+00 3.518e+00
61 1 7.071e+00 8.816e+00 1.781e+00
79 1 7.041e+00 1.056e+01 3.516e+00
62 1 1.056e+01 8.818e+00 1.774e+00
63 1 8.815e+00 1.055e+01 1.775e+00
81 1 1.056e+01 1.056e+01 3.488e+00
65 1 7.073e+00 1.727e+00 5.292e+00
64 1 8.792e+00 1.765e+00 3.529e+00
66 1 1.056e+01 1.761e+00 5.278e+00
69 1 8.839e+00 3.478e+00 5.293e+00
67 1 6.957e+00 3.603e+00 3.549e+00
70 1 7.331e+00 5.276e+00 5.438e+00
72 1 1.056e+01 5.282e+00 5.307e+00
73 1 6.951e+00 6.950e+00 3.559e+00
74 1 8.796e+00 8.794e+00 3.532e+00
75 1 8.840e+00 7.078e+00 5.295e+00
76 1 7.084e+00 8.841e+00 5.295e+00
80 1 8.799e+00 1.056e+01 5.281e+00
78 1 1.056e+01 8.801e+00 5.283e+00
85 1 7.050e+00 3.510e+00 7.060e+00
82 1 8.811e+00 1.749e+00 7.048e+00
89 1 1.056e+01 3.473e+00 7.069e+00
86 1 8.884e+00 5.280e+00 7.136e+00
91 1 7.056e+00 7.054e+00 7.063e+00
95 1 1.056e+01 7.085e+00 7.077e+00
97 1 7.084e+00 1.056e+01 7.074e+00
92 1 8.816e+00 8.816e+00 7.056e+00
99 1 1.056e+01 1.057e+01 7.059e+00
83 1 7.074e+00 1.740e+00 8.820e+00
101 1 7.078e+00 3.481e+00 1.054e+01
84 1 1.056e+01 1.748e+00 8.823e+00
100 1 8.818e+00 1.744e+00 1.058e+01
87 1 8.813e+00 3.484e+00 8.820e+00
103 1 1.056e+01 3.500e+00 1.058e+01
88 1 7.051e+00 5.282e+00 8.819e+00
90 1 1.056e+01 5.278e+00 8.816e+00
102 1 8.865e+00 5.278e+00 1.051e+01
104 1 7.081e+00 7.081e+00 1.054e+01
93 1 8.820e+00 7.078e+00 8.823e+00
106 1 1.056e+01 7.066e+00 1.058e+01
94 1 7.080e+00 8.816e+00 8.822e+00
107 1 7.063e+00 1.055e+01 1.058e+01
96 1 1.056e+01 8.819e+00 8.828e+00
98 1 8.818e+00 1.057e+01 8.826e+00
105 1 8.820e+00 8.823e+00 1.059e+01
108 1 1.056e+01 1.056e+01 1.059e+01
ITEM: TIMESTEP
2000
ITEM: NUMBER OF ATOMS
109
ITEM: BOX BOUNDS pp pp pp
8.8000000000000000e-01 1.1440000000000000e+01
8.8000000000000000e-01 1.1440000000000000e+01
8.8000000000000000e-01 1.1440000000000000e+01
ITEM: ATOMS id type x y z
1 1 3.474e+00 1.728e+00 1.770e+00
2 1 1.727e+00 3.473e+00 1.769e+00
3 1 5.280e+00 3.253e+00 1.628e+00
4 1 3.254e+00 5.279e+00 1.632e+00
16 1 5.276e+00 5.270e+00 2.507e+00
5 1 1.729e+00 7.085e+00 1.772e+00
6 1 5.279e+00 7.299e+00 1.640e+00
8 1 1.741e+00 1.056e+01 1.775e+00
7 1 3.474e+00 8.832e+00 1.772e+00
9 1 5.280e+00 1.056e+01 1.760e+00
10 1 1.765e+00 1.766e+00 3.528e+00
12 1 3.477e+00 1.716e+00 5.295e+00
14 1 1.713e+00 3.473e+00 5.296e+00
11 1 5.280e+00 1.731e+00 3.533e+00
17 1 5.279e+00 3.242e+00 5.442e+00
13 1 1.727e+00 5.279e+00 3.532e+00
18 1 3.236e+00 5.276e+00 5.443e+00
15 1 3.607e+00 3.608e+00 3.540e+00
109 1 5.286e+00 5.295e+00 4.614e+00
20 1 1.712e+00 7.081e+00 5.292e+00
19 1 1.766e+00 8.795e+00 3.530e+00
21 1 3.609e+00 6.952e+00 3.542e+00
23 1 5.278e+00 7.339e+00 5.445e+00
25 1 1.738e+00 1.056e+01 5.282e+00
24 1 3.471e+00 8.849e+00 5.293e+00
22 1 5.280e+00 8.836e+00 3.531e+00
26 1 3.521e+00 1.056e+01 3.521e+00
27 1 5.278e+00 1.056e+01 5.326e+00
28 1 1.746e+00 1.745e+00 7.063e+00
33 1 3.496e+00 3.495e+00 7.085e+00
29 1 5.281e+00 1.677e+00 7.139e+00
31 1 1.676e+00 5.278e+00 7.141e+00
34 1 5.281e+00 5.282e+00 7.046e+00
39 1 3.492e+00 7.066e+00 7.082e+00
37 1 1.742e+00 8.814e+00 7.060e+00
44 1 3.484e+00 1.056e+01 7.064e+00
40 1 5.279e+00 8.887e+00 7.143e+00
46 1 1.744e+00 1.742e+00 1.058e+01
30 1 3.489e+00 1.740e+00 8.822e+00
32 1 1.742e+00 3.487e+00 8.823e+00
49 1 3.498e+00 3.498e+00 1.054e+01
47 1 5.281e+00 1.673e+00 1.049e+01
35 1 5.281e+00 3.515e+00 8.824e+00
48 1 1.676e+00 5.280e+00 1.050e+01
36 1 3.513e+00 5.282e+00 8.824e+00
50 1 5.281e+00 5.282e+00 1.061e+01
38 1 1.740e+00 7.071e+00 8.821e+00
52 1 3.496e+00 7.064e+00 1.054e+01
41 1 5.281e+00 7.050e+00 8.823e+00
43 1 1.739e+00 1.056e+01 8.812e+00
51 1 1.740e+00 8.816e+00 1.058e+01
42 1 3.485e+00 8.818e+00 8.822e+00
54 1 3.497e+00 1.056e+01 1.057e+01
45 1 5.279e+00 1.056e+01 8.817e+00
53 1 5.280e+00 8.878e+00 1.050e+01
55 1 7.085e+00 1.728e+00 1.771e+00
56 1 1.056e+01 1.740e+00 1.775e+00
57 1 8.832e+00 3.474e+00 1.770e+00
58 1 7.302e+00 5.279e+00 1.636e+00
59 1 1.056e+01 5.280e+00 1.760e+00
60 1 8.831e+00 7.085e+00 1.773e+00
61 1 7.085e+00 8.831e+00 1.772e+00
62 1 1.056e+01 8.820e+00 1.776e+00
63 1 8.819e+00 1.056e+01 1.776e+00
65 1 7.081e+00 1.715e+00 5.294e+00
64 1 8.795e+00 1.765e+00 3.528e+00
71 1 1.056e+01 3.519e+00 3.520e+00
66 1 1.056e+01 1.738e+00 5.284e+00
69 1 8.848e+00 3.472e+00 5.294e+00
67 1 6.953e+00 3.610e+00 3.541e+00
70 1 7.333e+00 5.278e+00 5.443e+00
68 1 8.835e+00 5.278e+00 3.531e+00
72 1 1.056e+01 5.277e+00 5.326e+00
73 1 6.951e+00 6.952e+00 3.543e+00
74 1 8.794e+00 8.794e+00 3.529e+00
77 1 1.056e+01 7.040e+00 3.522e+00
75 1 8.849e+00 7.083e+00 5.292e+00
79 1 7.040e+00 1.056e+01 3.523e+00
76 1 7.086e+00 8.850e+00 5.292e+00
81 1 1.056e+01 1.056e+01 3.536e+00
80 1 8.822e+00 1.056e+01 5.280e+00
78 1 1.056e+01 8.822e+00 5.279e+00
85 1 7.065e+00 3.495e+00 7.083e+00
82 1 8.813e+00 1.743e+00 7.062e+00
89 1 1.056e+01 3.483e+00 7.065e+00
86 1 8.886e+00 5.280e+00 7.142e+00
91 1 7.067e+00 7.068e+00 7.080e+00
95 1 1.056e+01 7.074e+00 7.063e+00
97 1 7.075e+00 1.056e+01 7.064e+00
92 1 8.817e+00 8.816e+00 7.060e+00
99 1 1.056e+01 1.056e+01 7.045e+00
83 1 7.070e+00 1.739e+00 8.821e+00
101 1 7.063e+00 3.497e+00 1.054e+01
84 1 1.056e+01 1.740e+00 8.814e+00
100 1 8.815e+00 1.739e+00 1.058e+01
87 1 8.818e+00 3.486e+00 8.823e+00
103 1 1.056e+01 3.497e+00 1.057e+01
88 1 7.049e+00 5.282e+00 8.823e+00
90 1 1.056e+01 5.280e+00 8.817e+00
102 1 8.881e+00 5.282e+00 1.050e+01
104 1 7.065e+00 7.065e+00 1.055e+01
93 1 8.820e+00 7.073e+00 8.821e+00
106 1 1.056e+01 7.062e+00 1.057e+01
94 1 7.075e+00 8.818e+00 8.821e+00
107 1 7.062e+00 1.056e+01 1.057e+01
96 1 1.056e+01 8.820e+00 8.812e+00
98 1 8.820e+00 1.056e+01 8.813e+00
105 1 8.819e+00 8.817e+00 1.058e+01
108 1 1.056e+01 1.056e+01 1.058e+01
ITEM: TIMESTEP
3000
ITEM: NUMBER OF ATOMS
109
ITEM: BOX BOUNDS pp pp pp
8.8000000000000000e-01 1.1440000000000000e+01
8.8000000000000000e-01 1.1440000000000000e+01
8.8000000000000000e-01 1.1440000000000000e+01
ITEM: ATOMS id type x y z
1 1 3.473e+00 1.722e+00 1.773e+00
2 1 1.723e+00 3.476e+00 1.773e+00
3 1 5.281e+00 3.236e+00 1.628e+00
4 1 3.242e+00 5.283e+00 1.627e+00
16 1 5.279e+00 5.272e+00 2.464e+00
5 1 1.723e+00 7.087e+00 1.774e+00
6 1 5.280e+00 7.311e+00 1.628e+00
8 1 1.732e+00 1.056e+01 1.803e+00
7 1 3.476e+00 8.836e+00 1.775e+00
9 1 5.281e+00 1.056e+01 1.769e+00
10 1 1.777e+00 1.776e+00 3.537e+00
12 1 3.477e+00 1.724e+00 5.303e+00
14 1 1.723e+00 3.475e+00 5.301e+00
11 1 5.279e+00 1.718e+00 3.545e+00
17 1 5.279e+00 3.254e+00 5.439e+00
13 1 1.719e+00 5.281e+00 3.542e+00
18 1 3.248e+00 5.276e+00 5.437e+00
15 1 3.618e+00 3.619e+00 3.522e+00
109 1 5.283e+00 5.288e+00 4.573e+00
20 1 1.723e+00 7.082e+00 5.303e+00
19 1 1.775e+00 8.783e+00 3.538e+00
21 1 3.622e+00 6.937e+00 3.520e+00
23 1 5.277e+00 7.319e+00 5.434e+00
25 1 1.734e+00 1.056e+01 5.288e+00
24 1 3.471e+00 8.839e+00 5.298e+00
26 1 3.509e+00 1.056e+01 3.543e+00
22 1 5.281e+00 8.841e+00 3.538e+00
27 1 5.280e+00 1.056e+01 5.318e+00
28 1 1.742e+00 1.742e+00 7.065e+00
33 1 3.500e+00 3.500e+00 7.094e+00
29 1 5.279e+00 1.680e+00 7.147e+00
31 1 1.681e+00 5.279e+00 7.147e+00
34 1 5.280e+00 5.280e+00 7.028e+00
39 1 3.499e+00 7.059e+00 7.090e+00
37 1 1.740e+00 8.819e+00 7.064e+00
44 1 3.486e+00 1.056e+01 7.059e+00
40 1 5.279e+00 8.878e+00 7.147e+00
46 1 1.747e+00 1.746e+00 1.058e+01
30 1 3.499e+00 1.743e+00 8.814e+00
32 1 1.742e+00 3.500e+00 8.815e+00
49 1 3.497e+00 3.496e+00 1.053e+01
47 1 5.280e+00 1.686e+00 1.050e+01
35 1 5.280e+00 3.517e+00 8.815e+00
48 1 1.688e+00 5.282e+00 1.050e+01
36 1 3.518e+00 5.281e+00 8.816e+00
50 1 5.280e+00 5.280e+00 1.059e+01
38 1 1.743e+00 7.062e+00 8.814e+00
52 1 3.497e+00 7.062e+00 1.053e+01
41 1 5.280e+00 7.044e+00 8.815e+00
43 1 1.750e+00 1.056e+01 8.809e+00
51 1 1.746e+00 8.814e+00 1.058e+01
42 1 3.500e+00 8.818e+00 8.814e+00
54 1 3.509e+00 1.056e+01 1.057e+01
45 1 5.281e+00 1.056e+01 8.817e+00
53 1 5.280e+00 8.869e+00 1.050e+01
55 1 7.087e+00 1.721e+00 1.773e+00
56 1 1.056e+01 1.732e+00 1.804e+00
57 1 8.836e+00 3.475e+00 1.773e+00
58 1 7.315e+00 5.280e+00 1.628e+00
59 1 1.056e+01 5.282e+00 1.768e+00
73 1 6.937e+00 6.936e+00 3.518e+00
60 1 8.836e+00 7.086e+00 1.774e+00
61 1 7.084e+00 8.836e+00 1.775e+00
62 1 1.056e+01 8.830e+00 1.800e+00
63 1 8.830e+00 1.056e+01 1.801e+00
65 1 7.082e+00 1.726e+00 5.302e+00
64 1 8.783e+00 1.775e+00 3.537e+00
71 1 1.056e+01 3.510e+00 3.543e+00
66 1 1.056e+01 1.735e+00 5.287e+00
69 1 8.839e+00 3.472e+00 5.299e+00
67 1 6.939e+00 3.620e+00 3.521e+00
70 1 7.315e+00 5.274e+00 5.436e+00
68 1 8.841e+00 5.279e+00 3.541e+00
72 1 1.056e+01 5.279e+00 5.317e+00
74 1 8.786e+00 8.785e+00 3.537e+00
77 1 1.056e+01 7.051e+00 3.541e+00
75 1 8.837e+00 7.084e+00 5.299e+00
79 1 7.051e+00 1.056e+01 3.542e+00
76 1 7.088e+00 8.839e+00 5.299e+00
81 1 1.056e+01 1.056e+01 3.557e+00
80 1 8.827e+00 1.056e+01 5.288e+00
78 1 1.056e+01 8.828e+00 5.289e+00
85 1 7.059e+00 3.499e+00 7.093e+00
82 1 8.819e+00 1.742e+00 7.064e+00
89 1 1.056e+01 3.487e+00 7.059e+00
86 1 8.877e+00 5.278e+00 7.146e+00
91 1 7.059e+00 7.059e+00 7.089e+00
95 1 1.056e+01 7.073e+00 7.057e+00
97 1 7.073e+00 1.056e+01 7.058e+00
92 1 8.819e+00 8.819e+00 7.064e+00
99 1 1.056e+01 1.056e+01 7.036e+00
83 1 7.061e+00 1.743e+00 8.813e+00
101 1 7.063e+00 3.496e+00 1.053e+01
84 1 1.056e+01 1.751e+00 8.809e+00
100 1 8.814e+00 1.746e+00 1.058e+01
87 1 8.818e+00 3.499e+00 8.814e+00
103 1 1.056e+01 3.510e+00 1.057e+01
88 1 7.043e+00 5.280e+00 8.815e+00
90 1 1.056e+01 5.283e+00 8.817e+00
102 1 8.871e+00 5.281e+00 1.050e+01
104 1 7.062e+00 7.061e+00 1.054e+01
93 1 8.818e+00 7.060e+00 8.812e+00
106 1 1.056e+01 7.054e+00 1.057e+01
94 1 7.060e+00 8.818e+00 8.813e+00
107 1 7.053e+00 1.056e+01 1.057e+01
96 1 1.056e+01 8.812e+00 8.809e+00
98 1 8.811e+00 1.056e+01 8.809e+00
105 1 8.813e+00 8.814e+00 1.058e+01
108 1 1.056e+01 1.056e+01 1.056e+01
ITEM: TIMESTEP
4000
ITEM: NUMBER OF ATOMS
109
ITEM: BOX BOUNDS pp pp pp
8.8000000000000000e-01 1.1440000000000000e+01
8.8000000000000000e-01 1.1440000000000000e+01
8.8000000000000000e-01 1.1440000000000000e+01
ITEM: ATOMS id type x y z
1 1 3.477e+00 1.734e+00 1.791e+00
2 1 1.738e+00 3.480e+00 1.793e+00
3 1 5.279e+00 3.221e+00 1.644e+00
4 1 3.228e+00 5.282e+00 1.642e+00
16 1 5.282e+00 5.276e+00 2.413e+00
5 1 1.735e+00 7.081e+00 1.784e+00
6 1 5.281e+00 7.321e+00 1.636e+00
8 1 1.732e+00 1.056e+01 1.801e+00
7 1 3.481e+00 8.823e+00 1.785e+00
9 1 5.280e+00 1.056e+01 1.773e+00
10 1 1.782e+00 1.780e+00 3.557e+00
12 1 3.486e+00 1.730e+00 5.299e+00
14 1 1.727e+00 3.486e+00 5.297e+00
11 1 5.283e+00 1.707e+00 3.556e+00
17 1 5.279e+00 3.280e+00 5.438e+00
13 1 1.711e+00 5.287e+00 3.555e+00
18 1 3.279e+00 5.278e+00 5.440e+00
15 1 3.626e+00 3.627e+00 3.553e+00
109 1 5.276e+00 5.277e+00 4.519e+00
20 1 1.733e+00 7.076e+00 5.300e+00
19 1 1.788e+00 8.771e+00 3.552e+00
21 1 3.630e+00 6.935e+00 3.552e+00
23 1 5.280e+00 7.277e+00 5.442e+00
25 1 1.744e+00 1.056e+01 5.277e+00
24 1 3.486e+00 8.832e+00 5.298e+00
26 1 3.513e+00 1.056e+01 3.531e+00
22 1 5.282e+00 8.846e+00 3.551e+00
27 1 5.282e+00 1.056e+01 5.321e+00
28 1 1.739e+00 1.741e+00 7.046e+00
33 1 3.493e+00 3.493e+00 7.079e+00
29 1 5.281e+00 1.685e+00 7.127e+00
31 1 1.685e+00 5.279e+00 7.130e+00
34 1 5.279e+00 5.277e+00 7.022e+00
39 1 3.499e+00 7.060e+00 7.082e+00
37 1 1.740e+00 8.823e+00 7.048e+00
44 1 3.495e+00 1.056e+01 7.038e+00
40 1 5.280e+00 8.874e+00 7.132e+00
46 1 1.747e+00 1.747e+00 1.058e+01
30 1 3.502e+00 1.746e+00 8.804e+00
32 1 1.745e+00 3.502e+00 8.806e+00
49 1 3.492e+00 3.489e+00 1.056e+01
47 1 5.281e+00 1.674e+00 1.050e+01
35 1 5.278e+00 3.508e+00 8.813e+00
48 1 1.676e+00 5.283e+00 1.050e+01
36 1 3.510e+00 5.279e+00 8.816e+00
50 1 5.278e+00 5.276e+00 1.056e+01
38 1 1.745e+00 7.061e+00 8.807e+00
52 1 3.489e+00 7.068e+00 1.055e+01
41 1 5.280e+00 7.048e+00 8.823e+00
43 1 1.752e+00 1.056e+01 8.811e+00
51 1 1.746e+00 8.816e+00 1.057e+01
42 1 3.504e+00 8.817e+00 8.807e+00
54 1 3.494e+00 1.056e+01 1.058e+01
45 1 5.280e+00 1.056e+01 8.805e+00
53 1 5.282e+00 8.885e+00 1.050e+01
55 1 7.082e+00 1.733e+00 1.789e+00
56 1 1.056e+01 1.735e+00 1.803e+00
57 1 8.823e+00 3.480e+00 1.789e+00
58 1 7.328e+00 5.284e+00 1.637e+00
59 1 1.056e+01 5.281e+00 1.772e+00
60 1 8.825e+00 7.081e+00 1.781e+00
61 1 7.079e+00 8.823e+00 1.782e+00
62 1 1.056e+01 8.831e+00 1.796e+00
63 1 8.830e+00 1.056e+01 1.797e+00
65 1 7.075e+00 1.732e+00 5.300e+00
64 1 8.774e+00 1.786e+00 3.555e+00
71 1 1.056e+01 3.517e+00 3.532e+00
66 1 1.056e+01 1.746e+00 5.275e+00
69 1 8.832e+00 3.489e+00 5.297e+00
67 1 6.933e+00 3.628e+00 3.553e+00
70 1 7.276e+00 5.281e+00 5.440e+00
68 1 8.846e+00 5.286e+00 3.551e+00
72 1 1.056e+01 5.285e+00 5.320e+00
73 1 6.927e+00 6.928e+00 3.552e+00
74 1 8.769e+00 8.767e+00 3.550e+00
77 1 1.056e+01 7.053e+00 3.530e+00
75 1 8.827e+00 7.076e+00 5.298e+00
79 1 7.052e+00 1.056e+01 3.532e+00
76 1 7.077e+00 8.829e+00 5.299e+00
81 1 1.056e+01 1.056e+01 3.560e+00
80 1 8.816e+00 1.056e+01 5.279e+00
78 1 1.056e+01 8.814e+00 5.282e+00
85 1 7.062e+00 3.495e+00 7.079e+00
82 1 8.823e+00 1.740e+00 7.046e+00
89 1 1.056e+01 3.496e+00 7.040e+00
86 1 8.874e+00 5.280e+00 7.130e+00
91 1 7.059e+00 7.057e+00 7.083e+00
95 1 1.056e+01 7.065e+00 7.037e+00
97 1 7.064e+00 1.056e+01 7.038e+00
92 1 8.823e+00 8.823e+00 7.049e+00
99 1 1.056e+01 1.057e+01 7.059e+00
83 1 7.059e+00 1.747e+00 8.805e+00
101 1 7.068e+00 3.489e+00 1.056e+01
84 1 1.056e+01 1.754e+00 8.812e+00
100 1 8.815e+00 1.747e+00 1.057e+01
87 1 8.816e+00 3.504e+00 8.805e+00
103 1 1.056e+01 3.495e+00 1.059e+01
88 1 7.049e+00 5.277e+00 8.821e+00
90 1 1.056e+01 5.278e+00 8.805e+00
102 1 8.886e+00 5.282e+00 1.050e+01
104 1 7.071e+00 7.070e+00 1.055e+01
93 1 8.816e+00 7.060e+00 8.810e+00
106 1 1.056e+01 7.069e+00 1.058e+01
94 1 7.060e+00 8.818e+00 8.809e+00
107 1 7.067e+00 1.056e+01 1.058e+01
96 1 1.056e+01 8.813e+00 8.814e+00
98 1 8.810e+00 1.056e+01 8.814e+00
105 1 8.816e+00 8.818e+00 1.057e+01
108 1 1.056e+01 1.056e+01 1.057e+01
ITEM: TIMESTEP
5000
ITEM: NUMBER OF ATOMS
109
ITEM: BOX BOUNDS pp pp pp
8.8000000000000000e-01 1.1440000000000000e+01
8.8000000000000000e-01 1.1440000000000000e+01
8.8000000000000000e-01 1.1440000000000000e+01
ITEM: ATOMS id type x y z
1 1 3.480e+00 1.725e+00 1.775e+00
2 1 1.723e+00 3.481e+00 1.775e+00
3 1 5.279e+00 3.250e+00 1.638e+00
4 1 3.250e+00 5.279e+00 1.638e+00
16 1 5.283e+00 5.286e+00 2.455e+00
15 1 3.607e+00 3.608e+00 3.518e+00
5 1 1.725e+00 7.076e+00 1.771e+00
6 1 5.279e+00 7.312e+00 1.638e+00
21 1 3.610e+00 6.952e+00 3.519e+00
8 1 1.739e+00 1.056e+01 1.783e+00
7 1 3.482e+00 8.837e+00 1.774e+00
9 1 5.281e+00 1.056e+01 1.755e+00
10 1 1.769e+00 1.771e+00 3.544e+00
12 1 3.482e+00 1.738e+00 5.298e+00
14 1 1.736e+00 3.483e+00 5.298e+00
11 1 5.283e+00 1.732e+00 3.555e+00
17 1 5.280e+00 3.262e+00 5.438e+00
13 1 1.730e+00 5.284e+00 3.554e+00
18 1 3.264e+00 5.278e+00 5.436e+00
109 1 5.276e+00 5.274e+00 4.555e+00
20 1 1.738e+00 7.080e+00 5.299e+00
19 1 1.776e+00 8.785e+00 3.543e+00
23 1 5.280e+00 7.291e+00 5.433e+00
25 1 1.746e+00 1.056e+01 5.296e+00
24 1 3.485e+00 8.825e+00 5.299e+00
26 1 3.521e+00 1.056e+01 3.539e+00
22 1 5.282e+00 8.834e+00 3.555e+00
27 1 5.281e+00 1.056e+01 5.339e+00
28 1 1.749e+00 1.749e+00 7.060e+00
33 1 3.501e+00 3.501e+00 7.079e+00
29 1 5.278e+00 1.685e+00 7.134e+00
31 1 1.685e+00 5.277e+00 7.132e+00
34 1 5.279e+00 5.280e+00 7.005e+00
39 1 3.499e+00 7.059e+00 7.079e+00
37 1 1.748e+00 8.812e+00 7.061e+00
44 1 3.484e+00 1.056e+01 7.061e+00
40 1 5.279e+00 8.874e+00 7.128e+00
46 1 1.736e+00 1.738e+00 1.056e+01
30 1 3.493e+00 1.745e+00 8.816e+00
32 1 1.745e+00 3.492e+00 8.816e+00
49 1 3.493e+00 3.491e+00 1.056e+01
47 1 5.279e+00 1.681e+00 1.050e+01
35 1 5.280e+00 3.510e+00 8.805e+00
48 1 1.681e+00 5.278e+00 1.050e+01
36 1 3.510e+00 5.279e+00 8.806e+00
50 1 5.279e+00 5.277e+00 1.056e+01
38 1 1.745e+00 7.066e+00 8.816e+00
52 1 3.491e+00 7.065e+00 1.056e+01
41 1 5.280e+00 7.049e+00 8.808e+00
43 1 1.741e+00 1.056e+01 8.817e+00
51 1 1.741e+00 8.824e+00 1.056e+01
42 1 3.493e+00 8.814e+00 8.815e+00
54 1 3.479e+00 1.056e+01 1.058e+01
45 1 5.279e+00 1.056e+01 8.815e+00
53 1 5.279e+00 8.879e+00 1.050e+01
55 1 7.078e+00 1.725e+00 1.772e+00
56 1 1.056e+01 1.739e+00 1.783e+00
57 1 8.837e+00 3.482e+00 1.775e+00
58 1 7.312e+00 5.281e+00 1.638e+00
67 1 6.951e+00 3.611e+00 3.518e+00
59 1 1.056e+01 5.282e+00 1.754e+00
60 1 8.836e+00 7.076e+00 1.771e+00
61 1 7.076e+00 8.837e+00 1.771e+00
62 1 1.056e+01 8.819e+00 1.784e+00
63 1 8.820e+00 1.056e+01 1.784e+00
65 1 7.081e+00 1.739e+00 5.299e+00
64 1 8.790e+00 1.773e+00 3.544e+00
66 1 1.056e+01 1.746e+00 5.294e+00
69 1 8.824e+00 3.486e+00 5.298e+00
70 1 7.292e+00 5.279e+00 5.434e+00
71 1 1.056e+01 3.524e+00 3.541e+00
68 1 8.833e+00 5.286e+00 3.554e+00
72 1 1.056e+01 5.284e+00 5.339e+00
73 1 6.950e+00 6.952e+00 3.520e+00
74 1 8.781e+00 8.781e+00 3.543e+00
77 1 1.056e+01 7.045e+00 3.537e+00
75 1 8.823e+00 7.078e+00 5.299e+00
79 1 7.044e+00 1.056e+01 3.539e+00
76 1 7.077e+00 8.825e+00 5.299e+00
81 1 1.056e+01 1.056e+01 3.552e+00
80 1 8.815e+00 1.056e+01 5.298e+00
78 1 1.056e+01 8.815e+00 5.298e+00
85 1 7.058e+00 3.500e+00 7.080e+00
82 1 8.811e+00 1.748e+00 7.060e+00
89 1 1.056e+01 3.485e+00 7.060e+00
86 1 8.874e+00 5.279e+00 7.130e+00
91 1 7.062e+00 7.061e+00 7.081e+00
95 1 1.056e+01 7.076e+00 7.064e+00
97 1 7.075e+00 1.056e+01 7.064e+00
92 1 8.814e+00 8.813e+00 7.061e+00
99 1 1.056e+01 1.056e+01 7.071e+00
83 1 7.068e+00 1.745e+00 8.818e+00
101 1 7.067e+00 3.491e+00 1.056e+01
84 1 1.056e+01 1.741e+00 8.816e+00
100 1 8.825e+00 1.739e+00 1.056e+01
87 1 8.814e+00 3.492e+00 8.815e+00
103 1 1.056e+01 3.478e+00 1.058e+01
88 1 7.049e+00 5.280e+00 8.808e+00
90 1 1.056e+01 5.277e+00 8.816e+00
102 1 8.880e+00 5.281e+00 1.050e+01
104 1 7.067e+00 7.067e+00 1.056e+01
93 1 8.814e+00 7.067e+00 8.817e+00
106 1 1.056e+01 7.081e+00 1.058e+01
94 1 7.066e+00 8.813e+00 8.815e+00
107 1 7.082e+00 1.056e+01 1.058e+01
96 1 1.056e+01 8.819e+00 8.819e+00
98 1 8.820e+00 1.056e+01 8.817e+00
105 1 8.821e+00 8.822e+00 1.056e+01
108 1 1.056e+01 1.056e+01 1.059e+01
ITEM: TIMESTEP
6000
ITEM: NUMBER OF ATOMS
109
ITEM: BOX BOUNDS pp pp pp
8.8000000000000000e-01 1.1440000000000000e+01
8.8000000000000000e-01 1.1440000000000000e+01
8.8000000000000000e-01 1.1440000000000000e+01
ITEM: ATOMS id type x y z
1 1 3.475e+00 1.730e+00 1.771e+00
2 1 1.726e+00 3.473e+00 1.770e+00
3 1 5.276e+00 3.272e+00 1.640e+00
4 1 3.265e+00 5.272e+00 1.638e+00
16 1 5.288e+00 5.302e+00 2.478e+00
5 1 1.729e+00 7.084e+00 1.771e+00
6 1 5.277e+00 7.314e+00 1.633e+00
8 1 1.733e+00 1.056e+01 1.784e+00
7 1 3.469e+00 8.839e+00 1.770e+00
9 1 5.281e+00 1.056e+01 1.757e+00
26 1 3.529e+00 1.056e+01 3.517e+00
10 1 1.768e+00 1.766e+00 3.531e+00
12 1 3.476e+00 1.726e+00 5.299e+00
14 1 1.727e+00 3.475e+00 5.298e+00
11 1 5.280e+00 1.745e+00 3.539e+00
17 1 5.279e+00 3.258e+00 5.439e+00
13 1 1.744e+00 5.278e+00 3.541e+00
18 1 3.259e+00 5.278e+00 5.440e+00
15 1 3.601e+00 3.601e+00 3.537e+00
109 1 5.278e+00 5.278e+00 4.570e+00
20 1 1.726e+00 7.081e+00 5.299e+00
19 1 1.763e+00 8.794e+00 3.531e+00
21 1 3.600e+00 6.959e+00 3.536e+00
23 1 5.277e+00 7.297e+00 5.443e+00
25 1 1.746e+00 1.056e+01 5.285e+00
24 1 3.478e+00 8.830e+00 5.296e+00
22 1 5.281e+00 8.814e+00 3.543e+00
27 1 5.280e+00 1.056e+01 5.319e+00
28 1 1.739e+00 1.738e+00 7.055e+00
33 1 3.495e+00 3.497e+00 7.094e+00
29 1 5.280e+00 1.702e+00 7.137e+00
31 1 1.701e+00 5.281e+00 7.138e+00
34 1 5.277e+00 5.276e+00 7.022e+00
39 1 3.496e+00 7.064e+00 7.096e+00
37 1 1.737e+00 8.821e+00 7.054e+00
44 1 3.485e+00 1.056e+01 7.065e+00
40 1 5.280e+00 8.861e+00 7.138e+00
46 1 1.741e+00 1.741e+00 1.056e+01
30 1 3.485e+00 1.737e+00 8.815e+00
32 1 1.737e+00 3.485e+00 8.816e+00
49 1 3.493e+00 3.492e+00 1.056e+01
47 1 5.279e+00 1.678e+00 1.051e+01
35 1 5.280e+00 3.512e+00 8.810e+00
48 1 1.675e+00 5.281e+00 1.050e+01
36 1 3.511e+00 5.279e+00 8.812e+00
50 1 5.280e+00 5.279e+00 1.058e+01
38 1 1.738e+00 7.077e+00 8.818e+00
52 1 3.494e+00 7.066e+00 1.057e+01
41 1 5.280e+00 7.049e+00 8.813e+00
43 1 1.739e+00 1.056e+01 8.823e+00
51 1 1.742e+00 8.820e+00 1.056e+01
42 1 3.485e+00 8.825e+00 8.815e+00
54 1 3.480e+00 1.056e+01 1.058e+01
45 1 5.279e+00 1.056e+01 8.811e+00
53 1 5.281e+00 8.887e+00 1.050e+01
55 1 7.082e+00 1.731e+00 1.771e+00
56 1 1.056e+01 1.733e+00 1.784e+00
57 1 8.838e+00 3.468e+00 1.770e+00
58 1 7.306e+00 5.271e+00 1.636e+00
59 1 1.056e+01 5.281e+00 1.757e+00
71 1 1.056e+01 3.528e+00 3.517e+00
60 1 8.833e+00 7.087e+00 1.771e+00
77 1 1.056e+01 7.032e+00 3.516e+00
61 1 7.089e+00 8.836e+00 1.771e+00
79 1 7.032e+00 1.056e+01 3.516e+00
62 1 1.056e+01 8.827e+00 1.785e+00
63 1 8.827e+00 1.056e+01 1.784e+00
65 1 7.082e+00 1.725e+00 5.300e+00
64 1 8.793e+00 1.765e+00 3.531e+00
66 1 1.056e+01 1.744e+00 5.284e+00
69 1 8.832e+00 3.475e+00 5.297e+00
67 1 6.959e+00 3.602e+00 3.537e+00
70 1 7.298e+00 5.276e+00 5.442e+00
68 1 8.816e+00 5.277e+00 3.543e+00
72 1 1.056e+01 5.280e+00 5.319e+00
73 1 6.960e+00 6.958e+00 3.535e+00
74 1 8.798e+00 8.797e+00 3.532e+00
75 1 8.832e+00 7.079e+00 5.297e+00
76 1 7.080e+00 8.831e+00 5.298e+00
81 1 1.056e+01 1.056e+01 3.541e+00
80 1 8.813e+00 1.056e+01 5.284e+00
78 1 1.056e+01 8.812e+00 5.286e+00
85 1 7.063e+00 3.495e+00 7.095e+00
82 1 8.821e+00 1.736e+00 7.056e+00
89 1 1.056e+01 3.484e+00 7.065e+00
86 1 8.860e+00 5.279e+00 7.138e+00
91 1 7.063e+00 7.063e+00 7.095e+00
95 1 1.056e+01 7.073e+00 7.065e+00
97 1 7.074e+00 1.056e+01 7.066e+00
92 1 8.821e+00 8.821e+00 7.053e+00
99 1 1.056e+01 1.056e+01 7.059e+00
83 1 7.076e+00 1.737e+00 8.818e+00
101 1 7.066e+00 3.492e+00 1.056e+01
84 1 1.056e+01 1.738e+00 8.822e+00
100 1 8.821e+00 1.741e+00 1.056e+01
87 1 8.824e+00 3.484e+00 8.816e+00
103 1 1.056e+01 3.479e+00 1.058e+01
88 1 7.049e+00 5.280e+00 8.812e+00
90 1 1.056e+01 5.279e+00 8.812e+00
102 1 8.886e+00 5.281e+00 1.050e+01
104 1 7.065e+00 7.063e+00 1.057e+01
93 1 8.821e+00 7.075e+00 8.815e+00
106 1 1.056e+01 7.079e+00 1.058e+01
94 1 7.075e+00 8.823e+00 8.816e+00
107 1 7.081e+00 1.056e+01 1.058e+01
96 1 1.056e+01 8.820e+00 8.825e+00
98 1 8.820e+00 1.056e+01 8.825e+00
105 1 8.818e+00 8.819e+00 1.056e+01
108 1 1.056e+01 1.056e+01 1.058e+01
ITEM: TIMESTEP
7000
ITEM: NUMBER OF ATOMS
109
ITEM: BOX BOUNDS pp pp pp
8.8000000000000000e-01 1.1440000000000000e+01
8.8000000000000000e-01 1.1440000000000000e+01
8.8000000000000000e-01 1.1440000000000000e+01
ITEM: ATOMS id type x y z
1 1 3.484e+00 1.741e+00 1.781e+00
2 1 1.734e+00 3.482e+00 1.781e+00
3 1 5.276e+00 3.290e+00 1.642e+00
4 1 3.282e+00 5.270e+00 1.640e+00
16 1 5.289e+00 5.304e+00 2.537e+00
5 1 1.740e+00 7.074e+00 1.781e+00
6 1 5.275e+00 7.297e+00 1.633e+00
8 1 1.750e+00 1.056e+01 1.788e+00
7 1 3.475e+00 8.830e+00 1.782e+00
9 1 5.280e+00 1.056e+01 1.766e+00
10 1 1.763e+00 1.764e+00 3.543e+00
12 1 3.467e+00 1.723e+00 5.298e+00
14 1 1.722e+00 3.470e+00 5.298e+00
11 1 5.279e+00 1.740e+00 3.531e+00
17 1 5.281e+00 3.222e+00 5.442e+00
13 1 1.738e+00 5.277e+00 3.531e+00
18 1 3.230e+00 5.285e+00 5.436e+00
15 1 3.604e+00 3.604e+00 3.536e+00
109 1 5.273e+00 5.261e+00 4.629e+00
20 1 1.722e+00 7.090e+00 5.296e+00
19 1 1.767e+00 8.795e+00 3.543e+00
21 1 3.604e+00 6.956e+00 3.525e+00
23 1 5.282e+00 7.318e+00 5.423e+00
25 1 1.742e+00 1.056e+01 5.273e+00
24 1 3.478e+00 8.836e+00 5.293e+00
26 1 3.531e+00 1.057e+01 3.530e+00
22 1 5.278e+00 8.827e+00 3.530e+00
27 1 5.280e+00 1.056e+01 5.305e+00
28 1 1.743e+00 1.745e+00 7.047e+00
33 1 3.498e+00 3.502e+00 7.100e+00
29 1 5.280e+00 1.678e+00 7.138e+00
31 1 1.680e+00 5.283e+00 7.135e+00
34 1 5.280e+00 5.277e+00 7.023e+00
39 1 3.507e+00 7.060e+00 7.100e+00
37 1 1.752e+00 8.812e+00 7.047e+00
44 1 3.499e+00 1.056e+01 7.046e+00
40 1 5.280e+00 8.876e+00 7.130e+00
46 1 1.742e+00 1.741e+00 1.057e+01
30 1 3.486e+00 1.736e+00 8.811e+00
32 1 1.735e+00 3.488e+00 8.810e+00