ITEM: TIMESTEP
0
ITEM: NUMBER OF ATOMS
109
ITEM: BOX BOUNDS pp pp pp
8.8000000000000000e-01 1.1440000000000000e+01
8.8000000000000000e-01 1.1440000000000000e+01
8.8000000000000000e-01 1.1440000000000000e+01
ITEM: ATOMS id type x y z
1 1 3.520e+00 1.760e+00 1.760e+00
2 1 1.760e+00 3.520e+00 1.760e+00
3 1 5.280e+00 3.520e+00 1.760e+00
4 1 3.520e+00 5.280e+00 1.760e+00
5 1 1.760e+00 7.040e+00 1.760e+00
6 1 5.280e+00 7.040e+00 1.760e+00
8 1 1.760e+00 1.056e+01 1.760e+00
7 1 3.520e+00 8.800e+00 1.760e+00
9 1 5.280e+00 1.056e+01 1.760e+00
10 1 1.760e+00 1.760e+00 3.520e+00
11 1 5.280e+00 1.760e+00 3.520e+00
12 1 3.520e+00 1.760e+00 5.280e+00
13 1 1.760e+00 5.280e+00 3.520e+00
14 1 1.760e+00 3.520e+00 5.280e+00
15 1 3.520e+00 3.520e+00 3.520e+00
16 1 5.280e+00 5.280e+00 3.520e+00
17 1 5.280e+00 3.520e+00 5.280e+00
18 1 3.520e+00 5.280e+00 5.280e+00
109 1 5.280e+00 5.280e+00 5.280e+00
20 1 1.760e+00 7.040e+00 5.280e+00
21 1 3.520e+00 7.040e+00 3.520e+00
23 1 5.280e+00 7.040e+00 5.280e+00
19 1 1.760e+00 8.800e+00 3.520e+00
25 1 1.760e+00 1.056e+01 5.280e+00
22 1 5.280e+00 8.800e+00 3.520e+00
24 1 3.520e+00 8.800e+00 5.280e+00
26 1 3.520e+00 1.056e+01 3.520e+00
27 1 5.280e+00 1.056e+01 5.280e+00
28 1 1.760e+00 1.760e+00 7.040e+00
29 1 5.280e+00 1.760e+00 7.040e+00
31 1 1.760e+00 5.280e+00 7.040e+00
33 1 3.520e+00 3.520e+00 7.040e+00
34 1 5.280e+00 5.280e+00 7.040e+00
39 1 3.520e+00 7.040e+00 7.040e+00
37 1 1.760e+00 8.800e+00 7.040e+00
40 1 5.280e+00 8.800e+00 7.040e+00
44 1 3.520e+00 1.056e+01 7.040e+00
46 1 1.760e+00 1.760e+00 1.056e+01
30 1 3.520e+00 1.760e+00 8.800e+00
47 1 5.280e+00 1.760e+00 1.056e+01
32 1 1.760e+00 3.520e+00 8.800e+00
48 1 1.760e+00 5.280e+00 1.056e+01
35 1 5.280e+00 3.520e+00 8.800e+00
36 1 3.520e+00 5.280e+00 8.800e+00
49 1 3.520e+00 3.520e+00 1.056e+01
50 1 5.280e+00 5.280e+00 1.056e+01
38 1 1.760e+00 7.040e+00 8.800e+00
41 1 5.280e+00 7.040e+00 8.800e+00
52 1 3.520e+00 7.040e+00 1.056e+01
43 1 1.760e+00 1.056e+01 8.800e+00
51 1 1.760e+00 8.800e+00 1.056e+01
42 1 3.520e+00 8.800e+00 8.800e+00
45 1 5.280e+00 1.056e+01 8.800e+00
53 1 5.280e+00 8.800e+00 1.056e+01
54 1 3.520e+00 1.056e+01 1.056e+01
55 1 7.040e+00 1.760e+00 1.760e+00
56 1 1.056e+01 1.760e+00 1.760e+00
58 1 7.040e+00 5.280e+00 1.760e+00
57 1 8.800e+00 3.520e+00 1.760e+00
59 1 1.056e+01 5.280e+00 1.760e+00
60 1 8.800e+00 7.040e+00 1.760e+00
61 1 7.040e+00 8.800e+00 1.760e+00
62 1 1.056e+01 8.800e+00 1.760e+00
63 1 8.800e+00 1.056e+01 1.760e+00
65 1 7.040e+00 1.760e+00 5.280e+00
64 1 8.800e+00 1.760e+00 3.520e+00
66 1 1.056e+01 1.760e+00 5.280e+00
67 1 7.040e+00 3.520e+00 3.520e+00
70 1 7.040e+00 5.280e+00 5.280e+00
68 1 8.800e+00 5.280e+00 3.520e+00
69 1 8.800e+00 3.520e+00 5.280e+00
71 1 1.056e+01 3.520e+00 3.520e+00
72 1 1.056e+01 5.280e+00 5.280e+00
73 1 7.040e+00 7.040e+00 3.520e+00
75 1 8.800e+00 7.040e+00 5.280e+00
77 1 1.056e+01 7.040e+00 3.520e+00
76 1 7.040e+00 8.800e+00 5.280e+00
79 1 7.040e+00 1.056e+01 3.520e+00
74 1 8.800e+00 8.800e+00 3.520e+00
78 1 1.056e+01 8.800e+00 5.280e+00
80 1 8.800e+00 1.056e+01 5.280e+00
81 1 1.056e+01 1.056e+01 3.520e+00
82 1 8.800e+00 1.760e+00 7.040e+00
85 1 7.040e+00 3.520e+00 7.040e+00
86 1 8.800e+00 5.280e+00 7.040e+00
89 1 1.056e+01 3.520e+00 7.040e+00
91 1 7.040e+00 7.040e+00 7.040e+00
95 1 1.056e+01 7.040e+00 7.040e+00
97 1 7.040e+00 1.056e+01 7.040e+00
92 1 8.800e+00 8.800e+00 7.040e+00
99 1 1.056e+01 1.056e+01 7.040e+00
83 1 7.040e+00 1.760e+00 8.800e+00
84 1 1.056e+01 1.760e+00 8.800e+00
100 1 8.800e+00 1.760e+00 1.056e+01
88 1 7.040e+00 5.280e+00 8.800e+00
101 1 7.040e+00 3.520e+00 1.056e+01
87 1 8.800e+00 3.520e+00 8.800e+00
90 1 1.056e+01 5.280e+00 8.800e+00
102 1 8.800e+00 5.280e+00 1.056e+01
103 1 1.056e+01 3.520e+00 1.056e+01
104 1 7.040e+00 7.040e+00 1.056e+01
93 1 8.800e+00 7.040e+00 8.800e+00
106 1 1.056e+01 7.040e+00 1.056e+01
94 1 7.040e+00 8.800e+00 8.800e+00
107 1 7.040e+00 1.056e+01 1.056e+01
96 1 1.056e+01 8.800e+00 8.800e+00
98 1 8.800e+00 1.056e+01 8.800e+00
105 1 8.800e+00 8.800e+00 1.056e+01
108 1 1.056e+01 1.056e+01 1.056e+01
ITEM: TIMESTEP
1000
ITEM: NUMBER OF ATOMS
109
ITEM: BOX BOUNDS pp pp pp
8.8000000000000000e-01 1.1440000000000000e+01
8.8000000000000000e-01 1.1440000000000000e+01
8.8000000000000000e-01 1.1440000000000000e+01
ITEM: ATOMS id type x y z
1 1 3.428e+00 1.754e+00 1.666e+00
2 1 1.720e+00 3.508e+00 1.792e+00
10 1 1.757e+00 1.758e+00 3.441e+00
3 1 5.199e+00 3.313e+00 1.646e+00
4 1 3.443e+00 5.182e+00 1.743e+00
16 1 5.183e+00 4.971e+00 3.158e+00
5 1 1.829e+00 6.942e+00 1.818e+00
7 1 3.510e+00 8.737e+00 1.839e+00
19 1 1.763e+00 8.732e+00 3.421e+00
6 1 5.213e+00 7.058e+00 1.897e+00
8 1 1.861e+00 1.051e+01 1.717e+00
26 1 3.512e+00 1.067e+01 3.451e+00
9 1 5.312e+00 1.058e+01 1.791e+00
22 1 5.286e+00 8.814e+00 3.406e+00
12 1 3.492e+00 1.801e+00 5.238e+00
14 1 1.700e+00 3.389e+00 5.165e+00
15 1 3.487e+00 3.390e+00 3.568e+00
11 1 5.308e+00 1.755e+00 3.530e+00
13 1 1.830e+00 5.278e+00 3.534e+00
18 1 3.369e+00 5.110e+00 5.324e+00
17 1 5.236e+00 3.616e+00 5.336e+00
109 1 5.333e+00 6.047e+00 4.920e+00
20 1 1.769e+00 7.071e+00 5.224e+00
21 1 3.699e+00 6.836e+00 3.775e+00
23 1 5.319e+00 8.072e+00 5.439e+00
25 1 1.671e+00 1.061e+01 5.356e+00
24 1 3.275e+00 8.851e+00 5.142e+00
27 1 5.288e+00 1.048e+01 5.207e+00
28 1 1.878e+00 1.896e+00 7.140e+00
29 1 5.262e+00 1.668e+00 6.932e+00
30 1 3.568e+00 1.838e+00 8.759e+00
31 1 1.700e+00 5.173e+00 7.000e+00
33 1 3.617e+00 3.572e+00 7.041e+00
34 1 5.337e+00 5.306e+00 7.133e+00
35 1 5.291e+00 3.548e+00 8.779e+00
36 1 3.612e+00 5.235e+00 8.732e+00
39 1 3.507e+00 6.960e+00 7.065e+00
37 1 1.879e+00 8.664e+00 7.151e+00
41 1 5.207e+00 7.006e+00 8.690e+00
44 1 3.467e+00 1.058e+01 7.052e+00
40 1 5.345e+00 8.980e+00 7.358e+00
46 1 1.800e+00 1.788e+00 1.056e+01
49 1 3.398e+00 3.489e+00 1.058e+01
47 1 5.222e+00 1.664e+00 1.065e+01
32 1 1.681e+00 3.591e+00 8.850e+00
48 1 1.747e+00 5.249e+00 1.058e+01
50 1 5.244e+00 5.278e+00 1.056e+01
38 1 1.773e+00 6.905e+00 8.851e+00
52 1 3.515e+00 6.941e+00 1.054e+01
51 1 1.818e+00 8.778e+00 1.059e+01
42 1 3.536e+00 8.646e+00 8.869e+00
53 1 5.262e+00 8.776e+00 1.056e+01
43 1 1.865e+00 1.050e+01 8.878e+00
45 1 5.326e+00 1.063e+01 8.868e+00
54 1 3.553e+00 1.060e+01 1.053e+01
55 1 7.091e+00 1.738e+00 1.728e+00
57 1 8.689e+00 3.504e+00 1.702e+00
56 1 1.051e+01 1.724e+00 1.729e+00
58 1 6.992e+00 5.216e+00 1.760e+00
68 1 8.758e+00 5.217e+00 3.426e+00
59 1 1.054e+01 5.354e+00 1.806e+00
60 1 8.748e+00 7.080e+00 1.787e+00
61 1 7.122e+00 8.739e+00 1.835e+00
74 1 8.884e+00 8.745e+00 3.512e+00
63 1 8.720e+00 1.055e+01 1.678e+00
79 1 7.122e+00 1.056e+01 3.518e+00
62 1 1.056e+01 8.817e+00 1.634e+00
81 1 1.050e+01 1.056e+01 3.418e+00
65 1 6.976e+00 1.806e+00 5.286e+00
64 1 8.743e+00 1.765e+00 3.553e+00
66 1 1.056e+01 1.750e+00 5.304e+00
69 1 8.822e+00 3.461e+00 5.146e+00
71 1 1.053e+01 3.429e+00 3.526e+00
67 1 6.998e+00 3.588e+00 3.596e+00
70 1 7.286e+00 5.228e+00 5.326e+00
72 1 1.056e+01 5.285e+00 5.224e+00
73 1 6.887e+00 6.819e+00 3.646e+00
75 1 8.814e+00 7.023e+00 5.285e+00
77 1 1.054e+01 7.074e+00 3.646e+00
76 1 7.372e+00 8.965e+00 5.158e+00
78 1 1.057e+01 8.874e+00 5.320e+00
80 1 8.867e+00 1.067e+01 5.336e+00
82 1 8.761e+00 1.800e+00 7.142e+00
89 1 1.058e+01 3.460e+00 7.011e+00
85 1 6.877e+00 3.534e+00 6.951e+00
88 1 7.045e+00 5.333e+00 8.732e+00
87 1 8.686e+00 3.536e+00 8.719e+00
86 1 8.817e+00 5.260e+00 7.049e+00
90 1 1.056e+01 5.213e+00 8.683e+00
91 1 6.939e+00 7.121e+00 6.904e+00
92 1 8.751e+00 8.747e+00 7.104e+00
95 1 1.050e+01 7.019e+00 7.016e+00
97 1 7.090e+00 1.056e+01 7.059e+00
99 1 1.067e+01 1.055e+01 7.242e+00
83 1 6.951e+00 1.852e+00 8.810e+00
101 1 7.110e+00 3.414e+00 1.060e+01
84 1 1.065e+01 1.855e+00 8.932e+00
100 1 8.809e+00 1.651e+00 1.055e+01
102 1 8.726e+00 5.277e+00 1.066e+01
103 1 1.057e+01 3.533e+00 1.062e+01
104 1 6.967e+00 7.057e+00 1.063e+01
94 1 7.119e+00 8.723e+00 8.845e+00
93 1 8.886e+00 6.975e+00 8.827e+00
106 1 1.058e+01 7.176e+00 1.049e+01
96 1 1.065e+01 8.782e+00 8.803e+00
105 1 8.823e+00 8.791e+00 1.059e+01
107 1 7.070e+00 1.056e+01 1.052e+01
98 1 8.777e+00 1.055e+01 8.817e+00
108 1 1.061e+01 1.061e+01 1.053e+01
ITEM: TIMESTEP
2000
ITEM: NUMBER OF ATOMS
109
ITEM: BOX BOUNDS pp pp pp
8.8000000000000000e-01 1.1440000000000000e+01
8.8000000000000000e-01 1.1440000000000000e+01
8.8000000000000000e-01 1.1440000000000000e+01
ITEM: ATOMS id type x y z
2 1 1.699e+00 3.476e+00 1.776e+00
10 1 1.787e+00 1.726e+00 3.481e+00
1 1 3.531e+00 1.725e+00 1.803e+00
3 1 5.260e+00 3.388e+00 1.668e+00
11 1 5.346e+00 1.830e+00 3.503e+00
4 1 3.472e+00 5.383e+00 1.710e+00
13 1 1.739e+00 5.327e+00 3.448e+00
16 1 5.327e+00 5.174e+00 3.024e+00
15 1 3.550e+00 3.607e+00 3.425e+00
5 1 1.633e+00 7.022e+00 1.617e+00
7 1 3.469e+00 8.777e+00 1.703e+00
6 1 5.278e+00 7.090e+00 1.710e+00
8 1 1.733e+00 1.047e+01 1.810e+00
9 1 5.207e+00 1.054e+01 1.754e+00
22 1 5.228e+00 8.881e+00 3.307e+00
14 1 1.714e+00 3.474e+00 5.245e+00
12 1 3.557e+00 1.810e+00 5.237e+00
17 1 5.335e+00 3.486e+00 5.338e+00
18 1 3.194e+00 5.097e+00 5.316e+00
109 1 5.224e+00 5.896e+00 5.111e+00
19 1 1.774e+00 8.763e+00 3.565e+00
20 1 1.788e+00 7.079e+00 5.369e+00
21 1 3.620e+00 6.962e+00 3.582e+00
23 1 5.429e+00 7.922e+00 5.331e+00
26 1 3.512e+00 1.053e+01 3.588e+00
25 1 1.680e+00 1.060e+01 5.326e+00
24 1 3.371e+00 8.909e+00 5.345e+00
27 1 5.298e+00 1.051e+01 5.325e+00
28 1 1.700e+00 1.765e+00 7.046e+00
30 1 3.507e+00 1.763e+00 8.799e+00
33 1 3.465e+00 3.466e+00 7.055e+00
32 1 1.836e+00 3.453e+00 8.769e+00
29 1 5.283e+00 1.742e+00 7.042e+00
31 1 1.741e+00 5.301e+00 7.162e+00
34 1 5.261e+00 5.089e+00 7.236e+00
38 1 1.778e+00 7.093e+00 8.741e+00
42 1 3.420e+00 8.793e+00 8.714e+00
39 1 3.556e+00 6.995e+00 7.044e+00
41 1 5.235e+00 6.996e+00 8.666e+00
37 1 1.648e+00 8.839e+00 7.011e+00
44 1 3.458e+00 1.065e+01 7.044e+00
40 1 5.297e+00 8.973e+00 7.268e+00
46 1 1.841e+00 1.744e+00 1.062e+01
49 1 3.462e+00 3.457e+00 1.058e+01
35 1 5.264e+00 3.450e+00 8.892e+00
47 1 5.273e+00 1.709e+00 1.063e+01
36 1 3.465e+00 5.227e+00 8.825e+00
48 1 1.742e+00 5.266e+00 1.045e+01
50 1 5.326e+00 5.256e+00 1.058e+01
52 1 3.499e+00 7.017e+00 1.046e+01
51 1 1.832e+00 8.788e+00 1.055e+01
53 1 5.214e+00 8.757e+00 1.048e+01
43 1 1.788e+00 1.056e+01 8.835e+00
54 1 3.486e+00 1.053e+01 1.052e+01
45 1 5.308e+00 1.071e+01 8.921e+00
55 1 7.040e+00 1.743e+00 1.748e+00
64 1 8.792e+00 1.630e+00 3.483e+00
57 1 8.912e+00 3.467e+00 1.812e+00
56 1 1.057e+01 1.654e+00 1.882e+00
71 1 1.054e+01 3.483e+00 3.503e+00
58 1 7.176e+00 5.311e+00 1.684e+00
67 1 7.149e+00 3.589e+00 3.465e+00
68 1 8.845e+00 5.367e+00 3.472e+00
59 1 1.057e+01 5.309e+00 1.724e+00
61 1 7.069e+00 8.731e+00 1.730e+00
60 1 8.856e+00 7.024e+00 1.737e+00
74 1 8.824e+00 8.799e+00 3.502e+00
62 1 1.058e+01 8.797e+00 1.736e+00
63 1 8.796e+00 1.037e+01 1.738e+00
65 1 6.984e+00 1.726e+00 5.301e+00
66 1 1.057e+01 1.672e+00 5.240e+00
69 1 8.881e+00 3.442e+00 5.272e+00
70 1 7.403e+00 5.233e+00 5.312e+00
72 1 1.060e+01 5.214e+00 5.196e+00
73 1 6.988e+00 7.044e+00 3.633e+00
75 1 8.780e+00 7.104e+00 5.295e+00
77 1 1.063e+01 7.027e+00 3.524e+00
78 1 1.045e+01 8.795e+00 5.311e+00
79 1 6.989e+00 1.058e+01 3.524e+00
76 1 7.281e+00 8.944e+00 5.317e+00
81 1 1.054e+01 1.046e+01 3.634e+00
80 1 8.807e+00 1.056e+01 5.345e+00
82 1 8.775e+00 1.678e+00 7.064e+00
85 1 7.058e+00 3.488e+00 7.092e+00
89 1 1.056e+01 3.520e+00 7.030e+00
84 1 1.054e+01 1.737e+00 8.786e+00
86 1 8.889e+00 5.358e+00 7.093e+00
90 1 1.054e+01 5.211e+00 8.773e+00
91 1 6.969e+00 7.087e+00 6.978e+00
92 1 8.801e+00 8.731e+00 7.114e+00
95 1 1.052e+01 7.066e+00 7.051e+00
97 1 7.107e+00 1.063e+01 7.067e+00
99 1 1.055e+01 1.065e+01 7.018e+00
83 1 7.080e+00 1.795e+00 8.884e+00
101 1 6.976e+00 3.513e+00 1.058e+01
100 1 8.855e+00 1.667e+00 1.059e+01
103 1 1.056e+01 3.474e+00 1.056e+01
88 1 7.125e+00 5.377e+00 8.821e+00
87 1 8.828e+00 3.547e+00 8.829e+00
102 1 8.808e+00 5.149e+00 1.051e+01
104 1 6.974e+00 6.968e+00 1.047e+01
94 1 7.046e+00 8.742e+00 8.810e+00
105 1 8.705e+00 8.756e+00 1.059e+01
93 1 8.862e+00 7.088e+00 8.854e+00
106 1 1.053e+01 7.050e+00 1.054e+01
96 1 1.049e+01 8.764e+00 8.867e+00
107 1 7.002e+00 1.056e+01 1.057e+01
98 1 8.799e+00 1.052e+01 8.936e+00
108 1 1.056e+01 1.053e+01 1.060e+01
ITEM: TIMESTEP
3000
ITEM: NUMBER OF ATOMS
109
ITEM: BOX BOUNDS pp pp pp
8.8000000000000000e-01 1.1440000000000000e+01
8.8000000000000000e-01 1.1440000000000000e+01
8.8000000000000000e-01 1.1440000000000000e+01
ITEM: ATOMS id type x y z
2 1 1.756e+00 3.504e+00 1.697e+00
10 1 1.697e+00 1.796e+00 3.516e+00
1 1 3.440e+00 1.752e+00 1.748e+00
3 1 5.284e+00 3.334e+00 1.734e+00
11 1 5.230e+00 1.810e+00 3.467e+00
4 1 3.334e+00 5.256e+00 1.695e+00
16 1 5.181e+00 5.033e+00 3.130e+00
5 1 1.753e+00 7.047e+00 1.960e+00
6 1 5.296e+00 7.020e+00 1.666e+00
7 1 3.516e+00 8.868e+00 1.704e+00
8 1 1.793e+00 1.057e+01 1.798e+00
19 1 1.682e+00 8.901e+00 3.482e+00
9 1 5.350e+00 1.068e+01 1.701e+00
22 1 5.342e+00 8.882e+00 3.220e+00
26 1 3.584e+00 1.062e+01 3.391e+00
15 1 3.450e+00 3.432e+00 3.554e+00
14 1 1.674e+00 3.498e+00 5.265e+00
12 1 3.531e+00 1.672e+00 5.224e+00
17 1 5.260e+00 3.482e+00 5.262e+00
13 1 1.630e+00 5.203e+00 3.523e+00
18 1 3.285e+00 5.251e+00 5.349e+00
109 1 5.349e+00 5.985e+00 5.156e+00
20 1 1.762e+00 7.097e+00 5.316e+00
21 1 3.538e+00 7.069e+00 3.592e+00
23 1 5.014e+00 8.077e+00 5.331e+00
25 1 1.622e+00 1.070e+01 5.183e+00
24 1 3.168e+00 9.090e+00 5.266e+00
27 1 5.274e+00 1.056e+01 5.234e+00
28 1 1.674e+00 1.603e+00 7.057e+00
30 1 3.468e+00 1.732e+00 8.795e+00
33 1 3.438e+00 3.444e+00 7.068e+00
29 1 5.209e+00 1.748e+00 7.041e+00
35 1 5.316e+00 3.412e+00 8.772e+00
31 1 1.754e+00 5.239e+00 7.171e+00
34 1 5.174e+00 5.109e+00 7.295e+00
39 1 3.594e+00 7.053e+00 7.052e+00
37 1 1.771e+00 8.840e+00 7.019e+00
44 1 3.495e+00 1.049e+01 7.187e+00
40 1 5.342e+00 8.830e+00 7.332e+00
45 1 5.325e+00 1.064e+01 8.751e+00
32 1 1.669e+00 3.418e+00 8.825e+00
46 1 1.745e+00 1.739e+00 1.055e+01
49 1 3.471e+00 3.407e+00 1.055e+01
47 1 5.273e+00 1.804e+00 1.054e+01
36 1 3.473e+00 5.184e+00 8.930e+00
48 1 1.702e+00 5.307e+00 1.058e+01
50 1 5.173e+00 5.152e+00 1.066e+01
38 1 1.786e+00 7.126e+00 8.852e+00
42 1 3.510e+00 8.784e+00 8.864e+00
52 1 3.470e+00 7.022e+00 1.064e+01
51 1 1.805e+00 8.798e+00 1.062e+01
41 1 5.347e+00 7.013e+00 9.060e+00
43 1 1.715e+00 1.052e+01 8.883e+00
53 1 5.380e+00 8.816e+00 1.065e+01
54 1 3.647e+00 1.059e+01 1.059e+01
55 1 7.100e+00 1.754e+00 1.691e+00
64 1 8.876e+00 1.756e+00 3.496e+00
57 1 8.847e+00 3.414e+00 1.715e+00
56 1 1.058e+01 1.799e+00 1.716e+00
71 1 1.054e+01 3.516e+00 3.491e+00
58 1 7.153e+00 5.222e+00 1.756e+00
68 1 8.884e+00 5.282e+00 3.503e+00
59 1 1.049e+01 5.247e+00 1.689e+00
61 1 7.113e+00 8.791e+00 1.740e+00
74 1 8.791e+00 8.705e+00 3.518e+00
60 1 8.851e+00 6.980e+00 1.776e+00
62 1 1.054e+01 8.796e+00 1.775e+00
79 1 7.007e+00 1.056e+01 3.432e+00
63 1 8.806e+00 1.051e+01 1.726e+00
81 1 1.056e+01 1.057e+01 3.401e+00
67 1 7.203e+00 3.402e+00 3.530e+00
65 1 6.990e+00 1.767e+00 5.274e+00
66 1 1.057e+01 1.732e+00 5.241e+00
69 1 8.893e+00 3.440e+00 5.283e+00
70 1 7.313e+00 5.060e+00 5.284e+00
72 1 1.056e+01 5.344e+00 5.256e+00
73 1 7.023e+00 6.944e+00 3.566e+00
75 1 8.784e+00 7.048e+00 5.275e+00
77 1 1.053e+01 7.039e+00 3.535e+00
76 1 7.208e+00 8.883e+00 5.234e+00
78 1 1.053e+01 8.807e+00 5.256e+00
80 1 8.871e+00 1.059e+01 5.210e+00
85 1 7.182e+00 3.505e+00 7.080e+00
82 1 8.911e+00 1.655e+00 7.068e+00
89 1 1.055e+01 3.438e+00 7.032e+00
87 1 8.823e+00 3.444e+00 8.762e+00
88 1 7.061e+00 5.319e+00 8.776e+00
86 1 8.858e+00 5.399e+00 7.062e+00
91 1 6.967e+00 6.983e+00 7.097e+00
92 1 8.826e+00 8.799e+00 7.069e+00
95 1 1.064e+01 7.107e+00 7.015e+00
96 1 1.062e+01 8.760e+00 8.777e+00
97 1 7.077e+00 1.056e+01 7.006e+00
99 1 1.055e+01 1.049e+01 7.000e+00
98 1 8.835e+00 1.040e+01 8.772e+00
83 1 7.166e+00 1.707e+00 8.842e+00
101 1 7.058e+00 3.474e+00 1.051e+01
84 1 1.055e+01 1.660e+00 8.848e+00
100 1 8.854e+00 1.694e+00 1.049e+01
102 1 8.787e+00 5.299e+00 1.054e+01
90 1 1.056e+01 5.383e+00 8.811e+00
103 1 1.053e+01 3.590e+00 1.049e+01
104 1 7.172e+00 7.027e+00 1.061e+01
93 1 8.810e+00 7.106e+00 8.811e+00
106 1 1.050e+01 7.028e+00 1.057e+01
94 1 7.035e+00 8.812e+00 8.868e+00
107 1 7.040e+00 1.061e+01 1.054e+01
105 1 8.820e+00 8.810e+00 1.060e+01
108 1 1.063e+01 1.053e+01 1.064e+01
ITEM: TIMESTEP
4000
ITEM: NUMBER OF ATOMS
109
ITEM: BOX BOUNDS pp pp pp
8.8000000000000000e-01 1.1440000000000000e+01
8.8000000000000000e-01 1.1440000000000000e+01
8.8000000000000000e-01 1.1440000000000000e+01
ITEM: ATOMS id type x y z
2 1 1.866e+00 3.488e+00 1.760e+00
10 1 1.828e+00 1.726e+00 3.515e+00
1 1 3.540e+00 1.697e+00 1.795e+00
3 1 5.250e+00 3.462e+00 1.733e+00
13 1 1.711e+00 5.241e+00 3.467e+00
4 1 3.630e+00 5.152e+00 1.830e+00
16 1 5.357e+00 5.172e+00 3.421e+00
5 1 1.885e+00 6.968e+00 1.772e+00
19 1 1.801e+00 8.677e+00 3.414e+00
6 1 5.335e+00 6.883e+00 1.635e+00
7 1 3.613e+00 8.767e+00 1.621e+00
21 1 3.592e+00 7.100e+00 3.464e+00
8 1 1.642e+00 1.053e+01 1.722e+00
26 1 3.477e+00 1.059e+01 3.399e+00
9 1 5.310e+00 1.073e+01 1.737e+00
22 1 5.303e+00 8.922e+00 3.167e+00
14 1 1.739e+00 3.512e+00 5.306e+00
12 1 3.462e+00 1.737e+00 5.370e+00
11 1 5.193e+00 1.901e+00 3.564e+00
15 1 3.562e+00 3.481e+00 3.556e+00
18 1 3.371e+00 5.227e+00 5.280e+00
17 1 5.349e+00 3.533e+00 5.372e+00
20 1 1.711e+00 6.963e+00 5.141e+00
109 1 5.336e+00 6.393e+00 5.395e+00
23 1 5.163e+00 8.520e+00 5.239e+00
25 1 1.593e+00 1.053e+01 5.239e+00
24 1 3.049e+00 8.805e+00 5.273e+00
27 1 5.218e+00 1.077e+01 5.282e+00
28 1 1.838e+00 1.715e+00 7.140e+00
29 1 5.225e+00 1.813e+00 7.120e+00
33 1 3.369e+00 3.577e+00 7.035e+00
31 1 1.639e+00 5.305e+00 6.971e+00
36 1 3.504e+00 5.188e+00 8.782e+00
34 1 5.288e+00 5.016e+00 7.217e+00
39 1 3.501e+00 6.935e+00 6.892e+00
37 1 1.621e+00 8.769e+00 7.135e+00
42 1 3.457e+00 8.623e+00 8.786e+00
44 1 3.585e+00 1.048e+01 7.109e+00
40 1 5.392e+00 8.903e+00 7.357e+00
30 1 3.513e+00 1.818e+00 8.824e+00
32 1 1.639e+00 3.465e+00 8.877e+00
46 1 1.722e+00 1.691e+00 1.058e+01
49 1 3.442e+00 3.493e+00 1.053e+01
35 1 5.272e+00 3.329e+00 8.844e+00
47 1 5.236e+00 1.807e+00 1.058e+01
48 1 1.788e+00 5.255e+00 1.069e+01
50 1 5.257e+00 5.039e+00 1.050e+01
38 1 1.733e+00 6.954e+00 8.808e+00
52 1 3.482e+00 6.944e+00 1.051e+01
51 1 1.738e+00 8.786e+00 1.051e+01
41 1 5.317e+00 7.025e+00 8.880e+00
43 1 1.738e+00 1.056e+01 8.803e+00
54 1 3.512e+00 1.059e+01 1.059e+01
45 1 5.245e+00 1.070e+01 8.914e+00
53 1 5.215e+00 8.873e+00 1.048e+01
55 1 7.050e+00 1.800e+00 1.756e+00
57 1 8.889e+00 3.425e+00 1.735e+00
56 1 1.069e+01 1.793e+00 1.794e+00
58 1 7.069e+00 5.314e+00 1.723e+00
68 1 8.735e+00 5.322e+00 3.427e+00
71 1 1.060e+01 3.539e+00 3.431e+00
59 1 1.052e+01 5.292e+00 1.702e+00
61 1 7.042e+00 8.797e+00 1.571e+00
74 1 8.654e+00 8.786e+00 3.348e+00
60 1 8.790e+00 7.033e+00 1.731e+00
73 1 6.927e+00 7.011e+00 3.487e+00
77 1 1.046e+01 7.108e+00 3.365e+00
62 1 1.058e+01 8.820e+00 1.724e+00
63 1 8.885e+00 1.063e+01 1.815e+00
67 1 7.123e+00 3.484e+00 3.536e+00
65 1 7.150e+00 1.866e+00 5.297e+00
64 1 8.879e+00 1.613e+00 3.579e+00
66 1 1.056e+01 1.757e+00 5.275e+00
69 1 8.920e+00 3.491e+00 5.246e+00
70 1 7.218e+00 5.135e+00 5.359e+00
72 1 1.054e+01 5.372e+00 5.102e+00
75 1 8.729e+00 7.065e+00 5.337e+00
78 1 1.046e+01 8.679e+00 5.323e+00
79 1 7.022e+00 1.060e+01 3.532e+00
76 1 7.270e+00 8.832e+00 5.237e+00
81 1 1.056e+01 1.042e+01 3.564e+00
80 1 8.872e+00 1.053e+01 5.329e+00
85 1 7.125e+00 3.448e+00 7.206e+00
82 1 8.823e+00 1.761e+00 7.054e+00
89 1 1.062e+01 3.364e+00 7.031e+00
86 1 8.820e+00 5.222e+00 7.094e+00
90 1 1.048e+01 5.195e+00 8.800e+00
91 1 7.007e+00 7.037e+00 7.060e+00
95 1 1.054e+01 7.006e+00 7.072e+00
93 1 8.811e+00 6.976e+00 8.800e+00
97 1 7.053e+00 1.057e+01 7.102e+00
92 1 8.823e+00 8.818e+00 7.093e+00
96 1 1.055e+01 8.829e+00 8.776e+00
99 1 1.059e+01 1.056e+01 7.029e+00
83 1 7.044e+00 1.690e+00 8.884e+00
101 1 7.149e+00 3.382e+00 1.054e+01
87 1 8.823e+00 3.441e+00 8.856e+00
84 1 1.058e+01 1.686e+00 8.815e+00
100 1 8.908e+00 1.704e+00 1.065e+01
88 1 7.095e+00 5.175e+00 8.861e+00
102 1 8.778e+00 5.208e+00 1.061e+01
103 1 1.065e+01 3.557e+00 1.055e+01
104 1 7.047e+00 6.871e+00 1.054e+01
94 1 7.078e+00 8.772e+00 8.952e+00
106 1 1.055e+01 7.088e+00 1.051e+01
105 1 8.810e+00 8.703e+00 1.050e+01
107 1 7.067e+00 1.068e+01 1.052e+01
98 1 8.839e+00 1.060e+01 8.869e+00
108 1 1.054e+01 1.056e+01 1.055e+01
ITEM: TIMESTEP
5000
ITEM: NUMBER OF ATOMS
109
ITEM: BOX BOUNDS pp pp pp
8.8000000000000000e-01 1.1440000000000000e+01
8.8000000000000000e-01 1.1440000000000000e+01
8.8000000000000000e-01 1.1440000000000000e+01
ITEM: ATOMS id type x y z
1 1 3.511e+00 1.779e+00 1.672e+00
3 1 5.173e+00 3.477e+00 1.674e+00
2 1 1.676e+00 3.535e+00 1.824e+00
13 1 1.645e+00 5.278e+00 3.482e+00
4 1 3.381e+00 5.203e+00 1.842e+00
15 1 3.424e+00 3.532e+00 3.507e+00
16 1 5.153e+00 5.205e+00 3.316e+00
5 1 1.721e+00 7.001e+00 1.694e+00
19 1 1.751e+00 8.706e+00 3.332e+00
6 1 5.349e+00 6.982e+00 1.772e+00
8 1 1.818e+00 1.055e+01 1.780e+00
7 1 3.523e+00 8.844e+00 1.686e+00
26 1 3.559e+00 1.055e+01 3.502e+00
9 1 5.279e+00 1.070e+01 1.561e+00
22 1 5.307e+00 9.072e+00 3.124e+00
10 1 1.733e+00 1.746e+00 3.547e+00
14 1 1.705e+00 3.433e+00 5.292e+00
12 1 3.491e+00 1.704e+00 5.291e+00
11 1 5.338e+00 1.904e+00 3.559e+00
18 1 3.204e+00 5.113e+00 5.290e+00
17 1 5.277e+00 3.590e+00 5.349e+00
109 1 5.152e+00 6.109e+00 5.397e+00
20 1 1.746e+00 7.007e+00 5.348e+00
21 1 3.555e+00 7.013e+00 3.588e+00
23 1 5.170e+00 8.216e+00 5.095e+00
25 1 1.673e+00 1.058e+01 5.276e+00
24 1 3.220e+00 8.956e+00 5.220e+00
27 1 5.329e+00 1.061e+01 5.270e+00
28 1 1.845e+00 1.675e+00 7.014e+00
29 1 5.261e+00 1.821e+00 7.014e+00
33 1 3.545e+00 3.514e+00 7.056e+00
31 1 1.638e+00 5.231e+00 7.015e+00
34 1 5.348e+00 5.012e+00 7.259e+00
37 1 1.786e+00 8.776e+00 7.132e+00
39 1 3.600e+00 7.007e+00 7.072e+00
42 1 3.517e+00 8.823e+00 8.775e+00
44 1 3.520e+00 1.048e+01 6.971e+00
40 1 5.279e+00 8.901e+00 7.254e+00
30 1 3.462e+00 1.848e+00 8.816e+00
46 1 1.692e+00 1.801e+00 1.054e+01
49 1 3.488e+00 3.510e+00 1.059e+01
35 1 5.324e+00 3.344e+00 8.852e+00
47 1 5.320e+00 1.807e+00 1.053e+01
32 1 1.723e+00 3.609e+00 8.847e+00
48 1 1.735e+00 5.276e+00 1.057e+01
36 1 3.550e+00 5.308e+00 8.806e+00
50 1 5.277e+00 5.232e+00 1.061e+01
38 1 1.746e+00 6.963e+00 8.807e+00
52 1 3.470e+00 7.021e+00 1.054e+01
41 1 5.286e+00 6.914e+00 8.869e+00
53 1 5.411e+00 8.750e+00 1.054e+01
51 1 1.721e+00 8.841e+00 1.054e+01
43 1 1.779e+00 1.064e+01 8.801e+00
54 1 3.542e+00 1.063e+01 1.042e+01
45 1 5.358e+00 1.060e+01 8.862e+00
55 1 7.065e+00 1.765e+00 1.707e+00
57 1 8.788e+00 3.497e+00 1.757e+00
56 1 1.053e+01 1.745e+00 1.751e+00
71 1 1.050e+01 3.424e+00 3.519e+00
58 1 7.086e+00 5.222e+00 1.791e+00
67 1 6.922e+00 3.585e+00 3.489e+00
59 1 1.055e+01 5.301e+00 1.670e+00
61 1 7.157e+00 8.654e+00 1.722e+00
60 1 8.814e+00 6.982e+00 1.876e+00
62 1 1.048e+01 8.778e+00 1.735e+00
63 1 8.792e+00 1.054e+01 1.752e+00
79 1 6.999e+00 1.053e+01 3.507e+00
74 1 8.827e+00 8.809e+00 3.513e+00
65 1 7.075e+00 1.739e+00 5.349e+00
64 1 8.721e+00 1.689e+00 3.533e+00
66 1 1.063e+01 1.753e+00 5.372e+00
69 1 8.843e+00 3.484e+00 5.391e+00
68 1 8.770e+00 5.302e+00 3.551e+00
70 1 7.189e+00 5.096e+00 5.253e+00
72 1 1.055e+01 5.242e+00 5.317e+00
73 1 6.869e+00 7.016e+00 3.715e+00
75 1 8.791e+00 7.044e+00 5.291e+00
77 1 1.048e+01 7.086e+00 3.680e+00
78 1 1.067e+01 8.780e+00 5.330e+00
76 1 7.281e+00 8.872e+00 5.236e+00
81 1 1.049e+01 1.047e+01 3.537e+00
80 1 8.939e+00 1.064e+01 5.267e+00
85 1 7.056e+00 3.461e+00 7.072e+00
83 1 7.141e+00 1.714e+00 8.710e+00
82 1 8.853e+00 1.696e+00 7.073e+00
89 1 1.061e+01 3.435e+00 7.008e+00
84 1 1.058e+01 1.701e+00 8.773e+00
86 1 8.871e+00 5.198e+00 7.100e+00
91 1 6.880e+00 6.972e+00 6.858e+00
92 1 8.766e+00 8.779e+00 7.025e+00
95 1 1.059e+01 6.991e+00 7.033e+00
93 1 8.903e+00 7.012e+00 8.800e+00
96 1 1.063e+01 8.758e+00 8.754e+00
97 1 7.057e+00 1.054e+01 7.018e+00
99 1 1.061e+01 1.055e+01 7.045e+00
87 1 8.877e+00 3.403e+00 8.913e+00
100 1 8.865e+00 1.663e+00 1.057e+01
101 1 7.068e+00 3.569e+00 1.060e+01
88 1 7.224e+00 5.262e+00 8.819e+00
102 1 8.785e+00 5.236e+00 1.059e+01
90 1 1.054e+01 5.362e+00 8.854e+00
103 1 1.060e+01 3.579e+00 1.052e+01
104 1 7.080e+00 7.009e+00 1.052e+01
94 1 7.119e+00 8.690e+00 8.801e+00
105 1 8.796e+00 8.756e+00 1.058e+01
106 1 1.063e+01 7.025e+00 1.053e+01
107 1 7.054e+00 1.057e+01 1.052e+01
98 1 8.837e+00 1.044e+01 8.852e+00
108 1 1.063e+01 1.043e+01 1.062e+01
ITEM: TIMESTEP
6000
ITEM: NUMBER OF ATOMS
109
ITEM: BOX BOUNDS pp pp pp
8.8000000000000000e-01 1.1440000000000000e+01
8.8000000000000000e-01 1.1440000000000000e+01
8.8000000000000000e-01 1.1440000000000000e+01
ITEM: ATOMS id type x y z
1 1 3.434e+00 1.668e+00 1.624e+00
10 1 1.758e+00 1.742e+00 3.447e+00
3 1 5.312e+00 3.465e+00 1.628e+00
15 1 3.609e+00 3.438e+00 3.500e+00
11 1 5.305e+00 1.862e+00 3.413e+00
2 1 1.785e+00 3.584e+00 1.770e+00
13 1 1.719e+00 5.311e+00 3.502e+00
4 1 3.465e+00 5.411e+00 1.711e+00
16 1 5.210e+00 5.036e+00 3.239e+00
5 1 1.763e+00 7.077e+00 1.846e+00
7 1 3.464e+00 8.771e+00 1.752e+00
6 1 5.326e+00 6.968e+00 1.835e+00
8 1 1.809e+00 1.045e+01 1.830e+00
9 1 5.353e+00 1.053e+01 1.661e+00
22 1 5.249e+00 8.927e+00 3.265e+00
14 1 1.711e+00 3.419e+00 5.239e+00
12 1 3.633e+00 1.700e+00 5.251e+00
18 1 3.251e+00 5.093e+00 5.136e+00
17 1 5.252e+00 3.536e+00 5.309e+00
109 1 5.257e+00 5.963e+00 5.335e+00
19 1 1.706e+00 8.759e+00 3.533e+00
20 1 1.774e+00 6.988e+00 5.252e+00
21 1 3.575e+00 7.059e+00 3.683e+00
23 1 5.389e+00 8.034e+00 5.217e+00
25 1 1.736e+00 1.063e+01 5.195e+00
24 1 3.352e+00 8.957e+00 5.273e+00
26 1 3.599e+00 1.061e+01 3.537e+00
27 1 5.349e+00 1.049e+01 5.266e+00
28 1 1.660e+00 1.666e+00 7.040e+00
33 1 3.381e+00 3.472e+00 6.986e+00
29 1 5.210e+00 1.780e+00 7.158e+00
31 1 1.760e+00 5.297e+00 7.018e+00
32 1 1.796e+00 3.573e+00 8.785e+00
34 1 5.253e+00 5.055e+00 7.406e+00
38 1 1.894e+00 7.036e+00 8.705e+00
39 1 3.613e+00 6.967e+00 6.930e+00
41 1 5.202e+00 6.962e+00 8.795e+00
37 1 1.720e+00 8.804e+00 7.046e+00
44 1 3.505e+00 1.054e+01 7.066e+00
40 1 5.172e+00 8.883e+00 7.253e+00
30 1 3.472e+00 1.715e+00 8.826e+00
46 1 1.765e+00 1.767e+00 1.051e+01
35 1 5.256e+00 3.417e+00 8.946e+00
47 1 5.255e+00 1.716e+00 1.058e+01
49 1 3.509e+00 3.569e+00 1.062e+01
48 1 1.799e+00 5.298e+00 1.066e+01
36 1 3.470e+00 5.247e+00 8.833e+00
50 1 5.273e+00 5.285e+00 1.057e+01
51 1 1.809e+00 8.763e+00 1.057e+01
42 1 3.581e+00 8.725e+00 8.842e+00
52 1 3.540e+00 7.079e+00 1.062e+01
53 1 5.265e+00 8.695e+00 1.065e+01
43 1 1.741e+00 1.056e+01 8.872e+00
54 1 3.528e+00 1.051e+01 1.058e+01
45 1 5.251e+00 1.054e+01 8.931e+00
55 1 7.074e+00 1.744e+00 1.732e+00
64 1 8.748e+00 1.763e+00 3.452e+00
56 1 1.056e+01 1.717e+00 1.679e+00
58 1 7.157e+00 5.357e+00 1.800e+00
67 1 7.043e+00 3.530e+00 3.501e+00
68 1 8.777e+00 5.269e+00 3.463e+00
57 1 8.844e+00 3.557e+00 1.714e+00
71 1 1.051e+01 3.609e+00 3.480e+00
59 1 1.058e+01 5.332e+00 1.769e+00
61 1 7.106e+00 8.763e+00 1.700e+00
60 1 8.867e+00 7.069e+00 1.842e+00
62 1 1.062e+01 8.735e+00 1.823e+00
79 1 7.023e+00 1.052e+01 3.418e+00
63 1 8.848e+00 1.058e+01 1.720e+00
81 1 1.054e+01 1.060e+01 3.465e+00
65 1 7.019e+00 1.730e+00 5.277e+00
66 1 1.060e+01 1.783e+00 5.143e+00
69 1 8.874e+00 3.406e+00 5.209e+00
70 1 7.329e+00 5.151e+00 5.237e+00
72 1 1.052e+01 5.251e+00 5.226e+00
73 1 6.941e+00 7.067e+00 3.624e+00
75 1 8.766e+00 7.083e+00 5.283e+00
77 1 1.061e+01 6.980e+00 3.582e+00
76 1 7.297e+00 9.047e+00 5.276e+00
74 1 8.836e+00 8.813e+00 3.544e+00
78 1 1.057e+01 8.850e+00 5.291e+00
80 1 8.803e+00 1.068e+01 5.217e+00
85 1 7.116e+00 3.492e+00 6.993e+00
83 1 7.050e+00 1.779e+00 8.705e+00
82 1 8.868e+00 1.720e+00 7.099e+00
89 1 1.056e+01 3.357e+00 7.069e+00
86 1 8.810e+00 5.307e+00 7.096e+00
90 1 1.053e+01 5.358e+00 8.722e+00
91 1 6.895e+00 7.032e+00 6.972e+00
92 1 8.815e+00 8.765e+00 7.147e+00
95 1 1.059e+01 7.024e+00 7.059e+00
97 1 6.891e+00 1.056e+01 7.056e+00
99 1 1.048e+01 1.042e+01 7.084e+00
100 1 8.745e+00 1.693e+00 1.059e+01
84 1 1.055e+01 1.722e+00 8.823e+00
87 1 8.817e+00 3.501e+00 8.809e+00
103 1 1.051e+01 3.501e+00 1.063e+01
101 1 7.005e+00 3.527e+00 1.054e+01
88 1 7.069e+00 5.190e+00 8.902e+00
102 1 8.837e+00 5.317e+00 1.061e+01
93 1 8.770e+00 7.098e+00 8.853e+00
104 1 7.123e+00 6.945e+00 1.053e+01
105 1 8.790e+00 8.799e+00 1.060e+01
96 1 1.063e+01 8.720e+00 8.862e+00
106 1 1.064e+01 7.007e+00 1.049e+01
94 1 6.890e+00 8.801e+00 8.892e+00
107 1 7.016e+00 1.054e+01 1.053e+01
98 1 8.750e+00 1.056e+01 8.843e+00
108 1 1.055e+01 1.045e+01 1.055e+01
ITEM: TIMESTEP
7000
ITEM: NUMBER OF ATOMS
109
ITEM: BOX BOUNDS pp pp pp
8.8000000000000000e-01 1.1440000000000000e+01
8.8000000000000000e-01 1.1440000000000000e+01
8.8000000000000000e-01 1.1440000000000000e+01
ITEM: ATOMS id type x y z
1 1 3.453e+00 1.788e+00 1.839e+00
10 1 1.616e+00 1.741e+00 3.476e+00
15 1 3.410e+00 3.465e+00 3.493e+00
2 1 1.813e+00 3.486e+00 1.773e+00
13 1 1.650e+00 5.291e+00 3.404e+00
4 1 3.483e+00 5.170e+00 1.675e+00
3 1 5.180e+00 3.528e+00 1.760e+00
16 1 5.315e+00 5.197e+00 3.330e+00
5 1 1.908e+00 6.919e+00 1.670e+00
7 1 3.408e+00 8.576e+00 1.798e+00
6 1 5.314e+00 7.027e+00 1.790e+00
8 1 1.822e+00 1.053e+01 1.809e+00
26 1 3.474e+00 1.061e+01 3.447e+00
9 1 5.174e+00 1.064e+01 1.735e+00
22 1 5.216e+00 8.929e+00 3.341e+00
14 1 1.637e+00 3.447e+00 5.298e+00
11 1 5.418e+00 1.786e+00 3.553e+00
12 1 3.634e+00 1.772e+00 5.336e+00
17 1 5.293e+00 3.419e+00 5.435e+00
18 1 3.152e+00 5.101e+00 5.235e+00
109 1 5.195e+00 5.720e+00 5.435e+00
19 1 1.750e+00 8.725e+00 3.569e+00
20 1 1.699e+00 7.021e+00 5.282e+00
21 1 3.638e+00 6.956e+00 3.679e+00
23 1 5.300e+00 7.844e+00 5.306e+00
25 1 1.740e+00 1.064e+01 5.147e+00
24 1 3.319e+00 8.889e+00 5.254e+00
27 1 5.344e+00 1.056e+01 5.325e+00
28 1 1.695e+00 1.756e+00 7.098e+00
29 1 5.307e+00 1.628e+00 7.171e+00
30 1 3.571e+00 1.854e+00 8.786e+00
33 1 3.514e+00 3.578e+00 7.100e+00
31 1 1.656e+00 5.265e+00 7.056e+00
34 1 5.316e+00 5.063e+00 7.505e+00
39 1 3.529e+00 6.916e+00 6.911e+00
41 1 5.309e+00 7.088e+00 8.744e+00
37 1 1.795e+00 8.879e+00 7.023e+00
44 1 3.441e+00 1.063e+01 7.065e+00
42 1 3.432e+00 8.817e+00 8.728e+00
40 1 5.175e+00 8.998e+00 7.190e+00