ITEM: TIMESTEP
0
ITEM: NUMBER OF ATOMS
865
ITEM: BOX BOUNDS pp pp pp
8.8000000000000000e-01 2.2000000000000000e+01
8.8000000000000000e-01 2.2000000000000000e+01
8.8000000000000000e-01 2.2000000000000000e+01
ITEM: ATOMS id type x y z
865 1 1.760e+00 1.760e+00 1.760e+00
1 1 3.520e+00 1.760e+00 1.760e+00
2 1 7.040e+00 1.760e+00 1.760e+00
3 1 1.056e+01 1.760e+00 1.760e+00
4 1 1.408e+01 1.760e+00 1.760e+00
5 1 1.760e+01 1.760e+00 1.760e+00
6 1 2.112e+01 1.760e+00 1.760e+00
7 1 1.760e+00 3.520e+00 1.760e+00
8 1 5.280e+00 3.520e+00 1.760e+00
9 1 3.520e+00 5.280e+00 1.760e+00
11 1 7.040e+00 5.280e+00 1.760e+00
10 1 8.800e+00 3.520e+00 1.760e+00
13 1 1.056e+01 5.280e+00 1.760e+00
12 1 1.232e+01 3.520e+00 1.760e+00
14 1 1.584e+01 3.520e+00 1.760e+00
15 1 1.408e+01 5.280e+00 1.760e+00
17 1 1.760e+01 5.280e+00 1.760e+00
16 1 1.936e+01 3.520e+00 1.760e+00
18 1 2.112e+01 5.280e+00 1.760e+00
19 1 1.760e+00 7.040e+00 1.760e+00
20 1 5.280e+00 7.040e+00 1.760e+00
22 1 8.800e+00 7.040e+00 1.760e+00
24 1 1.232e+01 7.040e+00 1.760e+00
26 1 1.584e+01 7.040e+00 1.760e+00
28 1 1.936e+01 7.040e+00 1.760e+00
31 1 1.760e+00 1.056e+01 1.760e+00
21 1 3.520e+00 8.800e+00 1.760e+00
32 1 5.280e+00 1.056e+01 1.760e+00
23 1 7.040e+00 8.800e+00 1.760e+00
25 1 1.056e+01 8.800e+00 1.760e+00
33 1 8.800e+00 1.056e+01 1.760e+00
34 1 1.232e+01 1.056e+01 1.760e+00
27 1 1.408e+01 8.800e+00 1.760e+00
35 1 1.584e+01 1.056e+01 1.760e+00
29 1 1.760e+01 8.800e+00 1.760e+00
30 1 2.112e+01 8.800e+00 1.760e+00
36 1 1.936e+01 1.056e+01 1.760e+00
37 1 1.760e+00 1.760e+00 3.520e+00
38 1 5.280e+00 1.760e+00 3.520e+00
39 1 3.520e+00 1.760e+00 5.280e+00
41 1 7.040e+00 1.760e+00 5.280e+00
40 1 8.800e+00 1.760e+00 3.520e+00
43 1 1.056e+01 1.760e+00 5.280e+00
42 1 1.232e+01 1.760e+00 3.520e+00
44 1 1.584e+01 1.760e+00 3.520e+00
45 1 1.408e+01 1.760e+00 5.280e+00
47 1 1.760e+01 1.760e+00 5.280e+00
46 1 1.936e+01 1.760e+00 3.520e+00
48 1 2.112e+01 1.760e+00 5.280e+00
49 1 1.760e+00 5.280e+00 3.520e+00
50 1 1.760e+00 3.520e+00 5.280e+00
51 1 3.520e+00 3.520e+00 3.520e+00
52 1 5.280e+00 5.280e+00 3.520e+00
53 1 5.280e+00 3.520e+00 5.280e+00
54 1 3.520e+00 5.280e+00 5.280e+00
55 1 7.040e+00 3.520e+00 3.520e+00
58 1 7.040e+00 5.280e+00 5.280e+00
56 1 8.800e+00 5.280e+00 3.520e+00
57 1 8.800e+00 3.520e+00 5.280e+00
59 1 1.056e+01 3.520e+00 3.520e+00
62 1 1.056e+01 5.280e+00 5.280e+00
60 1 1.232e+01 5.280e+00 3.520e+00
61 1 1.232e+01 3.520e+00 5.280e+00
63 1 1.408e+01 3.520e+00 3.520e+00
64 1 1.584e+01 5.280e+00 3.520e+00
65 1 1.584e+01 3.520e+00 5.280e+00
66 1 1.408e+01 5.280e+00 5.280e+00
67 1 1.760e+01 3.520e+00 3.520e+00
70 1 1.760e+01 5.280e+00 5.280e+00
68 1 1.936e+01 5.280e+00 3.520e+00
69 1 1.936e+01 3.520e+00 5.280e+00
71 1 2.112e+01 3.520e+00 3.520e+00
72 1 2.112e+01 5.280e+00 5.280e+00
74 1 1.760e+00 7.040e+00 5.280e+00
75 1 3.520e+00 7.040e+00 3.520e+00
77 1 5.280e+00 7.040e+00 5.280e+00
79 1 7.040e+00 7.040e+00 3.520e+00
81 1 8.800e+00 7.040e+00 5.280e+00
83 1 1.056e+01 7.040e+00 3.520e+00
85 1 1.232e+01 7.040e+00 5.280e+00
87 1 1.408e+01 7.040e+00 3.520e+00
89 1 1.584e+01 7.040e+00 5.280e+00
91 1 1.760e+01 7.040e+00 3.520e+00
93 1 1.936e+01 7.040e+00 5.280e+00
95 1 2.112e+01 7.040e+00 3.520e+00
73 1 1.760e+00 8.800e+00 3.520e+00
97 1 1.760e+00 1.056e+01 5.280e+00
76 1 5.280e+00 8.800e+00 3.520e+00
78 1 3.520e+00 8.800e+00 5.280e+00
98 1 3.520e+00 1.056e+01 3.520e+00
99 1 5.280e+00 1.056e+01 5.280e+00
82 1 7.040e+00 8.800e+00 5.280e+00
100 1 7.040e+00 1.056e+01 3.520e+00
80 1 8.800e+00 8.800e+00 3.520e+00
86 1 1.056e+01 8.800e+00 5.280e+00
101 1 8.800e+00 1.056e+01 5.280e+00
102 1 1.056e+01 1.056e+01 3.520e+00
84 1 1.232e+01 8.800e+00 3.520e+00
103 1 1.232e+01 1.056e+01 5.280e+00
88 1 1.584e+01 8.800e+00 3.520e+00
90 1 1.408e+01 8.800e+00 5.280e+00
104 1 1.408e+01 1.056e+01 3.520e+00
105 1 1.584e+01 1.056e+01 5.280e+00
94 1 1.760e+01 8.800e+00 5.280e+00
106 1 1.760e+01 1.056e+01 3.520e+00
92 1 1.936e+01 8.800e+00 3.520e+00
96 1 2.112e+01 8.800e+00 5.280e+00
107 1 1.936e+01 1.056e+01 5.280e+00
108 1 2.112e+01 1.056e+01 3.520e+00
109 1 1.760e+00 1.760e+00 7.040e+00
110 1 5.280e+00 1.760e+00 7.040e+00
112 1 8.800e+00 1.760e+00 7.040e+00
114 1 1.232e+01 1.760e+00 7.040e+00
116 1 1.584e+01 1.760e+00 7.040e+00
118 1 1.936e+01 1.760e+00 7.040e+00
121 1 1.760e+00 5.280e+00 7.040e+00
123 1 3.520e+00 3.520e+00 7.040e+00
124 1 5.280e+00 5.280e+00 7.040e+00
127 1 7.040e+00 3.520e+00 7.040e+00
128 1 8.800e+00 5.280e+00 7.040e+00
131 1 1.056e+01 3.520e+00 7.040e+00
132 1 1.232e+01 5.280e+00 7.040e+00
135 1 1.408e+01 3.520e+00 7.040e+00
136 1 1.584e+01 5.280e+00 7.040e+00
139 1 1.760e+01 3.520e+00 7.040e+00
140 1 1.936e+01 5.280e+00 7.040e+00
143 1 2.112e+01 3.520e+00 7.040e+00
147 1 3.520e+00 7.040e+00 7.040e+00
151 1 7.040e+00 7.040e+00 7.040e+00
155 1 1.056e+01 7.040e+00 7.040e+00
159 1 1.408e+01 7.040e+00 7.040e+00
163 1 1.760e+01 7.040e+00 7.040e+00
167 1 2.112e+01 7.040e+00 7.040e+00
145 1 1.760e+00 8.800e+00 7.040e+00
148 1 5.280e+00 8.800e+00 7.040e+00
170 1 3.520e+00 1.056e+01 7.040e+00
172 1 7.040e+00 1.056e+01 7.040e+00
152 1 8.800e+00 8.800e+00 7.040e+00
174 1 1.056e+01 1.056e+01 7.040e+00
156 1 1.232e+01 8.800e+00 7.040e+00
160 1 1.584e+01 8.800e+00 7.040e+00
176 1 1.408e+01 1.056e+01 7.040e+00
178 1 1.760e+01 1.056e+01 7.040e+00
164 1 1.936e+01 8.800e+00 7.040e+00
180 1 2.112e+01 1.056e+01 7.040e+00
181 1 1.760e+00 1.760e+00 1.056e+01
111 1 3.520e+00 1.760e+00 8.800e+00
182 1 5.280e+00 1.760e+00 1.056e+01
113 1 7.040e+00 1.760e+00 8.800e+00
115 1 1.056e+01 1.760e+00 8.800e+00
183 1 8.800e+00 1.760e+00 1.056e+01
184 1 1.232e+01 1.760e+00 1.056e+01
117 1 1.408e+01 1.760e+00 8.800e+00
185 1 1.584e+01 1.760e+00 1.056e+01
119 1 1.760e+01 1.760e+00 8.800e+00
120 1 2.112e+01 1.760e+00 8.800e+00
186 1 1.936e+01 1.760e+00 1.056e+01
122 1 1.760e+00 3.520e+00 8.800e+00
187 1 1.760e+00 5.280e+00 1.056e+01
125 1 5.280e+00 3.520e+00 8.800e+00
126 1 3.520e+00 5.280e+00 8.800e+00
188 1 3.520e+00 3.520e+00 1.056e+01
189 1 5.280e+00 5.280e+00 1.056e+01
130 1 7.040e+00 5.280e+00 8.800e+00
190 1 7.040e+00 3.520e+00 1.056e+01
129 1 8.800e+00 3.520e+00 8.800e+00
134 1 1.056e+01 5.280e+00 8.800e+00
191 1 8.800e+00 5.280e+00 1.056e+01
192 1 1.056e+01 3.520e+00 1.056e+01
133 1 1.232e+01 3.520e+00 8.800e+00
193 1 1.232e+01 5.280e+00 1.056e+01
137 1 1.584e+01 3.520e+00 8.800e+00
138 1 1.408e+01 5.280e+00 8.800e+00
194 1 1.408e+01 3.520e+00 1.056e+01
195 1 1.584e+01 5.280e+00 1.056e+01
142 1 1.760e+01 5.280e+00 8.800e+00
196 1 1.760e+01 3.520e+00 1.056e+01
141 1 1.936e+01 3.520e+00 8.800e+00
144 1 2.112e+01 5.280e+00 8.800e+00
197 1 1.936e+01 5.280e+00 1.056e+01
198 1 2.112e+01 3.520e+00 1.056e+01
146 1 1.760e+00 7.040e+00 8.800e+00
149 1 5.280e+00 7.040e+00 8.800e+00
200 1 3.520e+00 7.040e+00 1.056e+01
202 1 7.040e+00 7.040e+00 1.056e+01
153 1 8.800e+00 7.040e+00 8.800e+00
204 1 1.056e+01 7.040e+00 1.056e+01
157 1 1.232e+01 7.040e+00 8.800e+00
161 1 1.584e+01 7.040e+00 8.800e+00
206 1 1.408e+01 7.040e+00 1.056e+01
208 1 1.760e+01 7.040e+00 1.056e+01
165 1 1.936e+01 7.040e+00 8.800e+00
210 1 2.112e+01 7.040e+00 1.056e+01
169 1 1.760e+00 1.056e+01 8.800e+00
199 1 1.760e+00 8.800e+00 1.056e+01
150 1 3.520e+00 8.800e+00 8.800e+00
171 1 5.280e+00 1.056e+01 8.800e+00
201 1 5.280e+00 8.800e+00 1.056e+01
211 1 3.520e+00 1.056e+01 1.056e+01
154 1 7.040e+00 8.800e+00 8.800e+00
212 1 7.040e+00 1.056e+01 1.056e+01
158 1 1.056e+01 8.800e+00 8.800e+00
173 1 8.800e+00 1.056e+01 8.800e+00
203 1 8.800e+00 8.800e+00 1.056e+01
213 1 1.056e+01 1.056e+01 1.056e+01
175 1 1.232e+01 1.056e+01 8.800e+00
205 1 1.232e+01 8.800e+00 1.056e+01
162 1 1.408e+01 8.800e+00 8.800e+00
177 1 1.584e+01 1.056e+01 8.800e+00
207 1 1.584e+01 8.800e+00 1.056e+01
214 1 1.408e+01 1.056e+01 1.056e+01
166 1 1.760e+01 8.800e+00 8.800e+00
215 1 1.760e+01 1.056e+01 1.056e+01
168 1 2.112e+01 8.800e+00 8.800e+00
179 1 1.936e+01 1.056e+01 8.800e+00
209 1 1.936e+01 8.800e+00 1.056e+01
216 1 2.112e+01 1.056e+01 1.056e+01
253 1 1.760e+00 1.760e+00 1.408e+01
217 1 3.520e+00 1.760e+00 1.232e+01
254 1 5.280e+00 1.760e+00 1.408e+01
218 1 7.040e+00 1.760e+00 1.232e+01
219 1 1.056e+01 1.760e+00 1.232e+01
256 1 8.800e+00 1.760e+00 1.408e+01
258 1 1.232e+01 1.760e+00 1.408e+01
220 1 1.408e+01 1.760e+00 1.232e+01
260 1 1.584e+01 1.760e+00 1.408e+01
221 1 1.760e+01 1.760e+00 1.232e+01
222 1 2.112e+01 1.760e+00 1.232e+01
262 1 1.936e+01 1.760e+00 1.408e+01
223 1 1.760e+00 3.520e+00 1.232e+01
265 1 1.760e+00 5.280e+00 1.408e+01
224 1 5.280e+00 3.520e+00 1.232e+01
225 1 3.520e+00 5.280e+00 1.232e+01
267 1 3.520e+00 3.520e+00 1.408e+01
268 1 5.280e+00 5.280e+00 1.408e+01
227 1 7.040e+00 5.280e+00 1.232e+01
271 1 7.040e+00 3.520e+00 1.408e+01
226 1 8.800e+00 3.520e+00 1.232e+01
229 1 1.056e+01 5.280e+00 1.232e+01
272 1 8.800e+00 5.280e+00 1.408e+01
275 1 1.056e+01 3.520e+00 1.408e+01
228 1 1.232e+01 3.520e+00 1.232e+01
276 1 1.232e+01 5.280e+00 1.408e+01
230 1 1.584e+01 3.520e+00 1.232e+01
231 1 1.408e+01 5.280e+00 1.232e+01
279 1 1.408e+01 3.520e+00 1.408e+01
280 1 1.584e+01 5.280e+00 1.408e+01
233 1 1.760e+01 5.280e+00 1.232e+01
283 1 1.760e+01 3.520e+00 1.408e+01
232 1 1.936e+01 3.520e+00 1.232e+01
234 1 2.112e+01 5.280e+00 1.232e+01
284 1 1.936e+01 5.280e+00 1.408e+01
287 1 2.112e+01 3.520e+00 1.408e+01
235 1 1.760e+00 7.040e+00 1.232e+01
236 1 5.280e+00 7.040e+00 1.232e+01
291 1 3.520e+00 7.040e+00 1.408e+01
295 1 7.040e+00 7.040e+00 1.408e+01
238 1 8.800e+00 7.040e+00 1.232e+01
299 1 1.056e+01 7.040e+00 1.408e+01
240 1 1.232e+01 7.040e+00 1.232e+01
242 1 1.584e+01 7.040e+00 1.232e+01
303 1 1.408e+01 7.040e+00 1.408e+01
307 1 1.760e+01 7.040e+00 1.408e+01
244 1 1.936e+01 7.040e+00 1.232e+01
311 1 2.112e+01 7.040e+00 1.408e+01
247 1 1.760e+00 1.056e+01 1.232e+01
289 1 1.760e+00 8.800e+00 1.408e+01
237 1 3.520e+00 8.800e+00 1.232e+01
248 1 5.280e+00 1.056e+01 1.232e+01
292 1 5.280e+00 8.800e+00 1.408e+01
314 1 3.520e+00 1.056e+01 1.408e+01
239 1 7.040e+00 8.800e+00 1.232e+01
316 1 7.040e+00 1.056e+01 1.408e+01
241 1 1.056e+01 8.800e+00 1.232e+01
249 1 8.800e+00 1.056e+01 1.232e+01
296 1 8.800e+00 8.800e+00 1.408e+01
318 1 1.056e+01 1.056e+01 1.408e+01
250 1 1.232e+01 1.056e+01 1.232e+01
300 1 1.232e+01 8.800e+00 1.408e+01
243 1 1.408e+01 8.800e+00 1.232e+01
251 1 1.584e+01 1.056e+01 1.232e+01
304 1 1.584e+01 8.800e+00 1.408e+01
320 1 1.408e+01 1.056e+01 1.408e+01
245 1 1.760e+01 8.800e+00 1.232e+01
322 1 1.760e+01 1.056e+01 1.408e+01
246 1 2.112e+01 8.800e+00 1.232e+01
252 1 1.936e+01 1.056e+01 1.232e+01
308 1 1.936e+01 8.800e+00 1.408e+01
324 1 2.112e+01 1.056e+01 1.408e+01
255 1 3.520e+00 1.760e+00 1.584e+01
257 1 7.040e+00 1.760e+00 1.584e+01
259 1 1.056e+01 1.760e+00 1.584e+01
261 1 1.408e+01 1.760e+00 1.584e+01
263 1 1.760e+01 1.760e+00 1.584e+01
264 1 2.112e+01 1.760e+00 1.584e+01
266 1 1.760e+00 3.520e+00 1.584e+01
269 1 5.280e+00 3.520e+00 1.584e+01
270 1 3.520e+00 5.280e+00 1.584e+01
274 1 7.040e+00 5.280e+00 1.584e+01
273 1 8.800e+00 3.520e+00 1.584e+01
278 1 1.056e+01 5.280e+00 1.584e+01
277 1 1.232e+01 3.520e+00 1.584e+01
281 1 1.584e+01 3.520e+00 1.584e+01
282 1 1.408e+01 5.280e+00 1.584e+01
286 1 1.760e+01 5.280e+00 1.584e+01
285 1 1.936e+01 3.520e+00 1.584e+01
288 1 2.112e+01 5.280e+00 1.584e+01
290 1 1.760e+00 7.040e+00 1.584e+01
293 1 5.280e+00 7.040e+00 1.584e+01
297 1 8.800e+00 7.040e+00 1.584e+01
301 1 1.232e+01 7.040e+00 1.584e+01
305 1 1.584e+01 7.040e+00 1.584e+01
309 1 1.936e+01 7.040e+00 1.584e+01
313 1 1.760e+00 1.056e+01 1.584e+01
294 1 3.520e+00 8.800e+00 1.584e+01
315 1 5.280e+00 1.056e+01 1.584e+01
298 1 7.040e+00 8.800e+00 1.584e+01
302 1 1.056e+01 8.800e+00 1.584e+01
317 1 8.800e+00 1.056e+01 1.584e+01
319 1 1.232e+01 1.056e+01 1.584e+01
306 1 1.408e+01 8.800e+00 1.584e+01
321 1 1.584e+01 1.056e+01 1.584e+01
310 1 1.760e+01 8.800e+00 1.584e+01
312 1 2.112e+01 8.800e+00 1.584e+01
323 1 1.936e+01 1.056e+01 1.584e+01
325 1 1.760e+00 1.760e+00 1.760e+01
326 1 5.280e+00 1.760e+00 1.760e+01
327 1 3.520e+00 1.760e+00 1.936e+01
329 1 7.040e+00 1.760e+00 1.936e+01
328 1 8.800e+00 1.760e+00 1.760e+01
331 1 1.056e+01 1.760e+00 1.936e+01
330 1 1.232e+01 1.760e+00 1.760e+01
332 1 1.584e+01 1.760e+00 1.760e+01
333 1 1.408e+01 1.760e+00 1.936e+01
335 1 1.760e+01 1.760e+00 1.936e+01
334 1 1.936e+01 1.760e+00 1.760e+01
336 1 2.112e+01 1.760e+00 1.936e+01
337 1 1.760e+00 5.280e+00 1.760e+01
338 1 1.760e+00 3.520e+00 1.936e+01
339 1 3.520e+00 3.520e+00 1.760e+01
340 1 5.280e+00 5.280e+00 1.760e+01
341 1 5.280e+00 3.520e+00 1.936e+01
342 1 3.520e+00 5.280e+00 1.936e+01
343 1 7.040e+00 3.520e+00 1.760e+01
346 1 7.040e+00 5.280e+00 1.936e+01
344 1 8.800e+00 5.280e+00 1.760e+01
345 1 8.800e+00 3.520e+00 1.936e+01
347 1 1.056e+01 3.520e+00 1.760e+01
350 1 1.056e+01 5.280e+00 1.936e+01
348 1 1.232e+01 5.280e+00 1.760e+01
349 1 1.232e+01 3.520e+00 1.936e+01
351 1 1.408e+01 3.520e+00 1.760e+01
352 1 1.584e+01 5.280e+00 1.760e+01
353 1 1.584e+01 3.520e+00 1.936e+01
354 1 1.408e+01 5.280e+00 1.936e+01
355 1 1.760e+01 3.520e+00 1.760e+01
358 1 1.760e+01 5.280e+00 1.936e+01
356 1 1.936e+01 5.280e+00 1.760e+01
357 1 1.936e+01 3.520e+00 1.936e+01
359 1 2.112e+01 3.520e+00 1.760e+01
360 1 2.112e+01 5.280e+00 1.936e+01
362 1 1.760e+00 7.040e+00 1.936e+01
363 1 3.520e+00 7.040e+00 1.760e+01
365 1 5.280e+00 7.040e+00 1.936e+01
367 1 7.040e+00 7.040e+00 1.760e+01
369 1 8.800e+00 7.040e+00 1.936e+01
371 1 1.056e+01 7.040e+00 1.760e+01
373 1 1.232e+01 7.040e+00 1.936e+01
375 1 1.408e+01 7.040e+00 1.760e+01
377 1 1.584e+01 7.040e+00 1.936e+01
379 1 1.760e+01 7.040e+00 1.760e+01
381 1 1.936e+01 7.040e+00 1.936e+01
383 1 2.112e+01 7.040e+00 1.760e+01
361 1 1.760e+00 8.800e+00 1.760e+01
385 1 1.760e+00 1.056e+01 1.936e+01
364 1 5.280e+00 8.800e+00 1.760e+01
366 1 3.520e+00 8.800e+00 1.936e+01
386 1 3.520e+00 1.056e+01 1.760e+01
387 1 5.280e+00 1.056e+01 1.936e+01
370 1 7.040e+00 8.800e+00 1.936e+01
388 1 7.040e+00 1.056e+01 1.760e+01
368 1 8.800e+00 8.800e+00 1.760e+01
374 1 1.056e+01 8.800e+00 1.936e+01
389 1 8.800e+00 1.056e+01 1.936e+01
390 1 1.056e+01 1.056e+01 1.760e+01
372 1 1.232e+01 8.800e+00 1.760e+01
391 1 1.232e+01 1.056e+01 1.936e+01
376 1 1.584e+01 8.800e+00 1.760e+01
378 1 1.408e+01 8.800e+00 1.936e+01
392 1 1.408e+01 1.056e+01 1.760e+01
393 1 1.584e+01 1.056e+01 1.936e+01
382 1 1.760e+01 8.800e+00 1.936e+01
394 1 1.760e+01 1.056e+01 1.760e+01
380 1 1.936e+01 8.800e+00 1.760e+01
384 1 2.112e+01 8.800e+00 1.936e+01
395 1 1.936e+01 1.056e+01 1.936e+01
396 1 2.112e+01 1.056e+01 1.760e+01
397 1 1.760e+00 1.760e+00 2.112e+01
398 1 5.280e+00 1.760e+00 2.112e+01
399 1 8.800e+00 1.760e+00 2.112e+01
400 1 1.232e+01 1.760e+00 2.112e+01
401 1 1.584e+01 1.760e+00 2.112e+01
402 1 1.936e+01 1.760e+00 2.112e+01
403 1 1.760e+00 5.280e+00 2.112e+01
404 1 3.520e+00 3.520e+00 2.112e+01
405 1 5.280e+00 5.280e+00 2.112e+01
406 1 7.040e+00 3.520e+00 2.112e+01
407 1 8.800e+00 5.280e+00 2.112e+01
408 1 1.056e+01 3.520e+00 2.112e+01
409 1 1.232e+01 5.280e+00 2.112e+01
410 1 1.408e+01 3.520e+00 2.112e+01
411 1 1.584e+01 5.280e+00 2.112e+01
412 1 1.760e+01 3.520e+00 2.112e+01
413 1 1.936e+01 5.280e+00 2.112e+01
414 1 2.112e+01 3.520e+00 2.112e+01
416 1 3.520e+00 7.040e+00 2.112e+01
418 1 7.040e+00 7.040e+00 2.112e+01
420 1 1.056e+01 7.040e+00 2.112e+01
422 1 1.408e+01 7.040e+00 2.112e+01
424 1 1.760e+01 7.040e+00 2.112e+01
426 1 2.112e+01 7.040e+00 2.112e+01
415 1 1.760e+00 8.800e+00 2.112e+01
417 1 5.280e+00 8.800e+00 2.112e+01
427 1 3.520e+00 1.056e+01 2.112e+01
428 1 7.040e+00 1.056e+01 2.112e+01
419 1 8.800e+00 8.800e+00 2.112e+01
429 1 1.056e+01 1.056e+01 2.112e+01
421 1 1.232e+01 8.800e+00 2.112e+01
423 1 1.584e+01 8.800e+00 2.112e+01
430 1 1.408e+01 1.056e+01 2.112e+01
431 1 1.760e+01 1.056e+01 2.112e+01
425 1 1.936e+01 8.800e+00 2.112e+01
432 1 2.112e+01 1.056e+01 2.112e+01
439 1 1.760e+00 1.408e+01 1.760e+00
433 1 3.520e+00 1.232e+01 1.760e+00
440 1 5.280e+00 1.408e+01 1.760e+00
434 1 7.040e+00 1.232e+01 1.760e+00
435 1 1.056e+01 1.232e+01 1.760e+00
442 1 8.800e+00 1.408e+01 1.760e+00
444 1 1.232e+01 1.408e+01 1.760e+00
436 1 1.408e+01 1.232e+01 1.760e+00
446 1 1.584e+01 1.408e+01 1.760e+00
437 1 1.760e+01 1.232e+01 1.760e+00
438 1 2.112e+01 1.232e+01 1.760e+00
448 1 1.936e+01 1.408e+01 1.760e+00
441 1 3.520e+00 1.584e+01 1.760e+00
443 1 7.040e+00 1.584e+01 1.760e+00
445 1 1.056e+01 1.584e+01 1.760e+00
447 1 1.408e+01 1.584e+01 1.760e+00
449 1 1.760e+01 1.584e+01 1.760e+00
450 1 2.112e+01 1.584e+01 1.760e+00
451 1 1.760e+00 1.760e+01 1.760e+00
452 1 5.280e+00 1.760e+01 1.760e+00
453 1 3.520e+00 1.936e+01 1.760e+00
455 1 7.040e+00 1.936e+01 1.760e+00
454 1 8.800e+00 1.760e+01 1.760e+00
457 1 1.056e+01 1.936e+01 1.760e+00
456 1 1.232e+01 1.760e+01 1.760e+00
458 1 1.584e+01 1.760e+01 1.760e+00
459 1 1.408e+01 1.936e+01 1.760e+00
461 1 1.760e+01 1.936e+01 1.760e+00
460 1 1.936e+01 1.760e+01 1.760e+00
462 1 2.112e+01 1.936e+01 1.760e+00
463 1 1.760e+00 2.112e+01 1.760e+00
464 1 5.280e+00 2.112e+01 1.760e+00
465 1 8.800e+00 2.112e+01 1.760e+00
466 1 1.232e+01 2.112e+01 1.760e+00
467 1 1.584e+01 2.112e+01 1.760e+00
468 1 1.936e+01 2.112e+01 1.760e+00
469 1 1.760e+00 1.232e+01 3.520e+00
482 1 1.760e+00 1.408e+01 5.280e+00
470 1 5.280e+00 1.232e+01 3.520e+00
471 1 3.520e+00 1.232e+01 5.280e+00
483 1 3.520e+00 1.408e+01 3.520e+00
485 1 5.280e+00 1.408e+01 5.280e+00
473 1 7.040e+00 1.232e+01 5.280e+00
487 1 7.040e+00 1.408e+01 3.520e+00
472 1 8.800e+00 1.232e+01 3.520e+00
475 1 1.056e+01 1.232e+01 5.280e+00
489 1 8.800e+00 1.408e+01 5.280e+00
491 1 1.056e+01 1.408e+01 3.520e+00
474 1 1.232e+01 1.232e+01 3.520e+00
493 1 1.232e+01 1.408e+01 5.280e+00
476 1 1.584e+01 1.232e+01 3.520e+00
477 1 1.408e+01 1.232e+01 5.280e+00
495 1 1.408e+01 1.408e+01 3.520e+00
497 1 1.584e+01 1.408e+01 5.280e+00
479 1 1.760e+01 1.232e+01 5.280e+00
499 1 1.760e+01 1.408e+01 3.520e+00
478 1 1.936e+01 1.232e+01 3.520e+00
480 1 2.112e+01 1.232e+01 5.280e+00
501 1 1.936e+01 1.408e+01 5.280e+00
503 1 2.112e+01 1.408e+01 3.520e+00
481 1 1.760e+00 1.584e+01 3.520e+00
484 1 5.280e+00 1.584e+01 3.520e+00
486 1 3.520e+00 1.584e+01 5.280e+00
490 1 7.040e+00 1.584e+01 5.280e+00
488 1 8.800e+00 1.584e+01 3.520e+00
494 1 1.056e+01 1.584e+01 5.280e+00
492 1 1.232e+01 1.584e+01 3.520e+00
496 1 1.584e+01 1.584e+01 3.520e+00
498 1 1.408e+01 1.584e+01 5.280e+00
502 1 1.760e+01 1.584e+01 5.280e+00
500 1 1.936e+01 1.584e+01 3.520e+00
504 1 2.112e+01 1.584e+01 5.280e+00
505 1 1.760e+00 1.936e+01 3.520e+00
506 1 1.760e+00 1.760e+01 5.280e+00
507 1 3.520e+00 1.760e+01 3.520e+00
508 1 5.280e+00 1.936e+01 3.520e+00
509 1 5.280e+00 1.760e+01 5.280e+00
510 1 3.520e+00 1.936e+01 5.280e+00
511 1 7.040e+00 1.760e+01 3.520e+00
514 1 7.040e+00 1.936e+01 5.280e+00
512 1 8.800e+00 1.936e+01 3.520e+00
513 1 8.800e+00 1.760e+01 5.280e+00
515 1 1.056e+01 1.760e+01 3.520e+00
518 1 1.056e+01 1.936e+01 5.280e+00
516 1 1.232e+01 1.936e+01 3.520e+00
517 1 1.232e+01 1.760e+01 5.280e+00
519 1 1.408e+01 1.760e+01 3.520e+00
520 1 1.584e+01 1.936e+01 3.520e+00
521 1 1.584e+01 1.760e+01 5.280e+00
522 1 1.408e+01 1.936e+01 5.280e+00
523 1 1.760e+01 1.760e+01 3.520e+00
526 1 1.760e+01 1.936e+01 5.280e+00
524 1 1.936e+01 1.936e+01 3.520e+00
525 1 1.936e+01 1.760e+01 5.280e+00
527 1 2.112e+01 1.760e+01 3.520e+00
528 1 2.112e+01 1.936e+01 5.280e+00
529 1 1.760e+00 2.112e+01 5.280e+00
530 1 3.520e+00 2.112e+01 3.520e+00
531 1 5.280e+00 2.112e+01 5.280e+00
532 1 7.040e+00 2.112e+01 3.520e+00
533 1 8.800e+00 2.112e+01 5.280e+00
534 1 1.056e+01 2.112e+01 3.520e+00
535 1 1.232e+01 2.112e+01 5.280e+00
536 1 1.408e+01 2.112e+01 3.520e+00
537 1 1.584e+01 2.112e+01 5.280e+00
538 1 1.760e+01 2.112e+01 3.520e+00
539 1 1.936e+01 2.112e+01 5.280e+00
540 1 2.112e+01 2.112e+01 3.520e+00
541 1 1.760e+00 1.232e+01 7.040e+00
542 1 5.280e+00 1.232e+01 7.040e+00
555 1 3.520e+00 1.408e+01 7.040e+00
559 1 7.040e+00 1.408e+01 7.040e+00
544 1 8.800e+00 1.232e+01 7.040e+00
563 1 1.056e+01 1.408e+01 7.040e+00
546 1 1.232e+01 1.232e+01 7.040e+00
548 1 1.584e+01 1.232e+01 7.040e+00
567 1 1.408e+01 1.408e+01 7.040e+00
571 1 1.760e+01 1.408e+01 7.040e+00
550 1 1.936e+01 1.232e+01 7.040e+00
575 1 2.112e+01 1.408e+01 7.040e+00
553 1 1.760e+00 1.584e+01 7.040e+00
556 1 5.280e+00 1.584e+01 7.040e+00
560 1 8.800e+00 1.584e+01 7.040e+00
564 1 1.232e+01 1.584e+01 7.040e+00
568 1 1.584e+01 1.584e+01 7.040e+00
572 1 1.936e+01 1.584e+01 7.040e+00
577 1 1.760e+00 1.936e+01 7.040e+00
579 1 3.520e+00 1.760e+01 7.040e+00
580 1 5.280e+00 1.936e+01 7.040e+00
583 1 7.040e+00 1.760e+01 7.040e+00
584 1 8.800e+00 1.936e+01 7.040e+00
587 1 1.056e+01 1.760e+01 7.040e+00
588 1 1.232e+01 1.936e+01 7.040e+00
591 1 1.408e+01 1.760e+01 7.040e+00
592 1 1.584e+01 1.936e+01 7.040e+00
595 1 1.760e+01 1.760e+01 7.040e+00
596 1 1.936e+01 1.936e+01 7.040e+00
599 1 2.112e+01 1.760e+01 7.040e+00
602 1 3.520e+00 2.112e+01 7.040e+00
604 1 7.040e+00 2.112e+01 7.040e+00
606 1 1.056e+01 2.112e+01 7.040e+00
608 1 1.408e+01 2.112e+01 7.040e+00
610 1 1.760e+01 2.112e+01 7.040e+00
612 1 2.112e+01 2.112e+01 7.040e+00
554 1 1.760e+00 1.408e+01 8.800e+00
613 1 1.760e+00 1.232e+01 1.056e+01
543 1 3.520e+00 1.232e+01 8.800e+00
557 1 5.280e+00 1.408e+01 8.800e+00
614 1 5.280e+00 1.232e+01 1.056e+01
620 1 3.520e+00 1.408e+01 1.056e+01
545 1 7.040e+00 1.232e+01 8.800e+00
622 1 7.040e+00 1.408e+01 1.056e+01
547 1 1.056e+01 1.232e+01 8.800e+00
561 1 8.800e+00 1.408e+01 8.800e+00
615 1 8.800e+00 1.232e+01 1.056e+01
624 1 1.056e+01 1.408e+01 1.056e+01
565 1 1.232e+01 1.408e+01 8.800e+00
616 1 1.232e+01 1.232e+01 1.056e+01
549 1 1.408e+01 1.232e+01 8.800e+00
569 1 1.584e+01 1.408e+01 8.800e+00
617 1 1.584e+01 1.232e+01 1.056e+01
626 1 1.408e+01 1.408e+01 1.056e+01
551 1 1.760e+01 1.232e+01 8.800e+00
628 1 1.760e+01 1.408e+01 1.056e+01
552 1 2.112e+01 1.232e+01 8.800e+00
573 1 1.936e+01 1.408e+01 8.800e+00
618 1 1.936e+01 1.232e+01 1.056e+01
630 1 2.112e+01 1.408e+01 1.056e+01
619 1 1.760e+00 1.584e+01 1.056e+01
558 1 3.520e+00 1.584e+01 8.800e+00
621 1 5.280e+00 1.584e+01 1.056e+01
562 1 7.040e+00 1.584e+01 8.800e+00
566 1 1.056e+01 1.584e+01 8.800e+00
623 1 8.800e+00 1.584e+01 1.056e+01
625 1 1.232e+01 1.584e+01 1.056e+01
570 1 1.408e+01 1.584e+01 8.800e+00
627 1 1.584e+01 1.584e+01 1.056e+01
574 1 1.760e+01 1.584e+01 8.800e+00
576 1 2.112e+01 1.584e+01 8.800e+00
629 1 1.936e+01 1.584e+01 1.056e+01
578 1 1.760e+00 1.760e+01 8.800e+00
631 1 1.760e+00 1.936e+01 1.056e+01
581 1 5.280e+00 1.760e+01 8.800e+00
582 1 3.520e+00 1.936e+01 8.800e+00
632 1 3.520e+00 1.760e+01 1.056e+01
633 1 5.280e+00 1.936e+01 1.056e+01
586 1 7.040e+00 1.936e+01 8.800e+00
634 1 7.040e+00 1.760e+01 1.056e+01
585 1 8.800e+00 1.760e+01 8.800e+00
590 1 1.056e+01 1.936e+01 8.800e+00
635 1 8.800e+00 1.936e+01 1.056e+01
636 1 1.056e+01 1.760e+01 1.056e+01
589 1 1.232e+01 1.760e+01 8.800e+00
637 1 1.232e+01 1.936e+01 1.056e+01
593 1 1.584e+01 1.760e+01 8.800e+00
594 1 1.408e+01 1.936e+01 8.800e+00
638 1 1.408e+01 1.760e+01 1.056e+01
639 1 1.584e+01 1.936e+01 1.056e+01
598 1 1.760e+01 1.936e+01 8.800e+00
640 1 1.760e+01 1.760e+01 1.056e+01
597 1 1.936e+01 1.760e+01 8.800e+00
600 1 2.112e+01 1.936e+01 8.800e+00
641 1 1.936e+01 1.936e+01 1.056e+01
642 1 2.112e+01 1.760e+01 1.056e+01
601 1 1.760e+00 2.112e+01 8.800e+00
603 1 5.280e+00 2.112e+01 8.800e+00
643 1 3.520e+00 2.112e+01 1.056e+01
644 1 7.040e+00 2.112e+01 1.056e+01
605 1 8.800e+00 2.112e+01 8.800e+00
645 1 1.056e+01 2.112e+01 1.056e+01
607 1 1.232e+01 2.112e+01 8.800e+00
609 1 1.584e+01 2.112e+01 8.800e+00
646 1 1.408e+01 2.112e+01 1.056e+01
647 1 1.760e+01 2.112e+01 1.056e+01
611 1 1.936e+01 2.112e+01 8.800e+00
648 1 2.112e+01 2.112e+01 1.056e+01
655 1 1.760e+00 1.408e+01 1.232e+01
685 1 1.760e+00 1.232e+01 1.408e+01
649 1 3.520e+00 1.232e+01 1.232e+01
656 1 5.280e+00 1.408e+01 1.232e+01
686 1 5.280e+00 1.232e+01 1.408e+01
699 1 3.520e+00 1.408e+01 1.408e+01
650 1 7.040e+00 1.232e+01 1.232e+01
703 1 7.040e+00 1.408e+01 1.408e+01
651 1 1.056e+01 1.232e+01 1.232e+01
658 1 8.800e+00 1.408e+01 1.232e+01
688 1 8.800e+00 1.232e+01 1.408e+01
707 1 1.056e+01 1.408e+01 1.408e+01
660 1 1.232e+01 1.408e+01 1.232e+01
690 1 1.232e+01 1.232e+01 1.408e+01
652 1 1.408e+01 1.232e+01 1.232e+01
662 1 1.584e+01 1.408e+01 1.232e+01
692 1 1.584e+01 1.232e+01 1.408e+01
711 1 1.408e+01 1.408e+01 1.408e+01
653 1 1.760e+01 1.232e+01 1.232e+01
715 1 1.760e+01 1.408e+01 1.408e+01
654 1 2.112e+01 1.232e+01 1.232e+01
664 1 1.936e+01 1.408e+01 1.232e+01
694 1 1.936e+01 1.232e+01 1.408e+01
719 1 2.112e+01 1.408e+01 1.408e+01
697 1 1.760e+00 1.584e+01 1.408e+01
657 1 3.520e+00 1.584e+01 1.232e+01
700 1 5.280e+00 1.584e+01 1.408e+01
659 1 7.040e+00 1.584e+01 1.232e+01
661 1 1.056e+01 1.584e+01 1.232e+01
704 1 8.800e+00 1.584e+01 1.408e+01
708 1 1.232e+01 1.584e+01 1.408e+01
663 1 1.408e+01 1.584e+01 1.232e+01
712 1 1.584e+01 1.584e+01 1.408e+01
665 1 1.760e+01 1.584e+01 1.232e+01
666 1 2.112e+01 1.584e+01 1.232e+01
716 1 1.936e+01 1.584e+01 1.408e+01
667 1 1.760e+00 1.760e+01 1.232e+01
721 1 1.760e+00 1.936e+01 1.408e+01
668 1 5.280e+00 1.760e+01 1.232e+01
669 1 3.520e+00 1.936e+01 1.232e+01
723 1 3.520e+00 1.760e+01 1.408e+01
724 1 5.280e+00 1.936e+01 1.408e+01
671 1 7.040e+00 1.936e+01 1.232e+01
727 1 7.040e+00 1.760e+01 1.408e+01
670 1 8.800e+00 1.760e+01 1.232e+01
673 1 1.056e+01 1.936e+01 1.232e+01
728 1 8.800e+00 1.936e+01 1.408e+01
731 1 1.056e+01 1.760e+01 1.408e+01
672 1 1.232e+01 1.760e+01 1.232e+01
732 1 1.232e+01 1.936e+01 1.408e+01
674 1 1.584e+01 1.760e+01 1.232e+01
675 1 1.408e+01 1.936e+01 1.232e+01
735 1 1.408e+01 1.760e+01 1.408e+01
736 1 1.584e+01 1.936e+01 1.408e+01
677 1 1.760e+01 1.936e+01 1.232e+01
739 1 1.760e+01 1.760e+01 1.408e+01
676 1 1.936e+01 1.760e+01 1.232e+01
678 1 2.112e+01 1.936e+01 1.232e+01
740 1 1.936e+01 1.936e+01 1.408e+01
743 1 2.112e+01 1.760e+01 1.408e+01
679 1 1.760e+00 2.112e+01 1.232e+01
680 1 5.280e+00 2.112e+01 1.232e+01
746 1 3.520e+00 2.112e+01 1.408e+01
748 1 7.040e+00 2.112e+01 1.408e+01
681 1 8.800e+00 2.112e+01 1.232e+01
750 1 1.056e+01 2.112e+01 1.408e+01
682 1 1.232e+01 2.112e+01 1.232e+01
683 1 1.584e+01 2.112e+01 1.232e+01
752 1 1.408e+01 2.112e+01 1.408e+01
754 1 1.760e+01 2.112e+01 1.408e+01
684 1 1.936e+01 2.112e+01 1.232e+01
756 1 2.112e+01 2.112e+01 1.408e+01
698 1 1.760e+00 1.408e+01 1.584e+01
687 1 3.520e+00 1.232e+01 1.584e+01
701 1 5.280e+00 1.408e+01 1.584e+01
689 1 7.040e+00 1.232e+01 1.584e+01
691 1 1.056e+01 1.232e+01 1.584e+01
705 1 8.800e+00 1.408e+01 1.584e+01
709 1 1.232e+01 1.408e+01 1.584e+01
693 1 1.408e+01 1.232e+01 1.584e+01
713 1 1.584e+01 1.408e+01 1.584e+01
695 1 1.760e+01 1.232e+01 1.584e+01
696 1 2.112e+01 1.232e+01 1.584e+01
717 1 1.936e+01 1.408e+01 1.584e+01
702 1 3.520e+00 1.584e+01 1.584e+01
706 1 7.040e+00 1.584e+01 1.584e+01
710 1 1.056e+01 1.584e+01 1.584e+01
714 1 1.408e+01 1.584e+01 1.584e+01
718 1 1.760e+01 1.584e+01 1.584e+01
720 1 2.112e+01 1.584e+01 1.584e+01
722 1 1.760e+00 1.760e+01 1.584e+01
725 1 5.280e+00 1.760e+01 1.584e+01
726 1 3.520e+00 1.936e+01 1.584e+01
730 1 7.040e+00 1.936e+01 1.584e+01
729 1 8.800e+00 1.760e+01 1.584e+01
734 1 1.056e+01 1.936e+01 1.584e+01
733 1 1.232e+01 1.760e+01 1.584e+01
737 1 1.584e+01 1.760e+01 1.584e+01
738 1 1.408e+01 1.936e+01 1.584e+01
742 1 1.760e+01 1.936e+01 1.584e+01
741 1 1.936e+01 1.760e+01 1.584e+01
744 1 2.112e+01 1.936e+01 1.584e+01
745 1 1.760e+00 2.112e+01 1.584e+01
747 1 5.280e+00 2.112e+01 1.584e+01
749 1 8.800e+00 2.112e+01 1.584e+01
751 1 1.232e+01 2.112e+01 1.584e+01
753 1 1.584e+01 2.112e+01 1.584e+01
755 1 1.936e+01 2.112e+01 1.584e+01
757 1 1.760e+00 1.232e+01 1.760e+01
770 1 1.760e+00 1.408e+01 1.936e+01
758 1 5.280e+00 1.232e+01 1.760e+01
759 1 3.520e+00 1.232e+01 1.936e+01
771 1 3.520e+00 1.408e+01 1.760e+01
773 1 5.280e+00 1.408e+01 1.936e+01
761 1 7.040e+00 1.232e+01 1.936e+01
775 1 7.040e+00 1.408e+01 1.760e+01
760 1 8.800e+00 1.232e+01 1.760e+01
763 1 1.056e+01 1.232e+01 1.936e+01
777 1 8.800e+00 1.408e+01 1.936e+01
779 1 1.056e+01 1.408e+01 1.760e+01
762 1 1.232e+01 1.232e+01 1.760e+01
781 1 1.232e+01 1.408e+01 1.936e+01
764 1 1.584e+01 1.232e+01 1.760e+01
765 1 1.408e+01 1.232e+01 1.936e+01
783 1 1.408e+01 1.408e+01 1.760e+01
785 1 1.584e+01 1.408e+01 1.936e+01
767 1 1.760e+01 1.232e+01 1.936e+01
787 1 1.760e+01 1.408e+01 1.760e+01
766 1 1.936e+01 1.232e+01 1.760e+01
768 1 2.112e+01 1.232e+01 1.936e+01
789 1 1.936e+01 1.408e+01 1.936e+01
791 1 2.112e+01 1.408e+01 1.760e+01
769 1 1.760e+00 1.584e+01 1.760e+01
772 1 5.280e+00 1.584e+01 1.760e+01
774 1 3.520e+00 1.584e+01 1.936e+01
778 1 7.040e+00 1.584e+01 1.936e+01
776 1 8.800e+00 1.584e+01 1.760e+01
782 1 1.056e+01 1.584e+01 1.936e+01
780 1 1.232e+01 1.584e+01 1.760e+01
784 1 1.584e+01 1.584e+01 1.760e+01
786 1 1.408e+01 1.584e+01 1.936e+01
790 1 1.760e+01 1.584e+01 1.936e+01
788 1 1.936e+01 1.584e+01 1.760e+01
792 1 2.112e+01 1.584e+01 1.936e+01
793 1 1.760e+00 1.936e+01 1.760e+01
794 1 1.760e+00 1.760e+01 1.936e+01
795 1 3.520e+00 1.760e+01 1.760e+01
796 1 5.280e+00 1.936e+01 1.760e+01
797 1 5.280e+00 1.760e+01 1.936e+01
798 1 3.520e+00 1.936e+01 1.936e+01
799 1 7.040e+00 1.760e+01 1.760e+01
802 1 7.040e+00 1.936e+01 1.936e+01
800 1 8.800e+00 1.936e+01 1.760e+01
801 1 8.800e+00 1.760e+01 1.936e+01
803 1 1.056e+01 1.760e+01 1.760e+01
806 1 1.056e+01 1.936e+01 1.936e+01
804 1 1.232e+01 1.936e+01 1.760e+01
805 1 1.232e+01 1.760e+01 1.936e+01
807 1 1.408e+01 1.760e+01 1.760e+01
808 1 1.584e+01 1.936e+01 1.760e+01
809 1 1.584e+01 1.760e+01 1.936e+01
810 1 1.408e+01 1.936e+01 1.936e+01
811 1 1.760e+01 1.760e+01 1.760e+01
814 1 1.760e+01 1.936e+01 1.936e+01
812 1 1.936e+01 1.936e+01 1.760e+01
813 1 1.936e+01 1.760e+01 1.936e+01
815 1 2.112e+01 1.760e+01 1.760e+01
816 1 2.112e+01 1.936e+01 1.936e+01
817 1 1.760e+00 2.112e+01 1.936e+01
818 1 3.520e+00 2.112e+01 1.760e+01
819 1 5.280e+00 2.112e+01 1.936e+01
820 1 7.040e+00 2.112e+01 1.760e+01
821 1 8.800e+00 2.112e+01 1.936e+01
822 1 1.056e+01 2.112e+01 1.760e+01
823 1 1.232e+01 2.112e+01 1.936e+01
824 1 1.408e+01 2.112e+01 1.760e+01
825 1 1.584e+01 2.112e+01 1.936e+01
826 1 1.760e+01 2.112e+01 1.760e+01
827 1 1.936e+01 2.112e+01 1.936e+01
828 1 2.112e+01 2.112e+01 1.760e+01