ITEM: TIMESTEP
0
ITEM: NUMBER OF ATOMS
109
ITEM: BOX BOUNDS pp pp pp
8.8000000000000000e-01 1.1440000000000000e+01
8.8000000000000000e-01 1.1440000000000000e+01
8.8000000000000000e-01 1.1440000000000000e+01
ITEM: ATOMS id type x y z
1 1 3.520e+00 1.760e+00 1.760e+00
2 1 1.760e+00 3.520e+00 1.760e+00
3 1 5.280e+00 3.520e+00 1.760e+00
4 1 3.520e+00 5.280e+00 1.760e+00
5 1 1.760e+00 7.040e+00 1.760e+00
6 1 5.280e+00 7.040e+00 1.760e+00
8 1 1.760e+00 1.056e+01 1.760e+00
7 1 3.520e+00 8.800e+00 1.760e+00
9 1 5.280e+00 1.056e+01 1.760e+00
10 1 1.760e+00 1.760e+00 3.520e+00
11 1 5.280e+00 1.760e+00 3.520e+00
12 1 3.520e+00 1.760e+00 5.280e+00
13 1 1.760e+00 5.280e+00 3.520e+00
14 1 1.760e+00 3.520e+00 5.280e+00
15 1 3.520e+00 3.520e+00 3.520e+00
16 1 5.280e+00 5.280e+00 3.520e+00
17 1 5.280e+00 3.520e+00 5.280e+00
18 1 3.520e+00 5.280e+00 5.280e+00
109 1 5.280e+00 5.280e+00 5.280e+00
20 1 1.760e+00 7.040e+00 5.280e+00
21 1 3.520e+00 7.040e+00 3.520e+00
23 1 5.280e+00 7.040e+00 5.280e+00
19 1 1.760e+00 8.800e+00 3.520e+00
25 1 1.760e+00 1.056e+01 5.280e+00
22 1 5.280e+00 8.800e+00 3.520e+00
24 1 3.520e+00 8.800e+00 5.280e+00
26 1 3.520e+00 1.056e+01 3.520e+00
27 1 5.280e+00 1.056e+01 5.280e+00
28 1 1.760e+00 1.760e+00 7.040e+00
29 1 5.280e+00 1.760e+00 7.040e+00
31 1 1.760e+00 5.280e+00 7.040e+00
33 1 3.520e+00 3.520e+00 7.040e+00
34 1 5.280e+00 5.280e+00 7.040e+00
39 1 3.520e+00 7.040e+00 7.040e+00
37 1 1.760e+00 8.800e+00 7.040e+00
40 1 5.280e+00 8.800e+00 7.040e+00
44 1 3.520e+00 1.056e+01 7.040e+00
46 1 1.760e+00 1.760e+00 1.056e+01
30 1 3.520e+00 1.760e+00 8.800e+00
47 1 5.280e+00 1.760e+00 1.056e+01
32 1 1.760e+00 3.520e+00 8.800e+00
48 1 1.760e+00 5.280e+00 1.056e+01
35 1 5.280e+00 3.520e+00 8.800e+00
36 1 3.520e+00 5.280e+00 8.800e+00
49 1 3.520e+00 3.520e+00 1.056e+01
50 1 5.280e+00 5.280e+00 1.056e+01
38 1 1.760e+00 7.040e+00 8.800e+00
41 1 5.280e+00 7.040e+00 8.800e+00
52 1 3.520e+00 7.040e+00 1.056e+01
43 1 1.760e+00 1.056e+01 8.800e+00
51 1 1.760e+00 8.800e+00 1.056e+01
42 1 3.520e+00 8.800e+00 8.800e+00
45 1 5.280e+00 1.056e+01 8.800e+00
53 1 5.280e+00 8.800e+00 1.056e+01
54 1 3.520e+00 1.056e+01 1.056e+01
55 1 7.040e+00 1.760e+00 1.760e+00
56 1 1.056e+01 1.760e+00 1.760e+00
58 1 7.040e+00 5.280e+00 1.760e+00
57 1 8.800e+00 3.520e+00 1.760e+00
59 1 1.056e+01 5.280e+00 1.760e+00
60 1 8.800e+00 7.040e+00 1.760e+00
61 1 7.040e+00 8.800e+00 1.760e+00
62 1 1.056e+01 8.800e+00 1.760e+00
63 1 8.800e+00 1.056e+01 1.760e+00
65 1 7.040e+00 1.760e+00 5.280e+00
64 1 8.800e+00 1.760e+00 3.520e+00
66 1 1.056e+01 1.760e+00 5.280e+00
67 1 7.040e+00 3.520e+00 3.520e+00
70 1 7.040e+00 5.280e+00 5.280e+00
68 1 8.800e+00 5.280e+00 3.520e+00
69 1 8.800e+00 3.520e+00 5.280e+00
71 1 1.056e+01 3.520e+00 3.520e+00
72 1 1.056e+01 5.280e+00 5.280e+00
73 1 7.040e+00 7.040e+00 3.520e+00
75 1 8.800e+00 7.040e+00 5.280e+00
77 1 1.056e+01 7.040e+00 3.520e+00
76 1 7.040e+00 8.800e+00 5.280e+00
79 1 7.040e+00 1.056e+01 3.520e+00
74 1 8.800e+00 8.800e+00 3.520e+00
78 1 1.056e+01 8.800e+00 5.280e+00
80 1 8.800e+00 1.056e+01 5.280e+00
81 1 1.056e+01 1.056e+01 3.520e+00
82 1 8.800e+00 1.760e+00 7.040e+00
85 1 7.040e+00 3.520e+00 7.040e+00
86 1 8.800e+00 5.280e+00 7.040e+00
89 1 1.056e+01 3.520e+00 7.040e+00
91 1 7.040e+00 7.040e+00 7.040e+00
95 1 1.056e+01 7.040e+00 7.040e+00
97 1 7.040e+00 1.056e+01 7.040e+00
92 1 8.800e+00 8.800e+00 7.040e+00
99 1 1.056e+01 1.056e+01 7.040e+00
83 1 7.040e+00 1.760e+00 8.800e+00
84 1 1.056e+01 1.760e+00 8.800e+00
100 1 8.800e+00 1.760e+00 1.056e+01
88 1 7.040e+00 5.280e+00 8.800e+00
101 1 7.040e+00 3.520e+00 1.056e+01
87 1 8.800e+00 3.520e+00 8.800e+00
90 1 1.056e+01 5.280e+00 8.800e+00
102 1 8.800e+00 5.280e+00 1.056e+01
103 1 1.056e+01 3.520e+00 1.056e+01
104 1 7.040e+00 7.040e+00 1.056e+01
93 1 8.800e+00 7.040e+00 8.800e+00
106 1 1.056e+01 7.040e+00 1.056e+01
94 1 7.040e+00 8.800e+00 8.800e+00
107 1 7.040e+00 1.056e+01 1.056e+01
96 1 1.056e+01 8.800e+00 8.800e+00
98 1 8.800e+00 1.056e+01 8.800e+00
105 1 8.800e+00 8.800e+00 1.056e+01
108 1 1.056e+01 1.056e+01 1.056e+01
ITEM: TIMESTEP
1000
ITEM: NUMBER OF ATOMS
109
ITEM: BOX BOUNDS pp pp pp
8.8000000000000000e-01 1.1440000000000000e+01
8.8000000000000000e-01 1.1440000000000000e+01
8.8000000000000000e-01 1.1440000000000000e+01
ITEM: ATOMS id type x y z
1 1 3.491e+00 1.742e+00 1.766e+00
2 1 1.743e+00 3.492e+00 1.766e+00
10 1 1.768e+00 1.767e+00 3.515e+00
3 1 5.280e+00 3.314e+00 1.633e+00
11 1 5.280e+00 1.728e+00 3.513e+00
4 1 3.322e+00 5.281e+00 1.637e+00
13 1 1.725e+00 5.279e+00 3.508e+00
16 1 5.273e+00 5.255e+00 2.697e+00
5 1 1.744e+00 7.067e+00 1.769e+00
19 1 1.766e+00 8.791e+00 3.515e+00
6 1 5.280e+00 7.222e+00 1.645e+00
8 1 1.747e+00 1.056e+01 1.770e+00
7 1 3.494e+00 8.814e+00 1.767e+00
26 1 3.511e+00 1.056e+01 3.515e+00
9 1 5.280e+00 1.056e+01 1.743e+00
22 1 5.280e+00 8.842e+00 3.498e+00
12 1 3.471e+00 1.713e+00 5.288e+00
14 1 1.704e+00 3.459e+00 5.288e+00
17 1 5.275e+00 3.231e+00 5.406e+00
18 1 3.198e+00 5.262e+00 5.412e+00
15 1 3.593e+00 3.594e+00 3.552e+00
109 1 5.297e+00 5.343e+00 4.796e+00
20 1 1.713e+00 7.089e+00 5.288e+00
21 1 3.602e+00 6.961e+00 3.562e+00
23 1 5.275e+00 7.424e+00 5.421e+00
25 1 1.729e+00 1.057e+01 5.277e+00
24 1 3.448e+00 8.863e+00 5.287e+00
27 1 5.279e+00 1.055e+01 5.301e+00
28 1 1.742e+00 1.742e+00 7.060e+00
33 1 3.499e+00 3.498e+00 7.068e+00
29 1 5.280e+00 1.679e+00 7.129e+00
31 1 1.672e+00 5.278e+00 7.139e+00
34 1 5.278e+00 5.273e+00 7.110e+00
39 1 3.506e+00 7.054e+00 7.057e+00
37 1 1.743e+00 8.816e+00 7.059e+00
44 1 3.488e+00 1.056e+01 7.063e+00
40 1 5.280e+00 8.901e+00 7.159e+00
46 1 1.747e+00 1.746e+00 1.057e+01
30 1 3.495e+00 1.745e+00 8.815e+00
32 1 1.745e+00 3.494e+00 8.817e+00
49 1 3.496e+00 3.497e+00 1.054e+01
47 1 5.280e+00 1.701e+00 1.051e+01
35 1 5.280e+00 3.507e+00 8.824e+00
48 1 1.703e+00 5.280e+00 1.051e+01
36 1 3.509e+00 5.279e+00 8.822e+00
50 1 5.279e+00 5.276e+00 1.062e+01
38 1 1.749e+00 7.064e+00 8.813e+00
52 1 3.500e+00 7.061e+00 1.054e+01
41 1 5.280e+00 7.047e+00 8.820e+00
43 1 1.745e+00 1.056e+01 8.820e+00
51 1 1.748e+00 8.810e+00 1.057e+01
42 1 3.494e+00 8.812e+00 8.816e+00
54 1 3.495e+00 1.056e+01 1.057e+01
45 1 5.280e+00 1.057e+01 8.839e+00
53 1 5.280e+00 8.853e+00 1.052e+01
55 1 7.069e+00 1.742e+00 1.767e+00
64 1 8.792e+00 1.766e+00 3.515e+00
56 1 1.056e+01 1.746e+00 1.770e+00
57 1 8.816e+00 3.493e+00 1.766e+00
71 1 1.056e+01 3.511e+00 3.513e+00
58 1 7.231e+00 5.281e+00 1.641e+00
59 1 1.056e+01 5.280e+00 1.743e+00
68 1 8.838e+00 5.279e+00 3.504e+00
74 1 8.793e+00 8.792e+00 3.516e+00
60 1 8.815e+00 7.066e+00 1.769e+00
77 1 1.056e+01 7.046e+00 3.517e+00
61 1 7.065e+00 8.814e+00 1.768e+00
79 1 7.048e+00 1.056e+01 3.516e+00
62 1 1.056e+01 8.810e+00 1.771e+00
63 1 8.812e+00 1.056e+01 1.770e+00
81 1 1.056e+01 1.056e+01 3.512e+00
65 1 7.086e+00 1.715e+00 5.288e+00
66 1 1.056e+01 1.728e+00 5.277e+00
69 1 8.860e+00 3.452e+00 5.287e+00
67 1 6.965e+00 3.597e+00 3.555e+00
70 1 7.387e+00 5.261e+00 5.416e+00
72 1 1.056e+01 5.277e+00 5.301e+00
73 1 6.958e+00 6.960e+00 3.563e+00
75 1 8.852e+00 7.095e+00 5.287e+00
76 1 7.108e+00 8.861e+00 5.287e+00
78 1 1.056e+01 8.828e+00 5.277e+00
80 1 8.830e+00 1.057e+01 5.277e+00
85 1 7.059e+00 3.500e+00 7.066e+00
82 1 8.817e+00 1.742e+00 7.060e+00
89 1 1.056e+01 3.487e+00 7.065e+00
86 1 8.893e+00 5.279e+00 7.147e+00
91 1 7.052e+00 7.052e+00 7.054e+00
95 1 1.056e+01 7.070e+00 7.061e+00
97 1 7.072e+00 1.056e+01 7.062e+00
92 1 8.816e+00 8.815e+00 7.059e+00
99 1 1.056e+01 1.056e+01 7.058e+00
83 1 7.064e+00 1.746e+00 8.814e+00
101 1 7.063e+00 3.498e+00 1.054e+01
84 1 1.056e+01 1.743e+00 8.820e+00
100 1 8.812e+00 1.746e+00 1.057e+01
87 1 8.815e+00 3.494e+00 8.817e+00
103 1 1.056e+01 3.495e+00 1.057e+01
88 1 7.049e+00 5.279e+00 8.821e+00
90 1 1.056e+01 5.281e+00 8.838e+00
102 1 8.855e+00 5.280e+00 1.052e+01
104 1 7.060e+00 7.060e+00 1.054e+01
93 1 8.811e+00 7.064e+00 8.813e+00
106 1 1.056e+01 7.064e+00 1.057e+01
94 1 7.066e+00 8.811e+00 8.815e+00
107 1 7.065e+00 1.056e+01 1.057e+01
96 1 1.056e+01 8.812e+00 8.819e+00
98 1 8.814e+00 1.056e+01 8.820e+00
105 1 8.811e+00 8.809e+00 1.057e+01
108 1 1.056e+01 1.056e+01 1.058e+01
ITEM: TIMESTEP
2000
ITEM: NUMBER OF ATOMS
109
ITEM: BOX BOUNDS pp pp pp
8.8000000000000000e-01 1.1440000000000000e+01
8.8000000000000000e-01 1.1440000000000000e+01
8.8000000000000000e-01 1.1440000000000000e+01
ITEM: ATOMS id type x y z
1 1 3.480e+00 1.728e+00 1.776e+00
2 1 1.728e+00 3.481e+00 1.776e+00
3 1 5.280e+00 3.255e+00 1.631e+00
4 1 3.258e+00 5.281e+00 1.632e+00
16 1 5.279e+00 5.275e+00 2.499e+00
5 1 1.728e+00 7.080e+00 1.776e+00
6 1 5.280e+00 7.298e+00 1.633e+00
8 1 1.741e+00 1.056e+01 1.787e+00
7 1 3.481e+00 8.831e+00 1.776e+00
9 1 5.280e+00 1.056e+01 1.758e+00
10 1 1.772e+00 1.772e+00 3.535e+00
12 1 3.479e+00 1.726e+00 5.295e+00
14 1 1.726e+00 3.478e+00 5.295e+00
11 1 5.280e+00 1.731e+00 3.535e+00
17 1 5.280e+00 3.253e+00 5.439e+00
13 1 1.731e+00 5.280e+00 3.535e+00
18 1 3.252e+00 5.279e+00 5.440e+00
15 1 3.610e+00 3.610e+00 3.538e+00
109 1 5.281e+00 5.283e+00 4.595e+00
19 1 1.772e+00 8.788e+00 3.535e+00
20 1 1.727e+00 7.081e+00 5.295e+00
21 1 3.611e+00 6.950e+00 3.538e+00
23 1 5.280e+00 7.311e+00 5.441e+00
26 1 3.517e+00 1.056e+01 3.535e+00
25 1 1.740e+00 1.056e+01 5.283e+00
24 1 3.478e+00 8.835e+00 5.295e+00
22 1 5.280e+00 8.829e+00 3.534e+00
27 1 5.280e+00 1.056e+01 5.313e+00
28 1 1.743e+00 1.744e+00 7.056e+00
33 1 3.497e+00 3.497e+00 7.083e+00
29 1 5.280e+00 1.682e+00 7.136e+00
31 1 1.682e+00 5.280e+00 7.136e+00
34 1 5.280e+00 5.280e+00 7.033e+00
39 1 3.496e+00 7.063e+00 7.082e+00
37 1 1.743e+00 8.817e+00 7.056e+00
44 1 3.490e+00 1.056e+01 7.059e+00
40 1 5.280e+00 8.879e+00 7.137e+00
46 1 1.744e+00 1.744e+00 1.058e+01
30 1 3.492e+00 1.743e+00 8.816e+00
32 1 1.743e+00 3.492e+00 8.816e+00
49 1 3.497e+00 3.497e+00 1.055e+01
47 1 5.280e+00 1.683e+00 1.050e+01
35 1 5.280e+00 3.517e+00 8.816e+00
48 1 1.684e+00 5.280e+00 1.050e+01
36 1 3.517e+00 5.280e+00 8.816e+00
50 1 5.280e+00 5.279e+00 1.060e+01
38 1 1.743e+00 7.068e+00 8.816e+00
52 1 3.497e+00 7.063e+00 1.055e+01
41 1 5.280e+00 7.043e+00 8.816e+00
43 1 1.743e+00 1.056e+01 8.817e+00
51 1 1.744e+00 8.816e+00 1.058e+01
42 1 3.492e+00 8.817e+00 8.816e+00
54 1 3.491e+00 1.056e+01 1.057e+01
45 1 5.280e+00 1.056e+01 8.818e+00
53 1 5.280e+00 8.875e+00 1.050e+01
55 1 7.081e+00 1.728e+00 1.776e+00
56 1 1.056e+01 1.741e+00 1.787e+00
57 1 8.831e+00 3.481e+00 1.776e+00
58 1 7.301e+00 5.281e+00 1.632e+00
59 1 1.056e+01 5.281e+00 1.758e+00
60 1 8.832e+00 7.080e+00 1.776e+00
61 1 7.079e+00 8.831e+00 1.776e+00
62 1 1.056e+01 8.818e+00 1.787e+00
63 1 8.819e+00 1.056e+01 1.787e+00
64 1 8.788e+00 1.772e+00 3.535e+00
65 1 7.081e+00 1.727e+00 5.295e+00
71 1 1.056e+01 3.517e+00 3.535e+00
66 1 1.056e+01 1.740e+00 5.283e+00
69 1 8.835e+00 3.478e+00 5.295e+00
67 1 6.950e+00 3.610e+00 3.538e+00
70 1 7.309e+00 5.279e+00 5.440e+00
68 1 8.829e+00 5.280e+00 3.535e+00
72 1 1.056e+01 5.280e+00 5.313e+00
74 1 8.788e+00 8.788e+00 3.535e+00
73 1 6.949e+00 6.949e+00 3.538e+00
77 1 1.056e+01 7.044e+00 3.535e+00
75 1 8.834e+00 7.082e+00 5.295e+00
79 1 7.044e+00 1.056e+01 3.535e+00
76 1 7.082e+00 8.834e+00 5.295e+00
81 1 1.056e+01 1.056e+01 3.534e+00
78 1 1.056e+01 8.820e+00 5.283e+00
80 1 8.820e+00 1.056e+01 5.283e+00
85 1 7.063e+00 3.496e+00 7.082e+00
82 1 8.817e+00 1.744e+00 7.056e+00
89 1 1.056e+01 3.490e+00 7.059e+00
86 1 8.879e+00 5.280e+00 7.136e+00
91 1 7.064e+00 7.063e+00 7.082e+00
95 1 1.056e+01 7.070e+00 7.059e+00
97 1 7.070e+00 1.056e+01 7.059e+00
92 1 8.817e+00 8.817e+00 7.057e+00
99 1 1.056e+01 1.056e+01 7.051e+00
83 1 7.068e+00 1.743e+00 8.816e+00
101 1 7.063e+00 3.497e+00 1.055e+01
84 1 1.056e+01 1.743e+00 8.817e+00
100 1 8.816e+00 1.744e+00 1.058e+01
87 1 8.817e+00 3.492e+00 8.816e+00
103 1 1.056e+01 3.491e+00 1.057e+01
88 1 7.043e+00 5.280e+00 8.816e+00
90 1 1.056e+01 5.280e+00 8.818e+00
102 1 8.876e+00 5.280e+00 1.050e+01
104 1 7.063e+00 7.063e+00 1.055e+01
93 1 8.817e+00 7.068e+00 8.816e+00
106 1 1.056e+01 7.069e+00 1.057e+01
94 1 7.068e+00 8.817e+00 8.816e+00
107 1 7.069e+00 1.056e+01 1.057e+01
96 1 1.056e+01 8.817e+00 8.816e+00
98 1 8.817e+00 1.056e+01 8.817e+00
105 1 8.816e+00 8.816e+00 1.058e+01
108 1 1.056e+01 1.056e+01 1.058e+01
ITEM: TIMESTEP
3000
ITEM: NUMBER OF ATOMS
109
ITEM: BOX BOUNDS pp pp pp
8.8000000000000000e-01 1.1440000000000000e+01
8.8000000000000000e-01 1.1440000000000000e+01
8.8000000000000000e-01 1.1440000000000000e+01
ITEM: ATOMS id type x y z
1 1 3.480e+00 1.727e+00 1.777e+00
2 1 1.728e+00 3.480e+00 1.777e+00
3 1 5.280e+00 3.254e+00 1.631e+00
4 1 3.255e+00 5.281e+00 1.631e+00
16 1 5.279e+00 5.278e+00 2.491e+00
5 1 1.727e+00 7.081e+00 1.776e+00
6 1 5.280e+00 7.302e+00 1.632e+00
8 1 1.741e+00 1.056e+01 1.788e+00
7 1 3.480e+00 8.832e+00 1.776e+00
9 1 5.280e+00 1.056e+01 1.758e+00
10 1 1.772e+00 1.772e+00 3.536e+00
12 1 3.479e+00 1.727e+00 5.295e+00
14 1 1.727e+00 3.479e+00 5.295e+00
11 1 5.280e+00 1.731e+00 3.536e+00
17 1 5.280e+00 3.255e+00 5.439e+00
13 1 1.731e+00 5.281e+00 3.536e+00
18 1 3.254e+00 5.280e+00 5.440e+00
15 1 3.610e+00 3.611e+00 3.536e+00
109 1 5.280e+00 5.282e+00 4.587e+00
19 1 1.772e+00 8.788e+00 3.536e+00
20 1 1.727e+00 7.081e+00 5.296e+00
21 1 3.611e+00 6.949e+00 3.537e+00
23 1 5.280e+00 7.307e+00 5.441e+00
26 1 3.517e+00 1.056e+01 3.536e+00
25 1 1.740e+00 1.056e+01 5.284e+00
24 1 3.479e+00 8.833e+00 5.296e+00
22 1 5.280e+00 8.828e+00 3.536e+00
27 1 5.280e+00 1.056e+01 5.313e+00
28 1 1.744e+00 1.744e+00 7.056e+00
33 1 3.497e+00 3.497e+00 7.083e+00
29 1 5.280e+00 1.682e+00 7.135e+00
31 1 1.682e+00 5.280e+00 7.135e+00
34 1 5.280e+00 5.280e+00 7.031e+00
39 1 3.496e+00 7.063e+00 7.083e+00
37 1 1.744e+00 8.817e+00 7.057e+00
44 1 3.490e+00 1.056e+01 7.059e+00
40 1 5.280e+00 8.878e+00 7.136e+00
46 1 1.744e+00 1.744e+00 1.058e+01
30 1 3.492e+00 1.743e+00 8.816e+00
32 1 1.743e+00 3.492e+00 8.816e+00
49 1 3.497e+00 3.497e+00 1.055e+01
47 1 5.280e+00 1.682e+00 1.050e+01
35 1 5.280e+00 3.516e+00 8.816e+00
48 1 1.683e+00 5.280e+00 1.050e+01
36 1 3.517e+00 5.280e+00 8.816e+00
50 1 5.280e+00 5.279e+00 1.060e+01
38 1 1.743e+00 7.068e+00 8.816e+00
52 1 3.497e+00 7.063e+00 1.055e+01
41 1 5.280e+00 7.043e+00 8.816e+00
43 1 1.743e+00 1.056e+01 8.817e+00
51 1 1.744e+00 8.816e+00 1.058e+01
42 1 3.492e+00 8.817e+00 8.816e+00
54 1 3.491e+00 1.056e+01 1.057e+01
45 1 5.280e+00 1.056e+01 8.817e+00
53 1 5.280e+00 8.877e+00 1.050e+01
55 1 7.081e+00 1.727e+00 1.777e+00
56 1 1.056e+01 1.741e+00 1.788e+00
57 1 8.832e+00 3.480e+00 1.777e+00
58 1 7.304e+00 5.281e+00 1.632e+00
59 1 1.056e+01 5.280e+00 1.758e+00
60 1 8.832e+00 7.080e+00 1.776e+00
61 1 7.080e+00 8.832e+00 1.776e+00
62 1 1.056e+01 8.819e+00 1.788e+00
63 1 8.819e+00 1.056e+01 1.788e+00
64 1 8.788e+00 1.772e+00 3.536e+00
65 1 7.081e+00 1.727e+00 5.295e+00
71 1 1.056e+01 3.517e+00 3.536e+00
66 1 1.056e+01 1.741e+00 5.284e+00
69 1 8.833e+00 3.479e+00 5.295e+00
67 1 6.949e+00 3.611e+00 3.536e+00
70 1 7.306e+00 5.280e+00 5.440e+00
68 1 8.828e+00 5.281e+00 3.536e+00
72 1 1.056e+01 5.280e+00 5.313e+00
74 1 8.788e+00 8.788e+00 3.536e+00
73 1 6.949e+00 6.949e+00 3.537e+00
77 1 1.056e+01 7.044e+00 3.536e+00
75 1 8.833e+00 7.081e+00 5.296e+00
79 1 7.044e+00 1.056e+01 3.536e+00
76 1 7.081e+00 8.833e+00 5.296e+00
81 1 1.056e+01 1.056e+01 3.536e+00
78 1 1.056e+01 8.820e+00 5.285e+00
80 1 8.820e+00 1.056e+01 5.284e+00
85 1 7.063e+00 3.497e+00 7.083e+00
82 1 8.816e+00 1.744e+00 7.056e+00
89 1 1.056e+01 3.490e+00 7.059e+00
86 1 8.878e+00 5.280e+00 7.136e+00
91 1 7.064e+00 7.064e+00 7.083e+00
95 1 1.056e+01 7.070e+00 7.059e+00
97 1 7.070e+00 1.056e+01 7.059e+00
92 1 8.817e+00 8.817e+00 7.057e+00
99 1 1.056e+01 1.056e+01 7.051e+00
83 1 7.068e+00 1.743e+00 8.816e+00
101 1 7.063e+00 3.497e+00 1.055e+01
84 1 1.056e+01 1.744e+00 8.817e+00
100 1 8.816e+00 1.744e+00 1.058e+01
87 1 8.817e+00 3.492e+00 8.816e+00
103 1 1.056e+01 3.491e+00 1.057e+01
88 1 7.043e+00 5.280e+00 8.816e+00
90 1 1.056e+01 5.280e+00 8.817e+00
102 1 8.877e+00 5.280e+00 1.050e+01
104 1 7.063e+00 7.063e+00 1.055e+01
93 1 8.817e+00 7.068e+00 8.816e+00
106 1 1.056e+01 7.069e+00 1.057e+01
94 1 7.068e+00 8.817e+00 8.816e+00
107 1 7.069e+00 1.056e+01 1.057e+01
96 1 1.056e+01 8.817e+00 8.817e+00
98 1 8.817e+00 1.056e+01 8.817e+00
105 1 8.816e+00 8.816e+00 1.058e+01
108 1 1.056e+01 1.056e+01 1.058e+01
ITEM: TIMESTEP
4000
ITEM: NUMBER OF ATOMS
109
ITEM: BOX BOUNDS pp pp pp
8.8000000000000000e-01 1.1440000000000000e+01
8.8000000000000000e-01 1.1440000000000000e+01
8.8000000000000000e-01 1.1440000000000000e+01
ITEM: ATOMS id type x y z
1 1 3.477e+00 1.725e+00 1.777e+00
2 1 1.724e+00 3.476e+00 1.776e+00
3 1 5.280e+00 3.248e+00 1.636e+00
4 1 3.245e+00 5.278e+00 1.636e+00
16 1 5.281e+00 5.284e+00 2.461e+00
5 1 1.724e+00 7.082e+00 1.778e+00
6 1 5.279e+00 7.319e+00 1.637e+00
8 1 1.739e+00 1.056e+01 1.787e+00
7 1 3.475e+00 8.837e+00 1.778e+00
9 1 5.280e+00 1.056e+01 1.760e+00
10 1 1.771e+00 1.771e+00 3.539e+00
12 1 3.481e+00 1.729e+00 5.298e+00
14 1 1.729e+00 3.481e+00 5.298e+00
11 1 5.280e+00 1.729e+00 3.540e+00
17 1 5.280e+00 3.260e+00 5.442e+00
13 1 1.729e+00 5.279e+00 3.540e+00
18 1 3.262e+00 5.280e+00 5.440e+00
15 1 3.609e+00 3.608e+00 3.533e+00
109 1 5.279e+00 5.275e+00 4.558e+00
19 1 1.770e+00 8.790e+00 3.539e+00
20 1 1.729e+00 7.079e+00 5.296e+00
21 1 3.609e+00 6.950e+00 3.533e+00
23 1 5.280e+00 7.294e+00 5.437e+00
26 1 3.515e+00 1.056e+01 3.539e+00
25 1 1.741e+00 1.056e+01 5.288e+00
24 1 3.481e+00 8.830e+00 5.296e+00
22 1 5.280e+00 8.831e+00 3.541e+00
27 1 5.280e+00 1.056e+01 5.316e+00
28 1 1.745e+00 1.745e+00 7.058e+00
33 1 3.497e+00 3.498e+00 7.085e+00
29 1 5.280e+00 1.684e+00 7.135e+00
31 1 1.686e+00 5.281e+00 7.134e+00
34 1 5.280e+00 5.280e+00 7.023e+00
39 1 3.498e+00 7.063e+00 7.084e+00
37 1 1.745e+00 8.815e+00 7.057e+00
44 1 3.492e+00 1.056e+01 7.059e+00
40 1 5.280e+00 8.873e+00 7.132e+00
46 1 1.745e+00 1.744e+00 1.057e+01
30 1 3.494e+00 1.744e+00 8.816e+00
32 1 1.745e+00 3.494e+00 8.816e+00
49 1 3.498e+00 3.498e+00 1.055e+01
47 1 5.280e+00 1.681e+00 1.050e+01
35 1 5.280e+00 3.518e+00 8.816e+00
48 1 1.681e+00 5.281e+00 1.050e+01
36 1 3.517e+00 5.281e+00 8.816e+00
50 1 5.280e+00 5.281e+00 1.060e+01
38 1 1.744e+00 7.067e+00 8.817e+00
52 1 3.498e+00 7.062e+00 1.055e+01
41 1 5.280e+00 7.043e+00 8.816e+00
43 1 1.745e+00 1.056e+01 8.815e+00
51 1 1.744e+00 8.816e+00 1.058e+01
42 1 3.494e+00 8.814e+00 8.817e+00
54 1 3.491e+00 1.056e+01 1.057e+01
45 1 5.280e+00 1.056e+01 8.813e+00
53 1 5.280e+00 8.879e+00 1.050e+01
55 1 7.082e+00 1.724e+00 1.777e+00
56 1 1.056e+01 1.739e+00 1.786e+00
57 1 8.837e+00 3.475e+00 1.777e+00
58 1 7.316e+00 5.278e+00 1.637e+00
59 1 1.056e+01 5.279e+00 1.760e+00
60 1 8.836e+00 7.083e+00 1.779e+00
61 1 7.084e+00 8.837e+00 1.779e+00
62 1 1.056e+01 8.823e+00 1.788e+00
63 1 8.822e+00 1.056e+01 1.787e+00
64 1 8.789e+00 1.771e+00 3.539e+00
65 1 7.079e+00 1.729e+00 5.297e+00
71 1 1.056e+01 3.514e+00 3.539e+00
66 1 1.056e+01 1.741e+00 5.288e+00
69 1 8.831e+00 3.481e+00 5.297e+00
67 1 6.951e+00 3.608e+00 3.533e+00
70 1 7.296e+00 5.280e+00 5.439e+00
68 1 8.831e+00 5.279e+00 3.541e+00
72 1 1.056e+01 5.280e+00 5.316e+00
74 1 8.790e+00 8.790e+00 3.539e+00
73 1 6.951e+00 6.950e+00 3.533e+00
77 1 1.056e+01 7.045e+00 3.539e+00
75 1 8.831e+00 7.079e+00 5.296e+00
79 1 7.045e+00 1.056e+01 3.539e+00
76 1 7.079e+00 8.830e+00 5.296e+00
81 1 1.056e+01 1.056e+01 3.539e+00
78 1 1.056e+01 8.819e+00 5.287e+00
80 1 8.819e+00 1.056e+01 5.288e+00
85 1 7.063e+00 3.498e+00 7.084e+00
82 1 8.815e+00 1.745e+00 7.058e+00
89 1 1.056e+01 3.493e+00 7.059e+00
86 1 8.874e+00 5.281e+00 7.133e+00
91 1 7.062e+00 7.063e+00 7.083e+00
95 1 1.056e+01 7.069e+00 7.058e+00
97 1 7.068e+00 1.056e+01 7.059e+00
92 1 8.815e+00 8.815e+00 7.056e+00
99 1 1.056e+01 1.056e+01 7.053e+00
83 1 7.067e+00 1.744e+00 8.816e+00
101 1 7.062e+00 3.498e+00 1.055e+01
84 1 1.056e+01 1.745e+00 8.814e+00
100 1 8.816e+00 1.744e+00 1.057e+01
87 1 8.815e+00 3.494e+00 8.816e+00
103 1 1.056e+01 3.491e+00 1.057e+01
88 1 7.043e+00 5.281e+00 8.816e+00
90 1 1.056e+01 5.281e+00 8.813e+00
102 1 8.879e+00 5.281e+00 1.050e+01
104 1 7.062e+00 7.062e+00 1.055e+01
93 1 8.815e+00 7.067e+00 8.817e+00
106 1 1.056e+01 7.070e+00 1.057e+01
94 1 7.067e+00 8.814e+00 8.817e+00
107 1 7.069e+00 1.056e+01 1.057e+01
96 1 1.056e+01 8.816e+00 8.815e+00
98 1 8.815e+00 1.056e+01 8.815e+00
105 1 8.816e+00 8.816e+00 1.058e+01
108 1 1.056e+01 1.056e+01 1.058e+01
ITEM: TIMESTEP
5000
ITEM: NUMBER OF ATOMS
109
ITEM: BOX BOUNDS pp pp pp
8.8000000000000000e-01 1.1440000000000000e+01
8.8000000000000000e-01 1.1440000000000000e+01
8.8000000000000000e-01 1.1440000000000000e+01
ITEM: ATOMS id type x y z
1 1 3.478e+00 1.725e+00 1.778e+00
2 1 1.724e+00 3.476e+00 1.777e+00
3 1 5.279e+00 3.249e+00 1.634e+00
4 1 3.245e+00 5.278e+00 1.632e+00
16 1 5.282e+00 5.288e+00 2.454e+00
5 1 1.724e+00 7.082e+00 1.778e+00
6 1 5.279e+00 7.322e+00 1.631e+00
8 1 1.739e+00 1.056e+01 1.792e+00
7 1 3.474e+00 8.837e+00 1.778e+00
9 1 5.280e+00 1.056e+01 1.761e+00
10 1 1.773e+00 1.773e+00 3.541e+00
12 1 3.483e+00 1.730e+00 5.298e+00
14 1 1.731e+00 3.483e+00 5.298e+00
11 1 5.280e+00 1.732e+00 3.540e+00
17 1 5.280e+00 3.264e+00 5.443e+00
13 1 1.732e+00 5.279e+00 3.540e+00
18 1 3.266e+00 5.281e+00 5.442e+00
15 1 3.611e+00 3.611e+00 3.532e+00
109 1 5.279e+00 5.275e+00 4.550e+00
19 1 1.772e+00 8.788e+00 3.541e+00
20 1 1.730e+00 7.077e+00 5.297e+00
21 1 3.610e+00 6.949e+00 3.531e+00
23 1 5.280e+00 7.290e+00 5.439e+00
26 1 3.517e+00 1.056e+01 3.540e+00
25 1 1.743e+00 1.056e+01 5.287e+00
24 1 3.483e+00 8.828e+00 5.297e+00
22 1 5.280e+00 8.828e+00 3.541e+00
27 1 5.280e+00 1.056e+01 5.316e+00
28 1 1.745e+00 1.745e+00 7.056e+00
33 1 3.498e+00 3.497e+00 7.087e+00
29 1 5.280e+00 1.685e+00 7.134e+00
31 1 1.686e+00 5.280e+00 7.133e+00
34 1 5.280e+00 5.281e+00 7.024e+00
39 1 3.496e+00 7.063e+00 7.086e+00
37 1 1.744e+00 8.815e+00 7.056e+00
44 1 3.491e+00 1.056e+01 7.058e+00
40 1 5.280e+00 8.872e+00 7.132e+00
46 1 1.744e+00 1.743e+00 1.058e+01
30 1 3.493e+00 1.742e+00 8.816e+00
32 1 1.744e+00 3.492e+00 8.816e+00
49 1 3.497e+00 3.497e+00 1.055e+01
47 1 5.280e+00 1.679e+00 1.050e+01
35 1 5.280e+00 3.517e+00 8.817e+00
48 1 1.678e+00 5.280e+00 1.050e+01
36 1 3.516e+00 5.281e+00 8.817e+00
50 1 5.281e+00 5.283e+00 1.059e+01
38 1 1.742e+00 7.068e+00 8.816e+00
52 1 3.495e+00 7.064e+00 1.055e+01
41 1 5.280e+00 7.045e+00 8.816e+00
43 1 1.743e+00 1.056e+01 8.815e+00
51 1 1.741e+00 8.818e+00 1.058e+01
42 1 3.491e+00 8.816e+00 8.816e+00
54 1 3.489e+00 1.056e+01 1.057e+01
45 1 5.280e+00 1.056e+01 8.811e+00
53 1 5.280e+00 8.882e+00 1.049e+01
55 1 7.081e+00 1.724e+00 1.778e+00
56 1 1.056e+01 1.739e+00 1.791e+00
57 1 8.837e+00 3.475e+00 1.778e+00
58 1 7.318e+00 5.278e+00 1.632e+00
59 1 1.056e+01 5.279e+00 1.761e+00
60 1 8.837e+00 7.083e+00 1.778e+00
61 1 7.085e+00 8.837e+00 1.779e+00
62 1 1.056e+01 8.822e+00 1.792e+00
63 1 8.821e+00 1.056e+01 1.792e+00
64 1 8.787e+00 1.773e+00 3.541e+00
65 1 7.077e+00 1.730e+00 5.298e+00
71 1 1.056e+01 3.516e+00 3.540e+00
66 1 1.056e+01 1.743e+00 5.287e+00
69 1 8.828e+00 3.483e+00 5.298e+00
67 1 6.949e+00 3.610e+00 3.531e+00
70 1 7.292e+00 5.281e+00 5.441e+00
68 1 8.828e+00 5.279e+00 3.541e+00
72 1 1.056e+01 5.279e+00 5.316e+00
74 1 8.789e+00 8.788e+00 3.541e+00
73 1 6.950e+00 6.949e+00 3.530e+00
77 1 1.056e+01 7.042e+00 3.540e+00
75 1 8.830e+00 7.077e+00 5.297e+00
79 1 7.043e+00 1.056e+01 3.540e+00
76 1 7.077e+00 8.828e+00 5.296e+00
81 1 1.056e+01 1.056e+01 3.542e+00
78 1 1.056e+01 8.817e+00 5.287e+00
80 1 8.817e+00 1.056e+01 5.287e+00
85 1 7.063e+00 3.497e+00 7.086e+00
82 1 8.814e+00 1.744e+00 7.056e+00
89 1 1.056e+01 3.491e+00 7.058e+00
86 1 8.873e+00 5.280e+00 7.133e+00
91 1 7.064e+00 7.064e+00 7.086e+00
95 1 1.056e+01 7.068e+00 7.058e+00
97 1 7.068e+00 1.056e+01 7.058e+00
92 1 8.816e+00 8.815e+00 7.056e+00
99 1 1.056e+01 1.056e+01 7.050e+00
83 1 7.067e+00 1.742e+00 8.816e+00
101 1 7.063e+00 3.496e+00 1.055e+01
84 1 1.056e+01 1.743e+00 8.815e+00
100 1 8.817e+00 1.742e+00 1.058e+01
87 1 8.816e+00 3.491e+00 8.816e+00
103 1 1.056e+01 3.488e+00 1.057e+01
88 1 7.044e+00 5.281e+00 8.817e+00
90 1 1.056e+01 5.279e+00 8.812e+00
102 1 8.882e+00 5.279e+00 1.049e+01
104 1 7.065e+00 7.065e+00 1.055e+01
93 1 8.818e+00 7.068e+00 8.816e+00
106 1 1.056e+01 7.071e+00 1.057e+01
94 1 7.069e+00 8.817e+00 8.816e+00
107 1 7.071e+00 1.056e+01 1.057e+01
96 1 1.056e+01 8.818e+00 8.814e+00
98 1 8.817e+00 1.056e+01 8.814e+00
105 1 8.819e+00 8.818e+00 1.058e+01
108 1 1.056e+01 1.056e+01 1.058e+01
ITEM: TIMESTEP
6000
ITEM: NUMBER OF ATOMS
109
ITEM: BOX BOUNDS pp pp pp
8.8000000000000000e-01 1.1440000000000000e+01
8.8000000000000000e-01 1.1440000000000000e+01
8.8000000000000000e-01 1.1440000000000000e+01
ITEM: ATOMS id type x y z
1 1 3.478e+00 1.725e+00 1.777e+00
2 1 1.725e+00 3.478e+00 1.777e+00
3 1 5.280e+00 3.250e+00 1.633e+00
4 1 3.249e+00 5.279e+00 1.633e+00
16 1 5.281e+00 5.282e+00 2.471e+00
5 1 1.726e+00 7.082e+00 1.777e+00
6 1 5.280e+00 7.313e+00 1.633e+00
8 1 1.740e+00 1.056e+01 1.789e+00
7 1 3.477e+00 8.835e+00 1.777e+00
9 1 5.280e+00 1.056e+01 1.760e+00
10 1 1.772e+00 1.772e+00 3.538e+00
12 1 3.480e+00 1.728e+00 5.297e+00
14 1 1.729e+00 3.481e+00 5.297e+00
11 1 5.280e+00 1.731e+00 3.539e+00
17 1 5.280e+00 3.258e+00 5.442e+00
13 1 1.731e+00 5.280e+00 3.539e+00
18 1 3.260e+00 5.280e+00 5.441e+00
15 1 3.610e+00 3.610e+00 3.534e+00
109 1 5.279e+00 5.275e+00 4.567e+00
19 1 1.772e+00 8.788e+00 3.538e+00
20 1 1.729e+00 7.080e+00 5.296e+00
21 1 3.611e+00 6.949e+00 3.534e+00
23 1 5.280e+00 7.296e+00 5.439e+00
26 1 3.517e+00 1.056e+01 3.538e+00
25 1 1.742e+00 1.056e+01 5.285e+00
24 1 3.482e+00 8.830e+00 5.296e+00
22 1 5.280e+00 8.829e+00 3.539e+00
27 1 5.280e+00 1.056e+01 5.315e+00
28 1 1.744e+00 1.744e+00 7.056e+00
33 1 3.497e+00 3.497e+00 7.085e+00
29 1 5.280e+00 1.683e+00 7.135e+00
31 1 1.684e+00 5.280e+00 7.135e+00
34 1 5.280e+00 5.279e+00 7.026e+00
39 1 3.497e+00 7.063e+00 7.084e+00
37 1 1.744e+00 8.816e+00 7.056e+00
44 1 3.491e+00 1.056e+01 7.059e+00
40 1 5.280e+00 8.874e+00 7.133e+00
46 1 1.744e+00 1.744e+00 1.058e+01
30 1 3.493e+00 1.743e+00 8.816e+00
32 1 1.744e+00 3.493e+00 8.816e+00
49 1 3.497e+00 3.497e+00 1.055e+01
47 1 5.280e+00 1.681e+00 1.050e+01
35 1 5.280e+00 3.516e+00 8.816e+00
48 1 1.681e+00 5.280e+00 1.050e+01
36 1 3.517e+00 5.280e+00 8.816e+00
50 1 5.280e+00 5.281e+00 1.060e+01
38 1 1.743e+00 7.068e+00 8.816e+00
52 1 3.496e+00 7.063e+00 1.055e+01
41 1 5.280e+00 7.043e+00 8.816e+00
43 1 1.743e+00 1.056e+01 8.816e+00
51 1 1.743e+00 8.817e+00 1.058e+01
42 1 3.492e+00 8.816e+00 8.816e+00
54 1 3.490e+00 1.056e+01 1.057e+01
45 1 5.280e+00 1.056e+01 8.814e+00
53 1 5.280e+00 8.879e+00 1.050e+01
55 1 7.082e+00 1.726e+00 1.777e+00
56 1 1.056e+01 1.740e+00 1.789e+00
57 1 8.835e+00 3.478e+00 1.777e+00
58 1 7.312e+00 5.279e+00 1.633e+00
59 1 1.056e+01 5.281e+00 1.760e+00
60 1 8.834e+00 7.082e+00 1.777e+00
61 1 7.083e+00 8.835e+00 1.777e+00
62 1 1.056e+01 8.821e+00 1.789e+00
63 1 8.820e+00 1.056e+01 1.789e+00
64 1 8.788e+00 1.772e+00 3.538e+00
65 1 7.080e+00 1.728e+00 5.297e+00
71 1 1.056e+01 3.517e+00 3.538e+00
66 1 1.056e+01 1.742e+00 5.285e+00
69 1 8.831e+00 3.481e+00 5.297e+00
67 1 6.950e+00 3.610e+00 3.534e+00
70 1 7.298e+00 5.281e+00 5.441e+00
68 1 8.829e+00 5.280e+00 3.539e+00
72 1 1.056e+01 5.281e+00 5.315e+00
74 1 8.788e+00 8.788e+00 3.538e+00
73 1 6.949e+00 6.949e+00 3.533e+00
77 1 1.056e+01 7.044e+00 3.538e+00
75 1 8.831e+00 7.079e+00 5.296e+00
79 1 7.044e+00 1.056e+01 3.538e+00
76 1 7.079e+00 8.830e+00 5.296e+00
81 1 1.056e+01 1.056e+01 3.538e+00
78 1 1.056e+01 8.818e+00 5.285e+00
80 1 8.818e+00 1.056e+01 5.285e+00
85 1 7.063e+00 3.497e+00 7.085e+00
82 1 8.816e+00 1.744e+00 7.056e+00
89 1 1.056e+01 3.491e+00 7.059e+00
86 1 8.875e+00 5.280e+00 7.134e+00
91 1 7.063e+00 7.063e+00 7.084e+00
95 1 1.056e+01 7.069e+00 7.059e+00
97 1 7.069e+00 1.056e+01 7.059e+00
92 1 8.816e+00 8.816e+00 7.056e+00
99 1 1.056e+01 1.056e+01 7.050e+00
83 1 7.068e+00 1.743e+00 8.816e+00
101 1 7.063e+00 3.497e+00 1.055e+01
84 1 1.056e+01 1.744e+00 8.816e+00
100 1 8.816e+00 1.744e+00 1.058e+01
87 1 8.816e+00 3.493e+00 8.816e+00
103 1 1.056e+01 3.491e+00 1.057e+01
88 1 7.043e+00 5.280e+00 8.816e+00
90 1 1.056e+01 5.280e+00 8.814e+00
102 1 8.879e+00 5.280e+00 1.050e+01
104 1 7.064e+00 7.063e+00 1.055e+01
93 1 8.817e+00 7.068e+00 8.816e+00
106 1 1.056e+01 7.071e+00 1.057e+01
94 1 7.068e+00 8.816e+00 8.816e+00
107 1 7.070e+00 1.056e+01 1.057e+01
96 1 1.056e+01 8.818e+00 8.815e+00
98 1 8.817e+00 1.056e+01 8.816e+00
105 1 8.817e+00 8.817e+00 1.058e+01
108 1 1.056e+01 1.056e+01 1.058e+01
ITEM: TIMESTEP
7000
ITEM: NUMBER OF ATOMS
109
ITEM: BOX BOUNDS pp pp pp
8.8000000000000000e-01 1.1440000000000000e+01
8.8000000000000000e-01 1.1440000000000000e+01
8.8000000000000000e-01 1.1440000000000000e+01
ITEM: ATOMS id type x y z
1 1 3.478e+00 1.724e+00 1.778e+00
2 1 1.725e+00 3.478e+00 1.778e+00
3 1 5.280e+00 3.248e+00 1.634e+00
4 1 3.249e+00 5.279e+00 1.634e+00
16 1 5.280e+00 5.279e+00 2.475e+00
5 1 1.725e+00 7.082e+00 1.777e+00
6 1 5.280e+00 7.309e+00 1.634e+00
8 1 1.739e+00 1.056e+01 1.788e+00
7 1 3.477e+00 8.833e+00 1.777e+00
9 1 5.280e+00 1.056e+01 1.759e+00
10 1 1.771e+00 1.770e+00 3.538e+00
12 1 3.480e+00 1.727e+00 5.296e+00
14 1 1.727e+00 3.480e+00 5.296e+00
11 1 5.280e+00 1.728e+00 3.538e+00
17 1 5.280e+00 3.257e+00 5.439e+00
13 1 1.730e+00 5.281e+00 3.538e+00
18 1 3.258e+00 5.279e+00 5.438e+00
15 1 3.609e+00 3.608e+00 3.534e+00
109 1 5.279e+00 5.278e+00 4.571e+00
19 1 1.771e+00 8.788e+00 3.538e+00
20 1 1.728e+00 7.080e+00 5.297e+00
21 1 3.610e+00 6.949e+00 3.534e+00
23 1 5.280e+00 7.300e+00 5.437e+00
26 1 3.516e+00 1.056e+01 3.538e+00
25 1 1.741e+00 1.056e+01 5.287e+00
24 1 3.480e+00 8.831e+00 5.296e+00
22 1 5.280e+00 8.828e+00 3.537e+00
27 1 5.281e+00 1.056e+01 5.315e+00
28 1 1.746e+00 1.746e+00 7.057e+00
33 1 3.498e+00 3.498e+00 7.083e+00
29 1 5.280e+00 1.683e+00 7.134e+00
31 1 1.684e+00 5.281e+00 7.134e+00
34 1 5.280e+00 5.281e+00 7.025e+00
39 1 3.496e+00 7.063e+00 7.083e+00
37 1 1.744e+00 8.817e+00 7.058e+00
44 1 3.492e+00 1.056e+01 7.059e+00
40 1 5.280e+00 8.873e+00 7.134e+00
46 1 1.745e+00 1.746e+00 1.058e+01
30 1 3.494e+00 1.744e+00 8.816e+00
32 1 1.745e+00 3.494e+00 8.816e+00