LAMMPS data file via write_data, version 27 May 2021, timestep = 7645

2917 atoms
1 atom types

-0.0038143906792746578 31.683814390679157 xlo xhi
-0.0038143906792746578 31.683814390679157 ylo yhi
-0.0038143906792746578 31.683814390679157 zlo zhi

Masses

1 58.71

Atoms # atomic

2 1 1.7559127758893758 1.7559127732650974 -0.003789194215909328 0 0 0
8 1 3.5157911141448213 1.7558842712687652 1.7560059348100792 0 0 0
6 1 5.275815793937603 1.7557777287137437 -0.0036119308367497686 0 0 0
12 1 7.036168767299801 1.7557470296260285 1.7560059365514342 0 0 0
9 1 7.036155936646794 31.68381439049566 -0.0035866186382837377 0 -1 0
16 1 10.557418211433626 1.7556205669117297 1.7560059338437277 0 0 0
10 1 8.796657361192446 1.7555987219799967 -0.003409690791529978 0 0 0
11 1 8.796711402011777 31.683814388149905 1.7560059349081747 0 -1 0
13 1 10.557388803264269 31.683814387401053 -0.0034704003922745455 0 -1 0
14 1 12.318203428312795 1.7554557966353668 -0.0032905038613758046 0 0 0
15 1 12.318220155581287 31.683814389736867 1.7560059348430912 0 -1 0
18 1 14.079107341748681 1.7555480246896342 1.7560059334217923 0 0 0
17 1 14.079088275942294 31.683814387333467 -0.0034345430742836885 0 -1 0
292 1 -0.0038143901820807563 26.404222784764144 5.27551767535817 0 0 0
21 1 1.755884271933649 3.5157911151008294 1.7560059301495592 0 0 0
25 1 5.275788456043897 3.5156211505507424 1.756005935449173 0 0 0
23 1 3.5156659034403743 3.515665900809484 -0.003603594036330941 0 0 0
27 1 7.036030159925053 3.5153950571022747 -0.003284334049197859 0 0 0
29 1 8.796711985575318 3.515447056968404 1.7560059322087085 0 0 0
31 1 10.557356964964097 3.5151821687465583 -0.003025750565398883 0 0 0
33 1 12.318304672129218 3.5154104303873805 1.756005931750384 0 0 0
35 1 14.079103501953584 3.515095495491921 -0.0028916545475518884 0 0 0
39 1 1.755747032129738 7.036168765179828 1.7560059312854552 0 0 0
20 1 1.7557777313728642 5.275815793649391 -0.003611933662227332 0 0 0
657 1 14.079544265874809 -0.0038143847931611623 14.078667361154858 0 0 0
26 1 3.5156211524379546 5.2757884552425445 1.756005932801392 0 0 0
43 1 5.275653804438102 7.036109920405075 1.7560059308744902 0 0 0
41 1 3.5153950588307663 7.03603016175599 -0.003284336065919061 0 0 0
24 1 5.275574151468906 5.275574150223232 -0.0032279209230272428 0 0 0
30 1 7.036109922843013 5.275653802722701 1.756005931276133 0 0 0
45 1 7.035893500600319 7.035893500380109 -0.0027664501376725983 0 0 0
47 1 8.796955552812772 7.03632332623418 1.7560059279488032 0 0 0
34 1 10.557600990369027 5.275747368064769 1.7560059294048267 0 0 0
28 1 8.796576163943987 5.2753801285987345 -0.0028321186384340246 0 0 0
49 1 10.557566943540746 7.036114162560978 -0.0027032009326796815 0 0 0
51 1 12.318719556693317 7.036891801858123 1.7560059276063615 0 0 0
32 1 12.318292221454662 5.27543689077803 -0.0027186085147443547 0 0 0
36 1 14.079273418011017 5.276062157238398 1.7560059297366708 0 0 0
53 1 14.079313780527672 7.036587054675388 -0.0032495596727149987 0 0 0
810 1 14.079603673779745 29.923061017515924 15.839197310209027 0 0 0
38 1 1.7555987228119019 8.79665736213532 -0.0034096932623044894 0 0 0
736 1 12.319162258014027 -0.0038143861512026445 15.839251626943131 0 0 0
44 1 3.5154470577073704 8.796711985208308 1.7560059302646698 0 0 0
42 1 5.275380128306457 8.796576163379665 -0.0028321205395472585 0 0 0
48 1 7.0363233272877235 8.796955551301906 1.7560059269070718 0 0 0
52 1 10.558231911649944 8.797651273196372 1.7560059240872539 0 0 0
46 1 8.796857513354478 8.796857510123258 -0.002720023869018921 0 0 0
50 1 12.31880058590191 8.797557049451049 -0.003639563273433006 0 0 0
54 1 14.079528674853906 8.798090754063422 1.7560059204687084 0 0 0
57 1 1.755620568710132 10.557418208975252 1.7560059302864244 0 0 0
728 1 12.31884376716294 29.923565083395232 14.078498364178 0 0 0
61 1 5.275747367976388 10.557600987290469 1.7560059272970594 0 0 0
59 1 3.515182170099215 10.557356962783006 -0.0030257550915978966 0 0 0
63 1 7.036114163435714 10.557566940450158 -0.00270320340423718 0 0 0
65 1 8.797651272895694 10.558231909643055 1.7560059202312364 0 0 0
67 1 10.55828174387792 10.55828173952464 -0.0038044134083240746 0 0 0
69 1 12.319186108617725 10.55876738112657 1.7560059167063924 0 0 0
809 1 10.55824028739033 29.923800823609536 15.839153755517744 0 0 0
75 1 1.7555480276585058 14.079107338301517 1.756005930587974 0 0 0
56 1 1.7554557985570634 12.318203429063807 -0.003290508599586055 0 0 0
726 1 8.796957991612992 29.92451622084345 14.078276636802464 0 0 0
62 1 3.515410432789555 12.318304670123519 1.7560059281263292 0 0 0
79 1 5.276062159889795 14.079273417053827 1.756005926500802 0 0 0
77 1 3.515095499982202 14.079103501691822 -0.0028916577004967385 0 0 0
60 1 5.275436892893882 12.318292217021925 -0.0027186140613236136 0 0 0
66 1 7.0368918005619285 12.318719555121943 1.7560059211849661 0 0 0
81 1 7.036587055318667 14.07931377680702 -0.0032495663651336206 0 0 0
83 1 8.798090754158821 14.079528672824756 1.756005915264141 0 0 0
64 1 8.797557052996076 12.318800582337985 -0.003639568353960293 0 0 0
70 1 10.558767381984413 12.319186107205466 1.7560059138639024 0 0 0
87 1 12.319454383543247 14.07973138028635 1.7560059092013032 0 0 0
72 1 14.079731381733968 12.319454383368335 1.7560059122923812 0 0 0
74 1 1.7553613001014887 15.84000000043571 -0.0032172181129605615 0 0 0
80 1 3.5154917062929747 15.839999998797245 1.756005930701662 0 0 0
78 1 5.275610411905952 15.839999998426428 -0.0029094379409125917 0 0 0
84 1 7.037115560162968 15.839999998313898 1.75600592137483 0 0 0
88 1 10.558957488450389 15.83999999795846 1.7560059116852746 0 0 0
90 1 14.079799556083637 15.8400000012487 1.756005907315802 0 0 0
93 1 1.7555480277690783 17.600892656811087 1.756005932274238 0 0 0
92 1 1.7554558014868458 19.361796572534242 -0.0032905041001021983 0 0 0
721 1 -0.003814387546483459 28.164565148571523 14.07813747720959 0 0 0
95 1 3.5150955008185343 17.600896497997855 -0.00289165444398096 0 0 0
98 1 3.5154104318094226 19.36169532643661 1.756005933541445 0 0 0
97 1 5.276062160654146 17.600726581094282 1.756005929993325 0 0 0
96 1 5.275436892439288 19.36170778082889 -0.002718608074407708 0 0 0
99 1 7.036587055816016 17.600686220529425 -0.003249562953444012 0 0 0
102 1 7.036891803817638 19.361280441714314 1.756005925231864 0 0 0
101 1 8.798090756614625 17.60047132280261 1.7560059159259325 0 0 0
100 1 8.797557053172422 19.361199413567057 -0.0036395646587749366 0 0 0
106 1 10.558767383667522 19.36081388983874 1.7560059147264375 0 0 0
105 1 12.319454383263537 17.600268618814635 1.756005908971692 0 0 0
108 1 14.079731382401532 19.3605456168218 1.7560059090683888 0 0 0
111 1 1.7556205695195493 21.12258178827774 1.7560059355815476 0 0 0
115 1 5.275747368644564 21.12239900820588 1.7560059334914626 0 0 0
113 1 3.515182171609072 21.12264303494287 -0.0030257485227787877 0 0 0
117 1 7.036114164305568 21.12243305683755 -0.0027031982876881615 0 0 0
119 1 8.797651275900336 21.121768086613926 1.756005922591929 0 0 0
121 1 10.558281743171618 21.12171825485691 -0.003804413285437729 0 0 0
123 1 12.319186109833824 21.12123261743995 1.7560059145752187 0 0 0
451 1 -0.0038143905407981874 24.643997987365566 7.035497942521061 0 0 0
110 1 1.7555987244628344 22.883342638063038 -0.0034096891790191142 0 0 0
116 1 3.515447058240078 22.883288012342522 1.7560059368454022 0 0 0
114 1 5.275380129754887 22.88342383422359 -0.0028321137706325207 0 0 0
120 1 7.036323328489196 22.88304444542993 1.7560059316132848 0 0 0
124 1 10.558231912602585 22.882348724285777 1.756005922586202 0 0 0
118 1 8.796857512733643 22.883142485872416 -0.0027200202345642956 0 0 0
122 1 12.318800583755847 22.882442946859133 -0.0036395661323977 0 0 0
126 1 14.079528675181475 22.881909244285907 1.75600591550663 0 0 0
129 1 1.7557470301991407 24.643831233519748 1.7560059355015658 0 0 0
128 1 1.7557777284550282 26.404184205547267 -0.00361193177621431 0 0 0
807 1 7.0361139566796815 29.924786128486595 15.839007539360534 0 0 0
724 1 5.275349216728632 29.924857581115962 14.078099071331348 0 0 0
134 1 3.515621150851851 26.40421154347086 1.7560059345172307 0 0 0
133 1 5.2756538034012 24.64389007665106 1.7560059355776014 0 0 0
132 1 5.275574148945774 26.404425849476134 -0.0032279187218624376 0 0 0
131 1 3.5153950588654097 24.643969839160835 -0.003284332045479486 0 0 0
138 1 7.036109921284118 26.404346194887875 1.756005934346246 0 0 0
135 1 7.035893500072666 24.64410649883256 -0.0027664450289903784 0 0 0
139 1 10.5575669417075 24.643885835207353 -0.002703200290497905 0 0 0
137 1 8.79695555334323 24.64367667169184 1.7560059300148414 0 0 0
142 1 10.55760098999353 26.40425263045292 1.7560059302321966 0 0 0
136 1 8.796576164875063 26.40461987053862 -0.00283211656287622 0 0 0
140 1 12.318292216773308 26.40456310593409 -0.0027186104014724874 0 0 0
141 1 12.318719556588825 24.643108195837186 1.7560059241398918 0 0 0
712 1 -0.0038143886502018036 24.643602895440385 14.078294385141549 0 0 0
143 1 14.079313778302723 24.64341294254729 -0.003249563943647245 0 0 0
144 1 14.079273416737221 26.403937839608503 1.7560059261972252 0 0 0
147 1 1.755884272044835 28.164208884654872 1.7560059372309913 0 0 0
805 1 3.515202950267475 29.924692228649665 15.838948829388661 0 0 0
149 1 3.5156658994660144 28.164334100158733 -0.0036035943722559096 0 0 0
151 1 5.2757884552067775 28.164378846952395 1.7560059342542247 0 0 0
153 1 7.036030160181264 28.164604940163247 -0.003284333538928878 0 0 0
157 1 10.557356962111347 28.164817828095348 -0.0030257515685345247 0 0 0
155 1 8.796711985826542 28.16455294087235 1.756005934613752 0 0 0
159 1 12.318304670812982 28.16458956644527 1.7560059313262364 0 0 0
161 1 14.079103500883582 28.16490449849482 -0.002891655809476881 0 0 0
1532 1 15.839999999746006 14.079799558211194 1.7560059093641904 0 0 0
3 1 1.7559455315916217 31.6838143899764 1.7560059356482993 0 -1 0
146 1 1.7559127712473326 29.924087229476946 -0.003789188741941878 0 0 0
1856 1 15.83999999689067 14.079139111306192 8.802565693503132 0 0 0
7 1 5.275885751790377 31.683814389119686 1.756005936783335 0 -1 0
5 1 3.515793826260435 -0.003814390110864707 -0.0037553976033975326 0 0 0
152 1 3.515791115546342 29.924115727541174 1.7560059371192587 0 0 0
150 1 5.275815793603904 29.92422227039792 -0.003611932206504832 0 0 0
156 1 7.03616876613991 29.924252967844986 1.7560059345554713 0 0 0
154 1 8.796657360152137 29.92440127552466 -0.003409691839302048 0 0 0
160 1 10.557418211484139 29.924379429218945 1.7560059334470108 0 0 0
158 1 12.318203427041263 29.924544197989704 -0.0032905046229330824 0 0 0
162 1 14.079107341484933 29.924451971797584 1.7560059330161735 0 0 0
164 1 1.7559127717586316 1.755912772679983 3.5158010580529075 0 0 0
722 1 1.7555740819640797 29.924425914778134 14.078107617029968 0 0 0
168 1 5.275815792268182 1.7557777288780034 3.515623800488385 0 0 0
170 1 3.515675257922897 1.7557852689719544 5.275579777092322 0 0 0
169 1 5.275777213554823 31.68381438899966 5.275517674795945 0 -1 0
174 1 7.035994758073511 1.7555325782355427 5.275229926045846 0 0 0
172 1 8.796657362642966 1.7555987222601848 3.5154215570226732 0 0 0
178 1 10.557271611602413 1.7552903485562645 5.275004035943735 0 0 0
175 1 10.557388806921928 31.68381438875314 3.515482268640922 0 -1 0
176 1 12.318203428510927 1.755455797515779 3.515302371357104 0 0 0
177 1 12.318194898454399 -0.0038143900502356563 5.275277727098455 0 0 0
180 1 14.079049058085854 1.7551333113199228 5.274956936030068 0 0 0
179 1 14.079088279202804 -0.003814389808728196 3.515446411429103 0 0 0
2170 1 15.839999999261343 26.402655026542615 14.077014655122378 0 0 0
183 1 1.7557852682640294 3.5156752591883498 5.275579775763627 0 0 0
729 1 14.079272360838067 28.162967208544284 14.078070756332869 0 0 0
185 1 3.515665897665456 3.5156659008138402 3.5156154612916346 0 0 0
187 1 5.275500746916065 3.5153041196770647 5.27510052232021 0 0 0
189 1 7.036030162566049 3.5153950562968146 3.5152961988230764 0 0 0
193 1 10.557356965323285 3.5151821694723298 3.515037613457195 0 0 0
191 1 8.796309978560645 3.514829525479507 5.2745483496855 0 0 0
195 1 12.317968848318975 3.5144653937288846 5.274219634704433 0 0 0
197 1 14.079103502646255 3.5150954970772292 3.5149035181745316 0 0 0
1855 1 15.839999997556612 15.840000005134982 7.040945739916497 0 0 0
182 1 1.7557777286857748 5.275815791946183 3.5156237979522986 0 0 0
201 1 1.7555325802476633 7.035994753748163 5.27522992557473 0 0 0
203 1 3.5153950594867056 7.036030158538142 3.5152961993889162 0 0 0
186 1 5.2755741513780885 5.275574148131041 3.515239785407184 0 0 0
188 1 3.5153041219700296 5.275500745491256 5.2751005217998514 0 0 0
205 1 5.274913593077662 7.035462794672407 5.27424645959657 0 0 0
207 1 7.035893501560673 7.035893498041477 3.5147783077172368 0 0 0
192 1 7.035462799703104 5.27491358982244 5.274246458598483 0 0 0
190 1 8.796576165975706 5.275380127837362 3.5148439764509396 0 0 0
211 1 10.557566944485465 7.036114164765034 3.5147150532248173 0 0 0
209 1 8.795789552723585 7.034930325124173 5.273367544208521 0 0 0
196 1 10.55683984029127 5.2744207100184575 5.273640178616898 0 0 0
194 1 12.31829221981017 5.275436892246504 3.5147304673692688 0 0 0
213 1 12.317795363450992 7.034803587454196 5.273435906034141 0 0 0
215 1 14.07931378000054 7.0365870553495915 3.5152614124758657 0 0 0
198 1 14.078870238071076 5.274131582920817 5.273468356486616 0 0 0
808 1 12.318663247788573 28.163106821544957 15.838974892266918 0 0 0
806 1 8.795965090470379 28.165413502995737 15.838827593622948 0 0 0
200 1 1.7555987242927003 8.79665735944076 3.5154215546917054 0 0 0
204 1 5.27538012861889 8.796576163390906 3.5148439768851985 0 0 0
206 1 3.514829527851648 8.79630997396695 5.274548350003423 0 0 0
210 1 7.034930323293745 8.795789552758551 5.273367543852327 0 0 0
208 1 8.796857510943408 8.79685751255348 3.5147318728389525 0 0 0
214 1 10.556800088949792 8.795793774672722 5.273584577387409 0 0 0
212 1 12.318800584763473 8.797557053472067 3.5156514054314965 0 0 0
216 1 14.079208427490164 8.796582974531917 5.275283765206601 0 0 0
727 1 10.55705050812541 28.164702549020337 14.077903899797859 0 0 0
219 1 1.7552903494765677 10.557271605895492 5.275004033646473 0 0 0
725 1 7.034781864699939 28.16605553853443 14.077766695601149 0 0 0
221 1 3.515182170612039 10.557356963286042 3.5150376102790255 0 0 0
223 1 5.274420707679797 10.556839838659812 5.273640175841822 0 0 0
225 1 7.036114162698547 10.55756694229704 3.5147150513152203 0 0 0
229 1 10.558281740559597 10.55828174255572 3.515816250063192 0 0 0
227 1 8.795793769479351 10.556800089764995 5.273584575306243 0 0 0
231 1 12.318593847302367 10.55779756524628 5.2760899504714045 0 0 0
233 1 14.079593068965686 10.558721507895392 3.5165435120945228 0 0 0
218 1 1.7554557995037983 12.318203425404166 3.5153023681008286 0 0 0
237 1 1.755133309547786 14.079049050205763 5.274956934542248 0 0 0
239 1 3.515095497647508 14.079103500568994 3.5149035157449195 0 0 0
222 1 5.275436891613929 12.318292220326747 3.5147304635666283 0 0 0
224 1 3.5144653940496573 12.317968846896278 5.274219631130734 0 0 0
241 1 5.2741315828527044 14.078870238022246 5.273468355652369 0 0 0
243 1 7.036587056117134 14.079313779989434 3.515261407921442 0 0 0
228 1 7.034803583154664 12.3177953636866 5.273435903639948 0 0 0
226 1 8.797557050593525 12.318800585236238 3.5156514021800027 0 0 0
245 1 8.79658297051033 14.079208426874693 5.275283765056729 0 0 0
232 1 10.55779755996419 12.318593849100168 5.276089950505044 0 0 0
247 1 10.558721504172674 14.07959306823936 3.5165435091242436 0 0 0
230 1 12.319255868988789 12.31925587218039 3.51674689279167 0 0 0
251 1 14.079758606770783 14.079758610117278 3.517289297039927 0 0 0
236 1 1.7553612979418696 15.839999994318857 3.515229082742408 0 0 0
1819 1 15.839999999550702 8.794228248543035 7.033903580378963 0 0 0
240 1 5.275610411645896 15.83999999929397 3.5149212934423675 0 0 0
242 1 3.5141890434189045 15.839999995159001 5.274006360222419 0 0 0
246 1 7.035154364440996 15.83999999987375 5.27416301950817 0 0 0
244 1 8.797812910710345 15.839999999406986 3.5159817221467784 0 0 0
250 1 10.558116956224298 15.840000000845565 5.276971045146124 0 0 0
248 1 12.31941213825084 15.840000000484597 3.5171073253812652 0 0 0
254 1 1.7554557967163862 19.361796566125 3.515302371075937 0 0 0
255 1 1.7551333096675603 17.600950935738688 5.274956936436641 0 0 0
257 1 3.515095496719241 17.600896494551517 3.5149035187447915 0 0 0
258 1 5.275436892635964 19.36170777841188 3.5147304678244056 0 0 0
260 1 3.514465392325528 19.36203114643428 5.274219633934623 0 0 0
259 1 5.274131582969793 17.60112976006924 5.273468356222005 0 0 0
261 1 7.036587057567994 17.600686220474287 3.515261409536342 0 0 0
264 1 7.0348035870210985 19.362204634813903 5.273435907006674 0 0 0
262 1 8.797557053651829 19.361199414048563 3.515651405090401 0 0 0
263 1 8.796582971462279 17.60079157324342 5.275283765261614 0 0 0
268 1 10.557797562459843 19.361406154075368 5.276089950811943 0 0 0
265 1 10.558721506451347 17.6004069304472 3.5165435093173016 0 0 0
266 1 12.319255871206817 19.360744129585434 3.516746890652808 0 0 0
269 1 14.079758608523704 17.600241393227265 3.5172892950535486 0 0 0
273 1 1.7552903479886115 21.122728383576675 5.275004037588752 0 0 0
275 1 3.5151821687207354 21.122643033759154 3.515037616533175 0 0 0
277 1 5.274420708551831 21.1231601555534 5.273640180594315 0 0 0
279 1 7.036114167215461 21.122433053713717 3.5147150558689337 0 0 0
283 1 10.5582817428233 21.121718256943996 3.515816249619011 0 0 0
281 1 8.795793773133076 21.123199910169618 5.273584580784515 0 0 0
285 1 12.318593846644594 21.1222024390606 5.276089950531335 0 0 0
287 1 14.079593068487128 21.121278494009253 3.516543509237783 0 0 0
272 1 1.7555987223851937 22.883342637818306 3.515421559169974 0 0 0
276 1 5.275380128888851 22.883423832362812 3.5148439822915023 0 0 0
278 1 3.5148295248818413 22.88369001971303 5.274548353412215 0 0 0
282 1 7.034930326184634 22.88421044420549 5.273367546381125 0 0 0
280 1 8.796857515097967 22.883142484725408 3.5147318744271963 0 0 0
286 1 10.556800089373038 22.884206227943693 5.273584578882024 0 0 0
284 1 12.318800584048757 22.882442947768443 3.5156514043860603 0 0 0
288 1 14.079208425199793 22.883417029760473 5.275283765600242 0 0 0
708 1 8.788373519513875 22.891626480931937 14.073978557643699 0 0 0
290 1 1.7557777307218667 26.404184204449976 3.5156238028265805 0 0 0
291 1 1.7555325788069038 24.644005240810404 5.27522992858867 0 0 0
293 1 3.515395057207688 24.6439698356033 3.5152962008706976 0 0 0
294 1 5.275574150971729 26.404425846206237 3.5152397864357217 0 0 0
296 1 3.51530412147569 26.404499248754153 5.275100526265926 0 0 0
295 1 5.274913591725999 24.644537199929168 5.274246461499267 0 0 0
297 1 7.0358935024947 24.644106497743962 3.5147783114977154 0 0 0
300 1 7.035462797016779 26.405086408132696 5.274246460308962 0 0 0
298 1 8.796576164919328 26.4046198715389 3.5148439791813297 0 0 0
301 1 10.55756694523207 24.643885834956638 3.514715053794136 0 0 0
299 1 8.795789554350637 24.645069675301382 5.273367545178869 0 0 0
304 1 10.556839843169243 26.405579293055542 5.273640178795621 0 0 0
302 1 12.318292221518613 26.404563106982412 3.5147304661675185 0 0 0
303 1 12.317795364484306 24.645196415481966 5.273435906147905 0 0 0
305 1 14.079313780248825 24.643412942860078 3.515261408265229 0 0 0
306 1 14.07887024127737 26.405868418264905 5.273468354362693 0 0 0
789 1 7.03023696640569 22.88940112236979 15.837908238464008 0 0 0
791 1 10.54615653496402 22.89381311624341 15.836994383219597 0 0 0
309 1 1.7557852714389452 28.164324736008734 5.275579780832275 0 0 0
804 1 5.274437701042109 28.165880323860776 15.838835288349447 0 0 0
311 1 3.51566590313282 28.164334095944064 3.5156154637238175 0 0 0
313 1 5.275500746864654 28.164695876017895 5.275100524268491 0 0 0
315 1 7.036030161298625 28.16460494094421 3.5152961992957352 0 0 0
319 1 10.557356965610019 28.16481782930763 3.5150376148776776 0 0 0
317 1 8.796309978985244 28.165170473963062 5.274548351233196 0 0 0
321 1 12.317968853092639 28.165534607324403 5.274219634199682 0 0 0
323 1 14.079103504112025 28.164904501907078 3.5149035159783053 0 0 0
165 1 1.755896987567612 31.68381438768431 5.275754607576165 0 -1 0
308 1 1.75591277542129 29.924087223777292 3.5158010643592887 0 0 0
2053 1 15.839999999317188 22.901144446516664 10.539879711943945 0 0 0
723 1 3.514727597005957 28.1652723990271 14.07796674171253 0 0 0
167 1 3.515793826018393 31.683814388522126 3.5157672694125917 0 -1 0
312 1 5.275815793361249 29.924222268678733 3.5156238013840833 0 0 0
314 1 3.51567526239909 29.92421472712025 5.275579780662424 0 0 0
171 1 7.036155936639905 31.683814388942114 3.5155984871416543 0 -1 0
318 1 7.035994757692751 29.924467420457123 5.275229927121335 0 0 0
173 1 8.79662179928364 31.683814389713007 5.275296586709587 0 -1 0
316 1 8.796657362278975 29.924401275868714 3.515421558146584 0 0 0
322 1 10.557271614265952 29.924709651635204 5.2750040369806666 0 0 0
320 1 12.318203430592686 29.924544201582425 3.5153023708668147 0 0 0
324 1 14.079049060610178 29.924866690955895 5.274956935182348 0 0 0
127 1 -0.00381439056244414 24.643844062751047 -0.0035866173038602575 0 0 0
326 1 1.7558048387230947 1.7558048373463784 7.035805185378761 0 0 0
330 1 5.275561220732817 1.7555208243640974 7.035464021348263 0 0 0
329 1 3.515646420317784 31.683814388861787 7.0357497034779986 0 -1 0
333 1 7.036002009359987 31.683814389904118 7.03549794114753 0 -1 0
334 1 8.796410389849044 1.755192853831385 7.035167443065323 0 0 0
338 1 12.318082665552762 1.7550566488762194 7.035191949341523 0 0 0
347 1 3.5153290891427136 3.515329084037278 7.035405580499228 0 0 0
351 1 7.035426139493224 3.5146425265936703 7.034694812849408 0 0 0
355 1 10.556707633767598 3.5140629682526705 7.034181486108844 0 0 0
359 1 14.078763279191406 3.5137840253084898 7.033993978821024 0 0 0
344 1 1.7555208278290617 5.275561217995434 7.035464022265944 0 0 0
365 1 3.5146425330888507 7.035426134681102 7.034694813518192 0 0 0
348 1 5.274743489796928 5.2747434832287565 7.034487735389513 0 0 0
369 1 7.034167715810285 7.0341677127681965 7.033028844007313 0 0 0
352 1 8.795274321625214 5.273709453270412 7.033340896620568 0 0 0
373 1 10.555414882956125 7.033011869911004 7.031856511001503 0 0 0
356 1 12.317117542261775 5.2729008449203825 7.0326497020251555 0 0 0
377 1 14.07816362252945 7.032222506335422 7.031532982504248 0 0 0
362 1 1.7551928568791306 8.796410384492235 7.035167443017514 0 0 0
366 1 5.273709453769109 8.795274320078743 7.033340896284878 0 0 0
370 1 8.793961074995108 8.793961077884209 7.031620653702399 0 0 0
374 1 12.316508633407912 8.793420704309971 7.03177406435124 0 0 0
802 1 1.755307766569914 28.16479704644228 15.838948833384958 0 0 0
1999 1 15.839999997780351 12.312169795158704 10.558525061407867 0 0 0
383 1 3.5140629678962974 10.556707630535914 7.034181484465562 0 0 0
387 1 7.0330118655914315 10.555414882834382 7.031856510008717 0 0 0
391 1 10.554968965282065 10.554968969278624 7.03198435755583 0 0 0
395 1 14.079006846651458 10.556470262621735 7.0361100017022835 0 0 0
380 1 1.7550566465085589 12.318082659819408 7.035191948980494 0 0 0
401 1 3.5137840233298285 14.078763274610786 7.033993979408703 0 0 0
384 1 5.27290084264801 12.317117542007537 7.032649699698683 0 0 0
405 1 7.032222502381132 14.078163621592106 7.031532981419101 0 0 0
388 1 8.79342069740591 12.316508633252694 7.031774064457696 0 0 0
409 1 10.556470255175686 14.07900684652055 7.036110000108287 0 0 0
249 1 12.31908986711257 14.079580433409598 5.277932683492105 0 0 0
392 1 12.318075647048278 12.318075650597628 7.037034809579922 0 0 0
234 1 14.079580430553044 12.319089874126519 5.277932685177402 0 0 0
413 1 14.07950433986863 14.07950434687915 7.040005958873163 0 0 0
398 1 1.7551941272170777 15.839999991830357 7.035348931189304 0 0 0
402 1 5.272104559281987 15.839999997907471 7.032022388755242 0 0 0
406 1 8.794228243815892 15.840000001234456 7.033903578474892 0 0 0
410 1 12.31846950224627 15.840000003322821 7.038988664669187 0 0 0
252 1 14.079703914248615 15.840000002681574 5.278822806503148 0 0 0
416 1 1.755056647467673 19.36191732546402 7.035191951043395 0 0 0
720 1 14.077609811718096 24.64440279839407 14.075060402682015 0 0 0
419 1 3.5137840230206323 17.60123671449336 7.033993981391235 0 0 0
420 1 5.272900843054239 19.362882452585016 7.0326497022978876 0 0 0
423 1 7.032222503775624 17.60183637707419 7.031532983837562 0 0 0
424 1 8.79342069992543 19.36349136942376 7.031774067099338 0 0 0
427 1 10.556470257063456 17.600993156642936 7.0361099978549 0 0 0
267 1 12.31908987035473 17.60041957056953 5.2779326829309055 0 0 0
428 1 12.318075645368452 19.361924355357914 7.037034808371059 0 0 0
270 1 14.079580430356797 19.36091013198268 5.27793268376308 0 0 0
431 1 14.079504341413706 17.600495661440075 7.040005958499244 0 0 0
801 1 14.079181612710071 26.40204281146908 15.838466990035878 0 0 0
799 1 12.315340248580556 24.64599764097361 15.837298461405506 0 0 0
437 1 3.5140629670519252 21.123292358779015 7.034181486631609 0 0 0
441 1 7.0330118656825515 21.12458511493075 7.031856513884425 0 0 0
445 1 10.55496896609568 21.125031035610803 7.031984361317576 0 0 0
449 1 14.079006842667797 21.1235297455903 7.036109998547637 0 0 0
434 1 1.755192853824203 22.883589604925803 7.035167445168288 0 0 0
438 1 5.273709451555082 22.88472567629611 7.033340897514613 0 0 0
442 1 8.793961075170557 22.886038925805135 7.031620657732391 0 0 0
446 1 12.316508629381593 22.886579303189347 7.031774065802549 0 0 0
719 1 12.317078144479064 26.404616520953578 14.077014785726004 0 0 0
452 1 1.7555208242387002 26.40443877623805 7.035464024344562 0 0 0
455 1 3.5146425258743665 24.644573858299893 7.034694815300225 0 0 0
456 1 5.274743483995959 26.40525651388607 7.034487736857882 0 0 0
459 1 7.034167712937607 24.645832286580166 7.033028844378061 0 0 0
460 1 8.795274320992407 26.406290549387016 7.033340895453406 0 0 0
463 1 10.55541488317898 24.64698813689184 7.031856511626338 0 0 0
464 1 12.317117547157393 26.40709915932256 7.0326497017305885 0 0 0
467 1 14.078163621245807 24.647777498771344 7.031532981834519 0 0 0
473 1 3.51532908658286 28.164670909839966 7.035405584516655 0 0 0
477 1 7.0354261377527205 28.16535747276057 7.034694813985842 0 0 0
481 1 10.556707638261512 28.1659370325186 7.034181485499853 0 0 0
485 1 14.078763284943976 28.16621597950988 7.033993980811491 0 0 0
470 1 1.7558048391383052 29.924195160334346 7.035805187470949 0 0 0
797 1 8.790598877488732 24.649763033620395 15.837908238350696 0 0 0
474 1 5.2755612212786644 29.92447917324938 7.0354640235996655 0 0 0
337 1 10.55735571332025 31.68381439064857 7.035497314369001 0 -1 0
478 1 8.796410391401997 29.92480714539449 7.035167444229621 0 0 0
482 1 12.318082670021193 29.924943353252107 7.035191950073192 0 0 0
341 1 14.079141025138375 -0.0038143870590146727 7.035745707418064 0 0 0
488 1 1.7556742366159424 1.7556742315500282 10.556645476925024 0 0 0
327 1 1.755794714544909 31.683814387914918 8.796174552242924 0 -1 0
332 1 3.515447908454291 1.755582904124193 8.795990710241588 0 0 0
492 1 5.2753563601769295 1.7552650851951253 10.5564504163982 0 0 0
331 1 5.275611114416031 31.683814389380608 8.795990739114794 0 -1 0
491 1 3.5154997821956147 31.683814386508264 10.55663640596715 0 -1 0
336 1 7.0357474411538 1.755187846203591 8.795701695362924 0 0 0
495 1 7.036041883610058 31.68381438898672 10.556644774635725 0 -1 0
340 1 10.557193834475267 1.7550799978666547 8.795742320202006 0 0 0
496 1 8.79644393019168 1.7550986745553423 10.556467951913566 0 0 0
335 1 8.796628577119982 31.683814390427013 8.795990118433355 0 -1 0
500 1 12.31834279915041 1.755686172170857 10.55682523783354 0 0 0
342 1 14.079107148325775 1.7554664138116258 8.796068499124761 0 0 0
345 1 1.7555829092458555 3.5154479050213374 8.795990709180616 0 0 0
349 1 5.274950537465014 3.514701582677188 8.79537614608417 0 0 0
509 1 3.514960747023446 3.5149607396578904 10.556318359595988 0 0 0
513 1 7.034886917776435 3.514032491108972 10.555730806840616 0 0 0
353 1 8.795609178588714 3.513947123513951 8.79474897546144 0 0 0
517 1 10.55632730093223 3.513999643435597 10.555564226253678 0 0 0
357 1 12.31745624416577 3.513853590146488 8.79461791739549 0 0 0
521 1 14.078865578325782 3.5152055179356885 10.555963631550286 0 0 0
363 1 1.7551878527135543 7.035747434813255 8.795701696016973 0 0 0
506 1 1.7552650936520529 5.275356356530092 10.556450411706944 0 0 0
350 1 3.5147015929382768 5.274950530716134 8.79537614545146 0 0 0
367 1 5.2735495050239205 7.034191504750155 8.794030997931557 0 0 0
527 1 3.514032499444553 7.034886913932752 10.555730802938612 0 0 0
510 1 5.2738951630737105 5.273895157269347 10.555387314328902 0 0 0
354 1 7.034191510675572 5.273549498937345 8.794030999543267 0 0 0
531 1 7.03235729081672 7.032357288279106 10.55348964948163 0 0 0
371 1 8.7932581815188 7.032165185850795 8.7918588054042 0 0 0
358 1 10.555254144523563 5.27240531426165 8.79291522835475 0 0 0
514 1 8.793917393360566 5.272431370220453 10.55411491582546 0 0 0
535 1 10.552547222349084 7.030082774614753 10.55122433187977 0 0 0
375 1 12.31517230035481 7.030422067131949 8.79030146191314 0 0 0
518 1 12.315941030710514 5.272268041451538 10.55360366045834 0 0 0
360 1 14.077937706663311 5.271817274705523 8.792350783074761 0 0 0
539 1 14.075927572978587 7.028595828766752 10.549664130615495 0 0 0
524 1 1.7550986767860197 8.796443925970117 10.55646795108306 0 0 0
368 1 3.5139471287316764 8.79560917683434 8.794748975054972 0 0 0
528 1 5.2724313733723145 8.793917390760502 10.55411491274365 0 0 0
372 1 7.032165187158121 8.793258180332323 8.79185880477641 0 0 0
376 1 10.552656219085533 8.790882708654312 8.789316074148458 0 0 0
532 1 8.790280542121135 8.790280541497705 10.55027127707635 0 0 0
536 1 12.311309976259416 8.786648334301953 10.54671585623234 0 0 0
378 1 14.076440727731521 8.788901078478425 8.788345977549444 0 0 0
381 1 1.7550799983487233 10.557193825943724 8.795742319135433 0 0 0
385 1 5.272405311770834 10.555254142525342 8.792915227334205 0 0 0
545 1 3.513999644954368 10.556327297639148 10.555564225245645 0 0 0
549 1 7.0300827743891405 10.55254722104943 10.551224332098931 0 0 0
389 1 8.790882705025986 10.55265622053278 8.78931607552102 0 0 0