LAMMPS data file via write_data, version 27 May 2021, timestep = 1007

33 atoms
1 atom types

-0.07638122974153674 7.116381229741615 xlo xhi
-0.07638122974153674 7.116381229741615 ylo yhi
-0.07638122974153674 7.116381229741615 zlo zhi

Masses

1 58.71

Atoms # atomic

1 1 -0.04541030599649465 -0.04541030599649436 -0.04541030599649444 0 0 0
13 1 3.4890290762550173 -0.04541030599649298 3.489029076255018 0 0 0
33 1 1.7218093851292642 1.721809385129263 1.721809385129264 0 0 0
5 1 3.489029076255018 -0.04541030599649387 -0.04541030599649425 0 0 0
29 1 3.489029076255017 3.4890290762550173 3.489029076255017 0 0 0
25 1 -0.045410305996493545 3.489029076255018 3.489029076255018 0 0 0
17 1 -0.04541030599649393 3.489029076255018 -0.045410305996493726 0 0 0
21 1 3.4890290762550173 3.4890290762550173 -0.04541030599649353 0 0 0
9 1 -0.04541030599649449 -0.045410305996493976 3.489029076255018 0 0 0
8 1 3.934558367278153 1.7218093851292606 1.721809385129262 0 0 0
4 1 6.701822862463525 1.721809385129261 1.7218093851292622 -1 0 0
2 1 1.721809385129261 1.721809385129261 6.701822862463523 0 0 -1
10 1 1.721809385129261 1.721809385129261 3.934558367278153 0 0 0
16 1 3.6312190722127036 1.7218093851292622 5.318190614870838 0 0 0
12 1 7.005162157528972 1.7218093851292622 5.318190614870838 -1 0 0
14 1 5.318190614870838 1.7218093851292622 3.6312190722127027 0 0 0
6 1 5.318190614870838 1.7218093851292622 7.005162157528973 0 0 -1
19 1 1.721809385129261 3.934558367278153 1.721809385129262 0 0 0
3 1 1.7218093851292606 6.701822862463528 1.7218093851292606 0 -1 0
24 1 3.6312190722127022 5.318190614870838 1.721809385129262 0 0 0
7 1 5.318190614870838 7.005162157528973 1.721809385129262 0 -1 0
20 1 7.005162157528973 5.318190614870838 1.7218093851292622 -1 0 0
23 1 5.318190614870838 3.6312190722127022 1.7218093851292622 0 0 0
27 1 1.721809385129262 3.6312190722127022 5.318190614870838 0 0 0
11 1 1.721809385129262 7.005162157528973 5.318190614870838 0 -1 0
18 1 1.721809385129262 5.318190614870838 7.005162157528973 0 0 -1
26 1 1.721809385129262 5.318190614870838 3.6312190722127022 0 0 0
32 1 3.558707120324674 5.318190614870838 5.318190614870838 0 0 0
15 1 5.318190614870838 7.0776741094170035 5.318190614870838 0 -1 0
31 1 5.318190614870838 3.558707120324673 5.318190614870838 0 0 0
28 1 7.077674109417003 5.318190614870838 5.318190614870838 -1 0 0
30 1 5.318190614870837 5.318190614870838 3.558707120324674 0 0 0
22 1 5.318190614870838 5.318190614870838 7.077674109417003 0 0 -1

Velocities

1 0 0 0
13 0 0 0
33 0 0 0
5 0 0 0
29 0 0 0
25 0 0 0
17 0 0 0
21 0 0 0
9 0 0 0
8 0 0 0
4 0 0 0
2 0 0 0
10 0 0 0
16 0 0 0
12 0 0 0
14 0 0 0
6 0 0 0
19 0 0 0
3 0 0 0
24 0 0 0
7 0 0 0
20 0 0 0
23 0 0 0
27 0 0 0
11 0 0 0
18 0 0 0
26 0 0 0
32 0 0 0
15 0 0 0
31 0 0 0
28 0 0 0
30 0 0 0
22 0 0 0
