ITEM: TIMESTEP
0
ITEM: NUMBER OF ATOMS
2927
ITEM: BOX BOUNDS pp pp pp
0.0000000000000000e+00 7.5914984029999999e+01
0.0000000000000000e+00 4.8774550720000001e+01
0.0000000000000000e+00 8.6222039000000006e+00
ITEM: ATOMS id type x y z c_1[1] c_1[2] c_1[3] c_1[4] c_1[5] c_1[6]
1 1 6.22253900000000e-01 8.16240700000000e-01 3.59258500000000e-01 6.581e+05 2.474e+05 3.959e+05 -2.478e+00 -7.054e-01 -3.040e+03
2 1 6.22253900000000e-01 2.84851380000000e+00 3.23332640000000e+00 7.906e+05 4.163e+05 4.457e+05 7.627e-02 2.790e-02 5.213e+04
4 1 1.88750400000000e+00 2.84851380000000e+00 1.07777560000000e+00 7.906e+05 4.163e+05 4.456e+05 1.634e+03 -3.169e+02 5.238e+04
6 1 1.88750400000000e+00 8.16240700000000e-01 2.51480960000000e+00 6.617e+05 2.458e+05 3.957e+05 7.779e+04 3.639e+04 -5.985e+03
7 1 3.15275310000000e+00 8.16240700000000e-01 3.59258500000000e-01 6.726e+05 2.412e+05 3.948e+05 1.543e+05 7.175e+04 -1.476e+04
8 1 3.15275310000000e+00 2.84851380000000e+00 3.23332640000000e+00 7.904e+05 4.166e+05 4.453e+05 3.408e+03 -6.745e+02 5.312e+04
10 1 4.41800310000000e+00 2.84851380000000e+00 1.07777560000000e+00 7.902e+05 4.170e+05 4.448e+05 5.448e+03 -1.108e+03 5.433e+04
12 1 4.41800310000000e+00 8.16240700000000e-01 2.51480960000000e+00 6.903e+05 2.330e+05 3.935e+05 2.286e+05 1.052e+05 -2.916e+04
13 1 5.68325330000000e+00 8.16240700000000e-01 3.59258500000000e-01 7.139e+05 2.206e+05 3.915e+05 2.997e+05 1.362e+05 -4.891e+04
14 1 5.68325330000000e+00 2.84851380000000e+00 3.23332640000000e+00 7.900e+05 4.177e+05 4.442e+05 7.834e+03 -1.644e+03 5.599e+04
16 1 6.94850220000000e+00 2.84851380000000e+00 1.07777560000000e+00 7.900e+05 4.188e+05 4.435e+05 1.061e+04 -2.298e+03 5.807e+04
18 1 6.94850220000000e+00 8.16240700000000e-01 2.51480960000000e+00 7.420e+05 2.031e+05 3.888e+05 3.668e+05 1.645e+05 -7.364e+04
19 1 8.21375280000000e+00 8.16240700000000e-01 3.59258500000000e-01 7.727e+05 1.791e+05 3.849e+05 4.292e+05 1.902e+05 -1.031e+05
20 1 8.21375280000000e+00 2.84851380000000e+00 3.23332640000000e+00 7.902e+05 4.202e+05 4.427e+05 1.378e+04 -3.072e+03 6.055e+04
22 1 9.47900200000000e+00 2.84851380000000e+00 1.07777560000000e+00 7.907e+05 4.220e+05 4.420e+05 1.732e+04 -3.961e+03 6.338e+04
24 1 9.47900200000000e+00 8.16240700000000e-01 2.51480960000000e+00 8.043e+05 1.474e+05 3.797e+05 4.861e+05 2.133e+05 -1.369e+05
25 1 1.07442513000000e+01 8.16240700000000e-01 3.59258500000000e-01 8.352e+05 1.066e+05 3.732e+05 5.366e+05 2.337e+05 -1.749e+05
26 1 1.07442513000000e+01 2.84851380000000e+00 3.23332640000000e+00 7.915e+05 4.242e+05 4.414e+05 2.114e+04 -4.948e+03 6.655e+04
28 1 1.20095015000000e+01 2.84851380000000e+00 1.07777560000000e+00 7.926e+05 4.266e+05 4.409e+05 2.514e+04 -6.010e+03 7.001e+04
30 1 1.20095015000000e+01 8.16240700000000e-01 2.51480960000000e+00 8.638e+05 5.555e+04 3.652e+05 5.804e+05 2.516e+05 -2.168e+05
31 1 1.32747517000000e+01 8.16240700000000e-01 3.59258500000000e-01 8.884e+05 -6.621e+03 3.559e+05 6.170e+05 2.674e+05 -2.625e+05
32 1 1.32747517000000e+01 2.84851380000000e+00 3.23332640000000e+00 7.940e+05 4.292e+05 4.406e+05 2.915e+04 -7.112e+03 7.375e+04
34 1 1.45400009000000e+01 2.84851380000000e+00 1.07777560000000e+00 7.956e+05 4.318e+05 4.405e+05 3.300e+04 -8.216e+03 7.775e+04
36 1 1.45400009000000e+01 8.16240700000000e-01 2.51480960000000e+00 9.078e+05 -8.035e+04 3.453e+05 6.463e+05 2.816e+05 -3.118e+05
37 1 1.58052511000000e+01 8.16240700000000e-01 3.59258500000000e-01 9.220e+05 -1.654e+05 3.338e+05 6.685e+05 2.941e+05 -3.646e+05
38 1 1.58052511000000e+01 2.84851380000000e+00 3.23332640000000e+00 7.972e+05 4.343e+05 4.406e+05 3.645e+04 -9.271e+03 8.201e+04
40 1 1.70705013000000e+01 2.84851380000000e+00 1.07777560000000e+00 7.988e+05 4.364e+05 4.410e+05 3.928e+04 -1.023e+04 8.650e+04
42 1 1.70705013000000e+01 8.16240700000000e-01 2.51480960000000e+00 9.312e+05 -2.609e+05 3.218e+05 6.833e+05 3.052e+05 -4.206e+05
43 1 1.83357506000000e+01 8.16240700000000e-01 3.59258500000000e-01 9.363e+05 -3.649e+05 3.100e+05 6.909e+05 3.144e+05 -4.795e+05
44 1 1.83357506000000e+01 2.84851380000000e+00 3.23332640000000e+00 8.003e+05 4.383e+05 4.416e+05 4.154e+04 -1.108e+04 9.119e+04
46 1 1.96009999000000e+01 2.84851380000000e+00 1.07777560000000e+00 8.018e+05 4.400e+05 4.425e+05 4.320e+04 -1.180e+04 9.605e+04
48 1 1.96009999000000e+01 8.16240700000000e-01 2.51480960000000e+00 9.387e+05 -4.752e+05 2.991e+05 6.914e+05 3.214e+05 -5.411e+05
49 1 2.08662492000000e+01 8.16240700000000e-01 3.59258500000000e-01 9.398e+05 -5.894e+05 2.895e+05 6.849e+05 3.257e+05 -6.047e+05
50 1 2.08662492000000e+01 2.84851380000000e+00 3.23332640000000e+00 8.033e+05 4.412e+05 4.435e+05 4.418e+04 -1.236e+04 1.011e+05
52 1 2.21314983000000e+01 2.84851380000000e+00 1.07777560000000e+00 8.046e+05 4.421e+05 4.447e+05 4.442e+04 -1.270e+04 1.062e+05
54 1 2.21314983000000e+01 8.16240700000000e-01 2.51480960000000e+00 9.404e+05 -7.051e+05 2.818e+05 6.716e+05 3.271e+05 -6.699e+05
55 1 2.33967495000000e+01 8.16240700000000e-01 3.59258500000000e-01 9.421e+05 -8.196e+05 2.763e+05 6.517e+05 3.251e+05 -7.360e+05
56 1 2.33967495000000e+01 2.84851380000000e+00 3.23332640000000e+00 8.058e+05 4.427e+05 4.460e+05 4.396e+04 -1.287e+04 1.114e+05
58 1 2.46619988000000e+01 2.84851380000000e+00 1.07777560000000e+00 8.069e+05 4.430e+05 4.476e+05 4.285e+04 -1.287e+04 1.166e+05
60 1 2.46619988000000e+01 8.16240700000000e-01 2.51480960000000e+00 9.464e+05 -9.303e+05 2.734e+05 6.254e+05 3.193e+05 -8.022e+05
61 1 2.59272480000000e+01 8.16240700000000e-01 3.59258500000000e-01 9.544e+05 -1.035e+06 2.730e+05 5.928e+05 3.094e+05 -8.673e+05
62 1 2.59272480000000e+01 2.84851380000000e+00 3.23332640000000e+00 8.078e+05 4.431e+05 4.492e+05 4.112e+04 -1.268e+04 1.216e+05
64 1 2.71924992000000e+01 2.84851380000000e+00 1.07777560000000e+00 8.086e+05 4.431e+05 4.509e+05 3.880e+04 -1.231e+04 1.265e+05
66 1 2.71924992000000e+01 8.16240700000000e-01 2.51480960000000e+00 9.672e+05 -1.131e+06 2.751e+05 5.540e+05 2.951e+05 -9.304e+05
67 2 2.84577484000000e+01 8.16240700000000e-01 3.59258500000000e-01 9.852e+05 -1.218e+06 2.793e+05 5.095e+05 2.764e+05 -9.902e+05
68 1 2.84577484000000e+01 2.84851380000000e+00 3.23332640000000e+00 8.092e+05 4.429e+05 4.526e+05 3.593e+04 -1.172e+04 1.310e+05
70 1 2.97229977000000e+01 2.84851380000000e+00 1.07777560000000e+00 8.096e+05 4.425e+05 4.543e+05 3.265e+04 -1.090e+04 1.352e+05
72 2 2.97229977000000e+01 8.16240700000000e-01 2.51480960000000e+00 1.008e+06 -1.294e+06 2.852e+05 4.597e+05 2.533e+05 -1.046e+06
73 2 3.09882470000000e+01 8.16240700000000e-01 3.59258500000000e-01 1.034e+06 -1.359e+06 2.921e+05 4.051e+05 2.260e+05 -1.096e+06
74 1 3.09882470000000e+01 2.84851380000000e+00 3.23332640000000e+00 8.096e+05 4.418e+05 4.559e+05 2.906e+04 -9.806e+03 1.389e+05
76 1 3.22534981000000e+01 2.84851380000000e+00 1.07777560000000e+00 8.094e+05 4.409e+05 4.572e+05 2.506e+04 -8.508e+03 1.420e+05
78 2 3.22534981000000e+01 8.16240700000000e-01 2.51480960000000e+00 1.062e+06 -1.413e+06 2.993e+05 3.459e+05 1.948e+05 -1.140e+06
79 2 3.35187454000000e+01 8.16240700000000e-01 3.59258500000000e-01 1.089e+06 -1.457e+06 3.062e+05 2.825e+05 1.603e+05 -1.178e+06
80 1 3.35187454000000e+01 2.84851380000000e+00 3.23332640000000e+00 8.090e+05 4.400e+05 4.583e+05 2.065e+04 -7.049e+03 1.445e+05
82 1 3.47839966000000e+01 2.84851380000000e+00 1.07777560000000e+00 8.087e+05 4.391e+05 4.592e+05 1.585e+04 -5.436e+03 1.465e+05
84 2 3.47839966000000e+01 8.16240700000000e-01 2.51480960000000e+00 1.114e+06 -1.489e+06 3.123e+05 2.153e+05 1.229e+05 -1.207e+06
85 2 3.60492477000000e+01 8.16240700000000e-01 3.59258500000000e-01 1.133e+06 -1.512e+06 3.171e+05 1.453e+05 8.322e+04 -1.229e+06
86 1 3.60492477000000e+01 2.84851380000000e+00 3.23332640000000e+00 8.084e+05 4.384e+05 4.598e+05 1.075e+04 -3.697e+03 1.480e+05
88 1 3.73144951000000e+01 2.84851380000000e+00 1.07777560000000e+00 8.082e+05 4.380e+05 4.602e+05 5.432e+03 -1.871e+03 1.488e+05
90 2 3.73144951000000e+01 8.16240700000000e-01 2.51480960000000e+00 1.145e+06 -1.526e+06 3.201e+05 7.319e+04 4.202e+04 -1.242e+06
3 1 6.22253900000000e-01 4.88078640000000e+00 1.79629260000000e+00 7.833e+05 4.062e+05 4.419e+05 -5.033e-03 -3.225e-03 5.144e+04
5 1 1.88750400000000e+00 4.88078640000000e+00 3.95184360000000e+00 7.833e+05 4.062e+05 4.419e+05 -9.365e+01 -6.531e+01 5.144e+04
9 1 3.15275310000000e+00 4.88078640000000e+00 1.79629260000000e+00 7.834e+05 4.062e+05 4.420e+05 -1.854e+02 -1.293e+02 5.143e+04
11 1 4.41800310000000e+00 4.88078640000000e+00 3.95184360000000e+00 7.834e+05 4.062e+05 4.420e+05 -2.735e+02 -1.908e+02 5.142e+04
15 1 5.68325330000000e+00 4.88078640000000e+00 1.79629260000000e+00 7.835e+05 4.062e+05 4.421e+05 -3.565e+02 -2.488e+02 5.141e+04
17 1 6.94850220000000e+00 4.88078640000000e+00 3.95184360000000e+00 7.836e+05 4.062e+05 4.422e+05 -4.327e+02 -3.021e+02 5.139e+04
21 1 8.21375280000000e+00 4.88078640000000e+00 1.79629260000000e+00 7.837e+05 4.063e+05 4.423e+05 -5.011e+02 -3.500e+02 5.137e+04
23 1 9.47900200000000e+00 4.88078640000000e+00 3.95184360000000e+00 7.839e+05 4.064e+05 4.424e+05 -5.603e+02 -3.916e+02 5.135e+04
27 1 1.07442513000000e+01 4.88078640000000e+00 1.79629260000000e+00 7.840e+05 4.065e+05 4.425e+05 -6.091e+02 -4.259e+02 5.133e+04
29 1 1.20095015000000e+01 4.88078640000000e+00 3.95184360000000e+00 7.842e+05 4.066e+05 4.427e+05 -6.462e+02 -4.521e+02 5.131e+04
33 1 1.32747517000000e+01 4.88078640000000e+00 1.79629260000000e+00 7.844e+05 4.068e+05 4.429e+05 -6.702e+02 -4.692e+02 5.128e+04
35 1 1.45400009000000e+01 4.88078640000000e+00 3.95184360000000e+00 7.846e+05 4.070e+05 4.431e+05 -6.797e+02 -4.763e+02 5.126e+04
39 1 1.58052511000000e+01 4.88078640000000e+00 1.79629260000000e+00 7.849e+05 4.073e+05 4.433e+05 -6.740e+02 -4.726e+02 5.123e+04
41 1 1.70705013000000e+01 4.88078640000000e+00 3.95184360000000e+00 7.851e+05 4.075e+05 4.435e+05 -6.523e+02 -4.577e+02 5.121e+04
45 1 1.83357506000000e+01 4.88078640000000e+00 1.79629260000000e+00 7.853e+05 4.079e+05 4.437e+05 -6.146e+02 -4.317e+02 5.118e+04
47 1 1.96009999000000e+01 4.88078640000000e+00 3.95184360000000e+00 7.855e+05 4.082e+05 4.439e+05 -5.619e+02 -3.951e+02 5.116e+04
51 1 2.08662492000000e+01 4.88078640000000e+00 1.79629260000000e+00 7.857e+05 4.085e+05 4.441e+05 -4.951e+02 -3.485e+02 5.114e+04
53 1 2.21314983000000e+01 4.88078640000000e+00 3.95184360000000e+00 7.859e+05 4.089e+05 4.443e+05 -4.162e+02 -2.935e+02 5.113e+04
57 1 2.33967495000000e+01 4.88078640000000e+00 1.79629260000000e+00 7.861e+05 4.093e+05 4.445e+05 -3.285e+02 -2.323e+02 5.112e+04
59 1 2.46619988000000e+01 4.88078640000000e+00 3.95184360000000e+00 7.862e+05 4.096e+05 4.446e+05 -2.363e+02 -1.678e+02 5.112e+04
63 1 2.59272480000000e+01 4.88078640000000e+00 1.79629260000000e+00 7.863e+05 4.099e+05 4.448e+05 -1.448e+02 -1.037e+02 5.113e+04
65 1 2.71924992000000e+01 4.88078640000000e+00 3.95184360000000e+00 7.864e+05 4.103e+05 4.449e+05 -5.931e+01 -4.387e+01 5.114e+04
69 1 2.84577484000000e+01 4.88078640000000e+00 1.79629260000000e+00 7.865e+05 4.105e+05 4.450e+05 1.512e+01 8.273e+00 5.116e+04
71 1 2.97229977000000e+01 4.88078640000000e+00 3.95184360000000e+00 7.865e+05 4.108e+05 4.450e+05 7.430e+01 4.981e+01 5.118e+04
75 1 3.09882470000000e+01 4.88078640000000e+00 1.79629260000000e+00 7.866e+05 4.111e+05 4.451e+05 1.154e+02 7.881e+01 5.121e+04
77 1 3.22534981000000e+01 4.88078640000000e+00 3.95184360000000e+00 7.866e+05 4.112e+05 4.451e+05 1.372e+02 9.432e+01 5.123e+04
81 1 3.35187454000000e+01 4.88078640000000e+00 1.79629260000000e+00 7.866e+05 4.114e+05 4.451e+05 1.397e+02 9.631e+01 5.126e+04
83 1 3.47839966000000e+01 4.88078640000000e+00 3.95184360000000e+00 7.866e+05 4.116e+05 4.451e+05 1.239e+02 8.557e+01 5.129e+04
87 1 3.60492477000000e+01 4.88078640000000e+00 1.79629260000000e+00 7.866e+05 4.116e+05 4.451e+05 9.238e+01 6.391e+01 5.130e+04
89 1 3.73144951000000e+01 4.88078640000000e+00 3.95184360000000e+00 7.866e+05 4.117e+05 4.451e+05 4.932e+01 3.413e+01 5.131e+04
181 1 6.22253900000000e-01 6.91305980000000e+00 3.59258500000000e-01 7.827e+05 4.051e+05 4.414e+05 1.461e-03 9.331e-04 5.134e+04
182 1 6.22253900000000e-01 8.94533260000000e+00 3.23332640000000e+00 7.827e+05 4.051e+05 4.414e+05 1.080e-06 -5.536e-07 5.134e+04
184 1 1.88750400000000e+00 8.94533260000000e+00 1.07777560000000e+00 7.827e+05 4.051e+05 4.414e+05 -8.545e-07 -1.456e-06 5.133e+04
186 1 1.88750400000000e+00 6.91305980000000e+00 2.51480960000000e+00 7.827e+05 4.051e+05 4.413e+05 -5.698e+00 -3.987e+00 5.134e+04
187 1 3.15275310000000e+00 6.91305980000000e+00 3.59258500000000e-01 7.827e+05 4.051e+05 4.413e+05 -1.089e+01 -7.618e+00 5.134e+04
188 1 3.15275310000000e+00 8.94533260000000e+00 3.23332640000000e+00 7.827e+05 4.051e+05 4.414e+05 -3.752e-07 3.506e-07 5.133e+04
190 1 4.41800310000000e+00 8.94533260000000e+00 1.07777560000000e+00 7.827e+05 4.051e+05 4.414e+05 2.167e-07 2.981e-07 5.133e+04
192 1 4.41800310000000e+00 6.91305980000000e+00 2.51480960000000e+00 7.827e+05 4.051e+05 4.414e+05 -1.511e+01 -1.057e+01 5.134e+04
193 1 5.68325330000000e+00 6.91305980000000e+00 3.59258500000000e-01 7.827e+05 4.051e+05 4.414e+05 -1.796e+01 -1.257e+01 5.134e+04
194 1 5.68325330000000e+00 8.94533260000000e+00 3.23332640000000e+00 7.827e+05 4.051e+05 4.414e+05 -2.843e-08 -2.469e-07 5.133e+04
196 1 6.94850220000000e+00 8.94533260000000e+00 1.07777560000000e+00 7.827e+05 4.051e+05 4.414e+05 1.045e-06 1.289e-06 5.133e+04
198 1 6.94850220000000e+00 6.91305980000000e+00 2.51480960000000e+00 7.827e+05 4.051e+05 4.414e+05 -1.917e+01 -1.341e+01 5.134e+04
199 1 8.21375280000000e+00 6.91305980000000e+00 3.59258500000000e-01 7.827e+05 4.051e+05 4.414e+05 -1.856e+01 -1.298e+01 5.133e+04
200 1 8.21375280000000e+00 8.94533260000000e+00 3.23332640000000e+00 7.827e+05 4.051e+05 4.414e+05 1.050e-07 -3.318e-07 5.133e+04
202 1 9.47900200000000e+00 8.94533260000000e+00 1.07777560000000e+00 7.827e+05 4.051e+05 4.414e+05 3.309e-07 3.593e-07 5.133e+04
204 1 9.47900200000000e+00 6.91305980000000e+00 2.51480960000000e+00 7.827e+05 4.051e+05 4.414e+05 -1.605e+01 -1.122e+01 5.133e+04
205 1 1.07442513000000e+01 6.91305980000000e+00 3.59258500000000e-01 7.827e+05 4.051e+05 4.414e+05 -1.170e+01 -8.179e+00 5.133e+04
206 1 1.07442513000000e+01 8.94533260000000e+00 3.23332640000000e+00 7.827e+05 4.051e+05 4.414e+05 -9.907e-07 7.028e-07 5.133e+04
208 1 1.20095015000000e+01 8.94533260000000e+00 1.07777560000000e+00 7.827e+05 4.051e+05 4.414e+05 1.976e-07 2.737e-07 5.133e+04
210 1 1.20095015000000e+01 6.91305980000000e+00 2.51480960000000e+00 7.827e+05 4.051e+05 4.414e+05 -5.689e+00 -3.968e+00 5.133e+04
211 1 1.32747517000000e+01 6.91305980000000e+00 3.59258500000000e-01 7.827e+05 4.051e+05 4.414e+05 1.714e+00 1.214e+00 5.132e+04
212 1 1.32747517000000e+01 8.94533260000000e+00 3.23332640000000e+00 7.827e+05 4.051e+05 4.414e+05 3.135e-07 -3.456e-07 5.133e+04
214 1 1.45400009000000e+01 8.94533260000000e+00 1.07777560000000e+00 7.827e+05 4.051e+05 4.414e+05 4.581e-07 8.115e-07 5.133e+04
216 1 1.45400009000000e+01 6.91305980000000e+00 2.51480960000000e+00 7.827e+05 4.051e+05 4.414e+05 1.009e+01 7.084e+00 5.132e+04
217 1 1.58052511000000e+01 6.91305980000000e+00 3.59258500000000e-01 7.827e+05 4.051e+05 4.414e+05 1.899e+01 1.332e+01 5.132e+04
218 1 1.58052511000000e+01 8.94533260000000e+00 3.23332640000000e+00 7.827e+05 4.051e+05 4.414e+05 -1.122e-07 2.536e-08 5.134e+04
220 1 1.70705013000000e+01 8.94533260000000e+00 1.07777560000000e+00 7.827e+05 4.051e+05 4.414e+05 -5.101e-07 -1.313e-06 5.133e+04
222 1 1.70705013000000e+01 6.91305980000000e+00 2.51480960000000e+00 7.827e+05 4.051e+05 4.414e+05 2.799e+01 1.962e+01 5.132e+04
223 1 1.83357506000000e+01 6.91305980000000e+00 3.59258500000000e-01 7.827e+05 4.050e+05 4.414e+05 3.667e+01 2.569e+01 5.132e+04
224 1 1.83357506000000e+01 8.94533260000000e+00 3.23332640000000e+00 7.827e+05 4.051e+05 4.414e+05 4.691e-07 -2.795e-07 5.133e+04
226 1 1.96009999000000e+01 8.94533260000000e+00 1.07777560000000e+00 7.827e+05 4.051e+05 4.414e+05 1.935e-07 2.307e-07 5.133e+04
228 1 1.96009999000000e+01 6.91305980000000e+00 2.51480960000000e+00 7.827e+05 4.050e+05 4.413e+05 4.466e+01 3.129e+01 5.133e+04
229 1 2.08662492000000e+01 6.91305980000000e+00 3.59258500000000e-01 7.827e+05 4.050e+05 4.413e+05 5.169e+01 3.621e+01 5.133e+04
230 1 2.08662492000000e+01 8.94533260000000e+00 3.23332640000000e+00 7.827e+05 4.051e+05 4.414e+05 -1.149e-06 5.965e-07 5.133e+04
232 1 2.21314983000000e+01 8.94533260000000e+00 1.07777560000000e+00 7.827e+05 4.051e+05 4.414e+05 1.360e-06 2.307e-06 5.133e+04
234 1 2.21314983000000e+01 6.91305980000000e+00 2.51480960000000e+00 7.827e+05 4.050e+05 4.413e+05 5.750e+01 4.028e+01 5.133e+04
235 1 2.33967495000000e+01 6.91305980000000e+00 3.59258500000000e-01 7.826e+05 4.050e+05 4.413e+05 6.189e+01 4.335e+01 5.133e+04
236 1 2.33967495000000e+01 8.94533260000000e+00 3.23332640000000e+00 7.827e+05 4.051e+05 4.414e+05 5.579e-07 -6.318e-07 5.134e+04
238 1 2.46619988000000e+01 8.94533260000000e+00 1.07777560000000e+00 7.827e+05 4.051e+05 4.414e+05 -4.201e-08 -7.759e-08 5.133e+04
240 1 2.46619988000000e+01 6.91305980000000e+00 2.51480960000000e+00 7.826e+05 4.050e+05 4.413e+05 6.472e+01 4.533e+01 5.133e+04
241 1 2.59272480000000e+01 6.91305980000000e+00 3.59258500000000e-01 7.826e+05 4.050e+05 4.413e+05 6.590e+01 4.617e+01 5.134e+04
242 1 2.59272480000000e+01 8.94533260000000e+00 3.23332640000000e+00 7.827e+05 4.051e+05 4.414e+05 -5.784e-07 6.632e-07 5.134e+04
244 1 2.71924992000000e+01 8.94533260000000e+00 1.07777560000000e+00 7.827e+05 4.051e+05 4.414e+05 -1.289e-06 -2.156e-06 5.133e+04
246 1 2.71924992000000e+01 6.91305980000000e+00 2.51480960000000e+00 7.826e+05 4.049e+05 4.413e+05 6.540e+01 4.582e+01 5.134e+04
247 1 2.84577484000000e+01 6.91305980000000e+00 3.59258500000000e-01 7.826e+05 4.049e+05 4.412e+05 6.328e+01 4.432e+01 5.134e+04
248 1 2.84577484000000e+01 8.94533260000000e+00 3.23332640000000e+00 7.827e+05 4.051e+05 4.414e+05 1.352e-06 -7.008e-07 5.133e+04
250 1 2.97229977000000e+01 8.94533260000000e+00 1.07777560000000e+00 7.827e+05 4.051e+05 4.414e+05 -8.706e-07 -5.129e-07 5.133e+04
252 1 2.97229977000000e+01 6.91305980000000e+00 2.51480960000000e+00 7.825e+05 4.049e+05 4.412e+05 5.957e+01 4.172e+01 5.134e+04
253 1 3.09882470000000e+01 6.91305980000000e+00 3.59258500000000e-01 7.825e+05 4.049e+05 4.412e+05 5.434e+01 3.807e+01 5.135e+04
254 1 3.09882470000000e+01 8.94533260000000e+00 3.23332640000000e+00 7.827e+05 4.051e+05 4.414e+05 9.459e-07 -1.152e-07 5.134e+04
256 1 3.22534981000000e+01 8.94533260000000e+00 1.07777560000000e+00 7.827e+05 4.051e+05 4.414e+05 -2.248e-06 -2.921e-06 5.133e+04
258 1 3.22534981000000e+01 6.91305980000000e+00 2.51480960000000e+00 7.825e+05 4.049e+05 4.412e+05 4.773e+01 3.344e+01 5.135e+04
259 1 3.35187454000000e+01 6.91305980000000e+00 3.59258500000000e-01 7.825e+05 4.049e+05 4.412e+05 3.986e+01 2.792e+01 5.135e+04
260 1 3.35187454000000e+01 8.94533260000000e+00 3.23332640000000e+00 7.827e+05 4.051e+05 4.414e+05 -1.160e-06 1.384e-06 5.133e+04
262 1 3.47839966000000e+01 8.94533260000000e+00 1.07777560000000e+00 7.827e+05 4.051e+05 4.414e+05 -1.276e-08 -8.071e-09 5.134e+04
264 1 3.47839966000000e+01 6.91305980000000e+00 2.51480960000000e+00 7.825e+05 4.049e+05 4.412e+05 3.088e+01 2.163e+01 5.136e+04
265 1 3.60492477000000e+01 6.91305980000000e+00 3.59258500000000e-01 7.825e+05 4.048e+05 4.412e+05 2.106e+01 1.475e+01 5.135e+04
266 1 3.60492477000000e+01 8.94533260000000e+00 3.23332640000000e+00 7.827e+05 4.051e+05 4.414e+05 1.279e-06 -1.370e-06 5.133e+04
268 1 3.73144951000000e+01 8.94533260000000e+00 1.07777560000000e+00 7.827e+05 4.051e+05 4.414e+05 1.750e-06 3.036e-06 5.133e+04
270 1 3.73144951000000e+01 6.91305980000000e+00 2.51480960000000e+00 7.825e+05 4.048e+05 4.411e+05 1.068e+01 7.478e+00 5.135e+04
183 1 6.22253900000000e-01 1.09776050000000e+01 1.79629260000000e+00 7.827e+05 4.051e+05 4.414e+05 -9.972e-07 1.121e-06 5.134e+04
185 1 1.88750400000000e+00 1.09776050000000e+01 3.95184360000000e+00 7.827e+05 4.051e+05 4.414e+05 7.341e-07 2.217e-06 5.133e+04
189 1 3.15275310000000e+00 1.09776050000000e+01 1.79629260000000e+00 7.827e+05 4.051e+05 4.414e+05 -1.438e-07 -5.151e-07 5.133e+04
191 1 4.41800310000000e+00 1.09776050000000e+01 3.95184360000000e+00 7.827e+05 4.051e+05 4.414e+05 -3.556e-07 -2.708e-07 5.134e+04
195 1 5.68325330000000e+00 1.09776050000000e+01 1.79629260000000e+00 7.827e+05 4.051e+05 4.414e+05 1.219e-06 4.558e-07 5.133e+04
197 1 6.94850220000000e+00 1.09776050000000e+01 3.95184360000000e+00 7.827e+05 4.051e+05 4.414e+05 -1.367e-06 -1.737e-06 5.133e+04
201 1 8.21375280000000e+00 1.09776050000000e+01 1.79629260000000e+00 7.827e+05 4.051e+05 4.414e+05 1.180e-06 6.227e-07 5.133e+04
203 1 9.47900200000000e+00 1.09776050000000e+01 3.95184360000000e+00 7.827e+05 4.051e+05 4.414e+05 -6.788e-07 -9.111e-08 5.133e+04
207 1 1.07442513000000e+01 1.09776050000000e+01 1.79629260000000e+00 7.827e+05 4.051e+05 4.414e+05 5.116e-07 -1.099e-06 5.133e+04
209 1 1.20095015000000e+01 1.09776050000000e+01 3.95184360000000e+00 7.827e+05 4.051e+05 4.414e+05 -3.480e-07 -1.761e-07 5.134e+04
213 1 1.32747517000000e+01 1.09776050000000e+01 1.79629260000000e+00 7.827e+05 4.051e+05 4.414e+05 3.676e-07 5.368e-07 5.133e+04
215 1 1.45400009000000e+01 1.09776050000000e+01 3.95184360000000e+00 7.827e+05 4.051e+05 4.414e+05 -2.663e-07 -1.522e-06 5.133e+04
219 1 1.58052511000000e+01 1.09776050000000e+01 1.79629260000000e+00 7.827e+05 4.051e+05 4.414e+05 3.673e-07 4.698e-08 5.134e+04
221 1 1.70705013000000e+01 1.09776050000000e+01 3.95184360000000e+00 7.827e+05 4.051e+05 4.414e+05 -1.553e-07 2.644e-06 5.133e+04
225 1 1.83357506000000e+01 1.09776050000000e+01 1.79629260000000e+00 7.827e+05 4.051e+05 4.414e+05 -2.362e-07 6.066e-07 5.133e+04
227 1 1.96009999000000e+01 1.09776050000000e+01 3.95184360000000e+00 7.827e+05 4.051e+05 4.414e+05 -4.090e-07 -5.169e-08 5.133e+04
231 1 2.08662492000000e+01 1.09776050000000e+01 1.79629260000000e+00 7.827e+05 4.051e+05 4.414e+05 1.376e-06 -1.035e-06 5.133e+04
233 1 2.21314983000000e+01 1.09776050000000e+01 3.95184360000000e+00 7.827e+05 4.051e+05 4.414e+05 -1.079e-06 -3.804e-06 5.134e+04
237 1 2.33967495000000e+01 1.09776050000000e+01 1.79629260000000e+00 7.827e+05 4.051e+05 4.414e+05 6.929e-07 9.537e-07 5.134e+04
239 1 2.46619988000000e+01 1.09776050000000e+01 3.95184360000000e+00 7.827e+05 4.051e+05 4.414e+05 2.127e-08 1.483e-07 5.133e+04
243 1 2.59272480000000e+01 1.09776050000000e+01 1.79629260000000e+00 7.827e+05 4.051e+05 4.414e+05 -7.663e-07 -1.015e-06 5.134e+04
245 1 2.71924992000000e+01 1.09776050000000e+01 3.95184360000000e+00 7.827e+05 4.051e+05 4.414e+05 1.122e-06 3.470e-06 5.134e+04
249 1 2.84577484000000e+01 1.09776050000000e+01 1.79629260000000e+00 7.827e+05 4.051e+05 4.414e+05 -1.919e-06 1.010e-06 5.133e+04
251 1 2.97229977000000e+01 1.09776050000000e+01 3.95184360000000e+00 7.827e+05 4.051e+05 4.414e+05 2.342e-06 -1.013e-06 5.133e+04
255 1 3.09882470000000e+01 1.09776050000000e+01 1.79629260000000e+00 7.827e+05 4.051e+05 4.414e+05 -3.138e-06 -6.403e-08 5.134e+04
257 1 3.22534981000000e+01 1.09776050000000e+01 3.95184360000000e+00 7.827e+05 4.051e+05 4.414e+05 2.756e-06 4.178e-06 5.133e+04
261 1 3.35187454000000e+01 1.09776050000000e+01 1.79629260000000e+00 7.827e+05 4.051e+05 4.414e+05 -1.965e-06 -2.320e-06 5.133e+04
263 1 3.47839966000000e+01 1.09776050000000e+01 3.95184360000000e+00 7.827e+05 4.051e+05 4.414e+05 8.244e-08 -2.908e-08 5.134e+04
267 1 3.60492477000000e+01 1.09776050000000e+01 1.79629260000000e+00 7.827e+05 4.051e+05 4.414e+05 1.208e-06 2.082e-06 5.133e+04
269 1 3.73144951000000e+01 1.09776050000000e+01 3.95184360000000e+00 7.827e+05 4.051e+05 4.414e+05 -9.230e-07 -5.807e-06 5.133e+04
361 1 6.22253900000000e-01 1.30098782000000e+01 3.59258500000000e-01 7.827e+05 4.051e+05 4.414e+05 -5.347e-07 3.360e-07 5.133e+04
362 1 6.22253900000000e-01 1.50421515000000e+01 3.23332640000000e+00 7.827e+05 4.051e+05 4.414e+05 1.396e-06 1.272e-07 5.133e+04
364 1 1.88750400000000e+00 1.50421515000000e+01 1.07777560000000e+00 7.827e+05 4.051e+05 4.414e+05 -3.279e-07 -7.785e-07 5.133e+04
366 1 1.88750400000000e+00 1.30098782000000e+01 2.51480960000000e+00 7.827e+05 4.051e+05 4.414e+05 -3.825e-07 -3.120e-07 5.133e+04
367 1 3.15275310000000e+00 1.30098782000000e+01 3.59258500000000e-01 7.827e+05 4.051e+05 4.414e+05 4.639e-08 -3.186e-07 5.133e+04
368 1 3.15275310000000e+00 1.50421515000000e+01 3.23332640000000e+00 7.827e+05 4.051e+05 4.414e+05 -5.915e-07 -7.222e-08 5.133e+04
370 1 4.41800310000000e+00 1.50421515000000e+01 1.07777560000000e+00 7.827e+05 4.051e+05 4.414e+05 4.723e-08 2.291e-07 5.133e+04
372 1 4.41800310000000e+00 1.30098782000000e+01 2.51480960000000e+00 7.827e+05 4.051e+05 4.414e+05 2.033e-08 3.326e-08 5.133e+04
373 1 5.68325330000000e+00 1.30098782000000e+01 3.59258500000000e-01 7.827e+05 4.051e+05 4.414e+05 1.350e-07 6.428e-07 5.133e+04
374 1 5.68325330000000e+00 1.50421515000000e+01 3.23332640000000e+00 7.827e+05 4.051e+05 4.414e+05 4.687e-07 2.452e-07 5.133e+04
376 1 6.94850220000000e+00 1.50421515000000e+01 1.07777560000000e+00 7.827e+05 4.051e+05 4.414e+05 4.889e-07 7.710e-07 5.133e+04
378 1 6.94850220000000e+00 1.30098782000000e+01 2.51480960000000e+00 7.827e+05 4.051e+05 4.414e+05 1.004e-07 2.447e-07 5.133e+04
379 1 8.21375280000000e+00 1.30098782000000e+01 3.59258500000000e-01 7.827e+05 4.051e+05 4.414e+05 7.320e-08 7.298e-07 5.133e+04
380 1 8.21375280000000e+00 1.50421515000000e+01 3.23332640000000e+00 7.827e+05 4.051e+05 4.414e+05 6.806e-07 2.804e-07 5.133e+04
382 1 9.47900200000000e+00 1.50421515000000e+01 1.07777560000000e+00 7.827e+05 4.051e+05 4.414e+05 8.490e-08 3.531e-07 5.133e+04
384 1 9.47900200000000e+00 1.30098782000000e+01 2.51480960000000e+00 7.827e+05 4.051e+05 4.414e+05 -9.223e-08 3.844e-09 5.133e+04
385 1 1.07442513000000e+01 1.30098782000000e+01 3.59258500000000e-01 7.827e+05 4.051e+05 4.414e+05 1.650e-07 -3.934e-07 5.133e+04
386 1 1.07442513000000e+01 1.50421515000000e+01 3.23332640000000e+00 7.827e+05 4.051e+05 4.414e+05 -1.155e-06 -4.447e-08 5.133e+04
388 1 1.20095015000000e+01 1.50421515000000e+01 1.07777560000000e+00 7.827e+05 4.051e+05 4.414e+05 3.941e-08 2.297e-07 5.133e+04
390 1 1.20095015000000e+01 1.30098782000000e+01 2.51480960000000e+00 7.827e+05 4.051e+05 4.414e+05 -1.083e-08 2.018e-08 5.133e+04
391 1 1.32747517000000e+01 1.30098782000000e+01 3.59258500000000e-01 7.827e+05 4.051e+05 4.414e+05 -3.354e-09 4.019e-07 5.133e+04
392 1 1.32747517000000e+01 1.50421515000000e+01 3.23332640000000e+00 7.827e+05 4.051e+05 4.414e+05 5.925e-07 1.149e-07 5.133e+04
394 1 1.45400009000000e+01 1.50421515000000e+01 1.07777560000000e+00 7.827e+05 4.051e+05 4.414e+05 1.775e-07 3.464e-07 5.133e+04
396 1 1.45400009000000e+01 1.30098782000000e+01 2.51480960000000e+00 7.827e+05 4.051e+05 4.414e+05 3.307e-07 2.226e-07 5.133e+04
397 1 1.58052511000000e+01 1.30098782000000e+01 3.59258500000000e-01 7.827e+05 4.051e+05 4.414e+05 4.918e-08 1.498e-07 5.133e+04
398 1 1.58052511000000e+01 1.50421515000000e+01 3.23332640000000e+00 7.827e+05 4.051e+05 4.414e+05 7.361e-09 7.973e-08 5.133e+04
400 1 1.70705013000000e+01 1.50421515000000e+01 1.07777560000000e+00 7.827e+05 4.051e+05 4.414e+05 -1.441e-07 -4.912e-07 5.133e+04
402 1 1.70705013000000e+01 1.30098782000000e+01 2.51480960000000e+00 7.827e+05 4.051e+05 4.414e+05 -7.188e-07 -3.906e-07 5.133e+04
403 1 1.83357506000000e+01 1.30098782000000e+01 3.59258500000000e-01 7.827e+05 4.051e+05 4.414e+05 -2.097e-07 2.743e-07 5.133e+04
404 1 1.83357506000000e+01 1.50421515000000e+01 3.23332640000000e+00 7.827e+05 4.051e+05 4.414e+05 6.933e-07 1.076e-07 5.133e+04
406 1 1.96009999000000e+01 1.50421515000000e+01 1.07777560000000e+00 7.827e+05 4.051e+05 4.414e+05 3.239e-08 2.313e-07 5.133e+04
408 1 1.96009999000000e+01 1.30098782000000e+01 2.51480960000000e+00 7.827e+05 4.051e+05 4.414e+05 -4.583e-08 2.918e-11 5.133e+04
409 1 2.08662492000000e+01 1.30098782000000e+01 3.59258500000000e-01 7.827e+05 4.051e+05 4.414e+05 3.822e-07 -1.041e-07 5.133e+04
410 1 2.08662492000000e+01 1.50421515000000e+01 3.23332640000000e+00 7.827e+05 4.051e+05 4.414e+05 -1.131e-06 3.727e-08 5.133e+04
412 1 2.21314983000000e+01 1.50421515000000e+01 1.07777560000000e+00 7.827e+05 4.051e+05 4.414e+05 5.307e-07 1.146e-06 5.133e+04
414 1 2.21314983000000e+01 1.30098782000000e+01 2.51480960000000e+00 7.827e+05 4.051e+05 4.414e+05 7.146e-07 5.506e-07 5.133e+04
415 1 2.33967495000000e+01 1.30098782000000e+01 3.59258500000000e-01 7.827e+05 4.051e+05 4.414e+05 1.029e-08 7.227e-07 5.133e+04
416 1 2.33967495000000e+01 1.50421515000000e+01 3.23332640000000e+00 7.827e+05 4.051e+05 4.414e+05 1.056e-06 2.019e-07 5.134e+04
418 1 2.46619988000000e+01 1.50421515000000e+01 1.07777560000000e+00 7.827e+05 4.051e+05 4.414e+05 -1.594e-08 -3.210e-08 5.133e+04
420 1 2.46619988000000e+01 1.30098782000000e+01 2.51480960000000e+00 7.827e+05 4.051e+05 4.414e+05 -3.555e-08 -2.386e-08 5.133e+04
421 1 2.59272480000000e+01 1.30098782000000e+01 3.59258500000000e-01 7.827e+05 4.051e+05 4.414e+05 -1.972e-08 -7.796e-07 5.133e+04
422 1 2.59272480000000e+01 1.50421515000000e+01 3.23332640000000e+00 7.827e+05 4.051e+05 4.414e+05 -1.114e-06 -2.224e-07 5.134e+04
424 1 2.71924992000000e+01 1.50421515000000e+01 1.07777560000000e+00 7.827e+05 4.051e+05 4.414e+05 -4.625e-07 -1.109e-06 5.133e+04
426 1 2.71924992000000e+01 1.30098782000000e+01 2.51480960000000e+00 7.827e+05 4.051e+05 4.414e+05 -6.592e-07 -5.025e-07 5.133e+04
427 1 2.84577484000000e+01 1.30098782000000e+01 3.59258500000000e-01 7.827e+05 4.051e+05 4.414e+05 -3.235e-07 -1.347e-07 5.133e+04
428 1 2.84577484000000e+01 1.50421515000000e+01 3.23332640000000e+00 7.827e+05 4.051e+05 4.414e+05 1.038e-06 -2.032e-07 5.133e+04
430 1 2.97229977000000e+01 1.50421515000000e+01 1.07777560000000e+00 7.827e+05 4.051e+05 4.414e+05 -2.902e-07 -8.900e-07 5.133e+04
432 1 2.97229977000000e+01 1.30098782000000e+01 2.51480960000000e+00 7.827e+05 4.051e+05 4.414e+05 7.210e-07 1.847e-07 5.133e+04
433 1 3.09882470000000e+01 1.30098782000000e+01 3.59258500000000e-01 7.827e+05 4.051e+05 4.414e+05 -3.875e-07 -1.105e-06 5.133e+04