ITEM: TIMESTEP
0
ITEM: NUMBER OF ATOMS
89
ITEM: BOX BOUNDS xy xz yz pp pp pp
                     0.00000000000000e+00 1.06200000000000e+01 0.00000000000000e+00
0.00000000000000e+00	1.06200000000000e+01	0.00000000000000e+00
0.00000000000000e+00	1.06200000000000e+01	0.00000000000000e+00
ITEM: ATOMS id type x y z DisplacementX DisplacementY DisplacementZ
1 1 -1.630e-03 6.640e-03 -5.983e+00 -1.548e-02 1.193e-03 -6.585e-04
2 1 3.540e+00 -3.536e+00 -2.491e+00 -1.937e-02 -2.190e-02 -2.436e-02
3 1 -3.541e+00 3.544e+00 -2.489e+00 -6.667e-03 4.534e-04 5.350e-03
4 1 -3.544e+00 -3.537e+00 -2.491e+00 -6.445e-03 2.508e-03 7.389e-03
5 1 3.540e+00 3.547e+00 -2.492e+00 -2.040e-02 2.093e-02 -2.706e-02
6 1 1.774e+00 -3.534e+00 -4.257e+00 -1.848e-02 1.853e-02 2.735e-02
7 1 3.537e+00 -1.771e+00 -4.257e+00 -1.934e-02 -3.211e-02 -1.325e-02
8 1 -1.776e+00 -3.536e+00 -4.256e+00 -8.741e-03 -3.353e-03 5.952e-03
9 1 3.537e+00 1.781e+00 -4.257e+00 -1.854e-02 3.228e-02 -1.410e-02
10 1 -3.540e+00 1.779e+00 -4.256e+00 -9.497e-03 1.665e-03 6.477e-03
11 1 -1.776e+00 3.543e+00 -4.257e+00 -4.493e-03 1.287e-03 4.541e-03
12 1 -3.539e+00 -1.770e+00 -4.255e+00 -8.329e-03 1.014e-03 8.283e-03
13 1 1.771e+00 3.546e+00 -4.256e+00 -2.009e-02 -1.898e-02 2.686e-02
14 1 -3.156e-03 3.621e+00 4.661e+00 -4.791e-03 -7.776e-02 -7.266e-02
15 1 -3.615e+00 6.201e-03 4.661e+00 5.310e-02 -9.821e-04 -5.075e-02
16 1 3.613e+00 3.708e-03 4.661e+00 -8.654e-02 -7.169e-04 -9.475e-02
17 1 -1.494e-03 -3.608e+00 4.660e+00 -4.637e-03 7.384e-02 -7.221e-02
18 1 5.300e+00 -1.763e+00 1.048e+00 9.066e-03 -2.321e-02 3.485e-02
19 1 1.765e+00 -5.295e+00 1.049e+00 -1.139e-02 5.461e-04 1.048e-02
20 1 1.767e+00 5.303e+00 1.048e+00 -1.238e-02 -7.731e-04 1.160e-02
21 1 -5.301e+00 -1.762e+00 1.049e+00 1.687e-02 7.903e-03 4.696e-03
22 1 -1.770e+00 5.303e+00 1.047e+00 -1.148e-02 2.346e-03 2.278e-02
23 1 -5.300e+00 1.773e+00 1.048e+00 1.686e-02 -9.732e-03 4.020e-03
24 1 5.298e+00 1.772e+00 1.049e+00 8.999e-03 2.483e-02 3.394e-02
25 1 -1.770e+00 -5.294e+00 1.047e+00 -1.008e-02 -1.844e-03 2.061e-02
26 1 -3.851e-05 -5.271e+00 -7.250e-01 -1.463e-02 -7.636e-04 1.521e-02
27 1 5.272e+00 4.176e-03 -7.253e-01 -2.923e-02 3.314e-04 1.418e-02
28 1 -5.278e+00 6.387e-03 -7.246e-01 1.115e-03 -6.498e-05 1.367e-02
29 1 -2.490e-04 5.283e+00 -7.239e-01 -1.785e-02 -1.463e-03 1.546e-02
30 1 -5.280e+00 4.374e-03 2.820e+00 -7.248e-03 -2.186e-03 -4.718e-03
31 1 -1.982e-03 5.280e+00 2.819e+00 -6.111e-03 2.281e-02 1.081e-02
32 1 1.057e-03 -5.270e+00 2.822e+00 -5.359e-03 -1.898e-02 9.890e-03
33 1 5.275e+00 5.948e-03 2.821e+00 9.012e-02 -4.182e-04 8.378e-02
34 1 -1.794e+00 1.797e+00 4.600e+00 1.256e-02 -1.461e-02 -8.718e-03
35 1 1.792e+00 -1.786e+00 4.600e+00 -3.586e-02 2.474e-02 -1.449e-02
36 1 1.792e+00 1.795e+00 4.601e+00 -3.656e-02 -2.528e-02 -1.096e-02
37 1 -1.793e+00 -1.786e+00 4.601e+00 1.319e-02 1.409e-02 -1.012e-02
38 1 3.520e+00 -3.517e+00 1.047e+00 1.142e-03 -4.132e-02 4.961e-02
39 1 -3.523e+00 3.525e+00 1.048e+00 -2.675e-02 1.849e-02 1.940e-02
40 1 3.519e+00 3.524e+00 1.048e+00 -1.313e-03 4.244e-02 5.026e-02
41 1 -3.522e+00 -3.515e+00 1.048e+00 -2.807e-02 -1.703e-02 1.836e-02
42 1 -1.199e-03 8.147e-03 4.542e+00 -1.551e-02 -2.262e-05 2.635e-02
43 1 -3.564e+00 1.811e+00 2.811e+00 1.460e-02 -3.287e-02 1.683e-02
44 1 -1.809e+00 3.569e+00 2.812e+00 2.515e-02 -2.054e-02 2.106e-02
45 1 -3.565e+00 -1.804e+00 2.812e+00 1.489e-02 3.183e-02 1.654e-02
46 1 1.807e+00 3.567e+00 2.813e+00 -5.303e-02 -4.213e-02 -9.942e-04
47 1 1.807e+00 -3.557e+00 2.813e+00 -5.052e-02 4.251e-02 -3.391e-04
48 1 3.560e+00 -1.803e+00 2.813e+00 -4.114e-02 1.602e-03 3.898e-02
49 1 -1.808e+00 -3.556e+00 2.812e+00 2.495e-02 1.996e-02 2.082e-02
50 1 3.560e+00 1.812e+00 2.814e+00 -4.251e-02 -1.029e-03 4.016e-02
51 1 1.763e+00 3.259e-03 -4.223e+00 -9.512e-03 1.946e-03 -3.709e-02
52 1 -2.624e-03 -1.760e+00 -4.221e+00 -8.841e-03 -4.033e-02 -4.798e-02
53 1 -2.093e-03 1.770e+00 -4.221e+00 -6.571e-03 4.191e-02 -4.842e-02
54 1 -1.768e+00 6.044e-03 -4.222e+00 -8.979e-02 1.044e-03 -1.010e-01
55 1 3.612e+00 4.044e-03 -2.565e+00 5.469e-02 6.627e-04 -1.797e-01
56 1 -1.824e-03 -3.611e+00 -2.565e+00 -8.498e-03 5.341e-02 4.755e-02
57 1 -3.069e-03 3.617e+00 -2.563e+00 -7.191e-03 -4.832e-02 4.389e-02
58 1 -3.612e+00 3.944e-03 -2.563e+00 9.972e-02 3.679e-03 8.958e-02
59 1 -1.342e-03 8.831e-03 2.104e+00 -1.572e-01 -4.119e-03 -7.759e-01
60 1 -3.597e-04 4.753e-05 2.011e-03 7.036e-01 4.591e-03 -7.024e-01
61 1 1.807e+00 -3.558e+00 -7.157e-01 -5.180e-02 1.220e-02 6.772e-03
62 1 3.561e+00 -1.803e+00 -7.158e-01 1.061e-01 -2.258e-01 6.464e-03
63 1 -1.810e+00 -3.558e+00 -7.164e-01 -4.813e-02 -5.094e-02 7.570e-03
64 1 3.560e+00 1.813e+00 -7.165e-01 1.061e-01 2.267e-01 7.573e-03
65 1 -3.561e+00 1.811e+00 -7.183e-01 4.768e-02 -4.258e-02 7.267e-03
66 1 -1.807e+00 3.565e+00 -7.175e-01 -4.915e-02 5.530e-02 6.980e-03
67 1 -3.564e+00 -1.801e+00 -7.138e-01 4.772e-02 4.227e-02 5.429e-03
68 1 1.805e+00 3.567e+00 -7.163e-01 -5.091e-02 -9.864e-03 7.499e-03
69 1 1.335e-04 -2.031e+00 -8.648e-01 -1.553e-01 2.216e-03 1.538e-01
70 1 2.032e+00 4.601e-03 -8.674e-01 7.742e-01 -7.035e-04 1.519e-01
71 1 -2.030e+00 5.433e-03 -8.640e-01 2.950e-01 4.256e-04 1.550e-01
72 1 -2.020e-03 2.034e+00 -8.630e-01 -1.575e-01 6.136e-03 1.535e-01
73 1 -2.036e+00 3.678e-03 2.962e+00 1.762e-01 -7.338e-04 -5.813e-02
74 1 -2.663e-03 2.041e+00 2.962e+00 -7.232e-03 -2.303e-01 -1.105e-01
75 1 -2.367e-03 -2.027e+00 2.960e+00 -8.290e-03 2.219e-01 -1.069e-01
76 1 2.032e+00 5.978e-03 2.960e+00 -2.765e-01 1.249e-03 -1.183e-01
77 1 -2.003e-03 3.555e+00 1.047e+00 -9.047e-03 1.251e-02 5.038e-02
78 1 -3.551e+00 4.597e-03 1.046e+00 3.920e-02 -2.122e-04 7.808e-03
79 1 3.551e+00 4.394e-03 1.048e+00 1.159e-01 -1.778e-03 2.732e-01
80 1 -1.700e-03 -3.547e+00 1.049e+00 -9.320e-03 -1.212e-02 5.052e-02
81 1 1.791e+00 -1.788e+00 -2.506e+00 -3.524e-02 1.174e-01 1.186e-01
82 1 -1.791e+00 -1.788e+00 -2.506e+00 -2.719e-03 -1.567e-03 3.018e-03
83 1 1.789e+00 1.796e+00 -2.502e+00 -3.454e-02 -1.165e-01 1.196e-01
84 1 -1.791e+00 1.796e+00 -2.504e+00 -3.643e-03 -2.129e-03 3.754e-03
85 1 -3.435e-04 4.906e-03 -2.442e+00 -1.543e-01 2.168e-03 -2.959e-01
86 1 1.672e+00 -1.670e+00 1.048e+00 8.176e-02 -3.279e-04 -8.309e-02
87 1 -1.675e+00 1.678e+00 1.048e+00 -1.226e-01 1.180e-01 3.083e-02
88 1 1.674e+00 1.678e+00 1.051e+00 8.193e-02 -1.305e-04 -8.460e-02
89 1 -1.674e+00 -1.670e+00 1.048e+00 -1.230e-01 -1.173e-01 3.363e-02
ITEM: TIMESTEP
0
ITEM: NUMBER OF ATOMS
89
ITEM: BOX BOUNDS xy xz yz pp pp pp
                     0.00000000000000e+00 1.06200000000000e+01 0.00000000000000e+00
0.00000000000000e+00	1.06200000000000e+01	0.00000000000000e+00
0.00000000000000e+00	1.06200000000000e+01	0.00000000000000e+00
ITEM: ATOMS id type x y z DisplacementX DisplacementY DisplacementZ
90 1 4.003e-04 4.305e-03 -5.987e+00 1.660e-04 1.691e-03 -5.852e-03
91 1 3.542e+00 -3.536e+00 -2.491e+00 2.093e-04 2.470e-03 -2.212e-03
92 1 -3.542e+00 3.547e+00 -2.490e+00 -1.940e-03 -4.507e-03 -2.283e-03
93 1 -3.543e+00 -3.536e+00 -2.488e+00 -2.132e-04 2.930e-03 -2.926e-03
94 1 3.542e+00 3.547e+00 -2.489e+00 1.735e-04 -2.369e-03 -2.188e-03
95 1 1.775e+00 -3.535e+00 -4.258e+00 2.583e-03 3.913e-03 3.439e-03
96 1 3.538e+00 -1.773e+00 -4.257e+00 -9.048e-04 1.392e-02 7.052e-03
97 1 -1.778e+00 -3.534e+00 -4.258e+00 -3.959e-03 3.767e-03 2.670e-03
98 1 3.536e+00 1.781e+00 -4.259e+00 -1.085e-03 -1.447e-02 3.962e-03
99 1 -3.539e+00 1.779e+00 -4.255e+00 7.100e-04 -1.132e-02 3.986e-03
100 1 -1.776e+00 3.544e+00 -4.256e+00 -4.709e-03 -4.957e-03 1.551e-03
101 1 -3.541e+00 -1.771e+00 -4.256e+00 2.306e-04 1.380e-02 6.668e-03
102 1 1.772e+00 3.544e+00 -4.258e+00 4.246e-03 -2.691e-03 3.015e-03
103 1 -7.184e-04 3.621e+00 4.662e+00 -1.519e-03 -2.073e-03 -1.000e-03
104 1 -3.616e+00 4.407e-03 4.662e+00 9.200e-02 9.376e-04 -9.213e-02
105 1 3.612e+00 4.839e-03 4.661e+00 -9.325e-02 1.268e-03 -9.313e-02
106 1 -2.022e-03 -3.609e+00 4.661e+00 -9.808e-06 2.081e-03 1.273e-03
107 1 5.295e+00 -1.763e+00 1.045e+00 -2.293e-02 -3.983e-03 -6.117e-05
108 1 1.766e+00 -5.294e+00 1.047e+00 -3.113e-03 2.987e-02 -1.933e-03
109 1 1.766e+00 5.303e+00 1.049e+00 -3.211e-03 -3.015e-02 -8.320e-04
110 1 -5.299e+00 -1.760e+00 1.049e+00 2.046e-02 -4.413e-03 -2.156e-04
111 1 -1.767e+00 5.305e+00 1.047e+00 1.803e-03 -2.807e-02 -1.972e-04
112 1 -5.299e+00 1.772e+00 1.047e+00 2.235e-02 3.228e-03 9.223e-05
113 1 5.298e+00 1.773e+00 1.047e+00 -2.146e-02 3.353e-03 5.911e-04
114 1 -1.768e+00 -5.293e+00 1.048e+00 2.267e-03 2.865e-02 -7.706e-05
115 1 -2.522e-03 -5.270e+00 -7.234e-01 2.810e-04 6.491e-03 6.044e-03
116 1 5.273e+00 5.785e-03 -7.237e-01 2.292e-02 -5.277e-04 2.902e-03
117 1 -5.278e+00 4.223e-03 -7.237e-01 -2.365e-02 -1.182e-03 4.234e-03
118 1 -6.843e-04 5.281e+00 -7.248e-01 1.593e-03 -5.997e-03 6.153e-03
119 1 -5.277e+00 6.032e-03 2.819e+00 -2.239e-02 1.039e-04 -5.164e-03
120 1 -1.652e-03 5.281e+00 2.818e+00 8.306e-04 -5.721e-03 -6.039e-03
121 1 4.833e-04 -5.270e+00 2.821e+00 5.276e-04 7.338e-03 -8.782e-03
122 1 5.275e+00 5.949e-03 2.820e+00 2.252e-02 1.298e-03 -5.416e-03
123 1 -1.795e+00 1.797e+00 4.600e+00 -1.626e-02 -2.620e-02 8.731e-03
124 1 1.791e+00 -1.786e+00 4.599e+00 1.606e-02 2.729e-02 9.711e-03
125 1 1.789e+00 1.797e+00 4.599e+00 1.453e-02 -2.897e-02 1.027e-02
126 1 -1.794e+00 -1.785e+00 4.602e+00 -1.578e-02 2.706e-02 9.124e-03
127 1 3.518e+00 -3.516e+00 1.048e+00 9.253e-02 -9.173e-02 -2.102e-03
128 1 -3.523e+00 3.524e+00 1.047e+00 -9.430e-02 9.084e-02 -4.774e-05
129 1 3.516e+00 3.525e+00 1.048e+00 9.239e-02 9.080e-02 1.791e-03
130 1 -3.521e+00 -3.515e+00 1.049e+00 -9.429e-02 -9.093e-02 -4.014e-04
131 1 -1.353e-03 5.602e-03 4.543e+00 5.430e-04 3.542e-04 5.520e-02
132 1 -3.565e+00 1.814e+00 2.811e+00 -1.108e-03 -4.291e-02 4.165e-02
133 1 -1.809e+00 3.568e+00 2.813e+00 1.526e-02 -1.076e-02 2.737e-02
134 1 -3.563e+00 -1.804e+00 2.811e+00 -1.226e-03 4.350e-02 4.171e-02
135 1 1.807e+00 3.569e+00 2.810e+00 -1.734e-02 -1.106e-02 2.402e-02
136 1 1.806e+00 -3.558e+00 2.812e+00 -1.385e-02 1.327e-02 2.584e-02
137 1 3.562e+00 -1.803e+00 2.813e+00 -4.580e-04 4.455e-02 4.372e-02
138 1 -1.809e+00 -3.558e+00 2.810e+00 1.418e-02 1.179e-02 2.515e-02
139 1 3.563e+00 1.813e+00 2.811e+00 1.405e-03 -4.424e-02 4.399e-02
140 1 1.764e+00 4.593e-03 -4.223e+00 3.158e-03 1.413e-03 -3.019e-02
141 1 -1.875e-03 -1.759e+00 -4.221e+00 -1.479e-03 -5.747e-03 -8.088e-03
142 1 -1.037e-03 1.766e+00 -4.220e+00 -8.393e-04 9.386e-03 -7.128e-03
143 1 -1.765e+00 6.246e-03 -4.222e+00 -4.051e-03 -1.462e-03 -2.864e-02
144 1 3.613e+00 2.059e-03 -2.565e+00 -9.175e-02 -2.432e-04 9.041e-02
145 1 5.146e-05 -3.610e+00 -2.566e+00 -3.205e-04 2.975e-03 -1.170e-03
146 1 -2.173e-03 3.617e+00 -2.562e+00 2.163e-04 -8.000e-04 -4.018e-03
147 1 -3.618e+00 7.219e-03 -2.561e+00 9.171e-02 1.392e-03 8.992e-02
148 1 -2.504e-03 7.145e-03 2.102e+00 1.546e-03 -1.054e+00 -1.054e+00
149 1 -8.521e-04 2.840e-04 -2.621e-03 -4.653e-04 1.057e+00 1.048e+00
150 1 1.807e+00 -3.558e+00 -7.174e-01 -1.579e-02 1.026e-02 -2.931e-02
151 1 3.562e+00 -1.802e+00 -7.174e-01 -6.973e-05 4.466e-02 -4.632e-02
152 1 -1.808e+00 -3.556e+00 -7.157e-01 1.579e-02 9.610e-03 -2.763e-02
153 1 3.561e+00 1.812e+00 -7.151e-01 1.206e-03 -4.308e-02 -4.486e-02
154 1 -3.565e+00 1.810e+00 -7.158e-01 -2.837e-03 -4.201e-02 -4.410e-02
155 1 -1.809e+00 3.567e+00 -7.157e-01 1.602e-02 -9.425e-03 -2.930e-02
156 1 -3.563e+00 -1.803e+00 -7.153e-01 -1.430e-03 4.367e-02 -4.407e-02
157 1 1.804e+00 3.567e+00 -7.151e-01 -1.522e-02 -9.280e-03 -2.915e-02
158 1 -1.078e-03 -2.032e+00 -8.666e-01 6.236e-04 1.231e-01 -1.201e-01
159 1 2.032e+00 4.927e-03 -8.630e-01 -3.593e-01 7.212e-04 2.361e-01
160 1 -2.033e+00 4.747e-03 -8.637e-01 3.582e-01 -1.337e-03 2.361e-01
161 1 -2.656e-03 2.034e+00 -8.638e-01 -4.523e-04 -1.165e-01 -1.252e-01
162 1 -2.035e+00 5.177e-03 2.961e+00 3.600e-01 1.048e-03 -2.400e-01
163 1 -3.655e-04 2.041e+00 2.962e+00 -3.469e-03 -1.255e-01 1.173e-01
164 1 -1.657e-05 -2.028e+00 2.959e+00 -8.750e-06 1.203e-01 1.200e-01
165 1 2.032e+00 4.409e-03 2.961e+00 -3.595e-01 -6.829e-04 -2.405e-01
166 1 -2.314e-04 3.556e+00 1.046e+00 -1.054e-03 -5.853e-02 1.187e-03
167 1 -3.553e+00 1.540e-03 1.048e+00 -1.964e-03 5.343e-05 -6.165e-04
168 1 3.550e+00 4.550e-03 1.048e+00 1.067e-03 3.547e-04 -5.872e-04
169 1 -2.759e-03 -3.546e+00 1.048e+00 4.330e-04 6.003e-02 -1.825e-03
170 1 1.789e+00 -1.789e+00 -2.504e+00 1.604e-02 2.745e-02 -9.543e-03
171 1 -1.794e+00 -1.787e+00 -2.506e+00 -1.496e-02 2.816e-02 -1.123e-02
172 1 1.791e+00 1.796e+00 -2.503e+00 1.593e-02 -2.673e-02 -1.235e-02
173 1 -1.791e+00 1.795e+00 -2.504e+00 -1.586e-02 -2.617e-02 -1.185e-02
174 1 -1.460e-03 2.116e-03 -2.443e+00 -7.829e-04 1.333e-03 -6.201e-02
175 1 1.672e+00 -1.668e+00 1.049e+00 3.587e-01 -2.385e-01 -1.956e-03
176 1 -1.676e+00 1.678e+00 1.050e+00 -3.602e-01 2.411e-01 -1.336e-03
177 1 1.673e+00 1.679e+00 1.049e+00 3.594e-01 2.379e-01 -2.049e-03
178 1 -1.674e+00 -1.670e+00 1.049e+00 -3.587e-01 -2.376e-01 -9.397e-04
ITEM: TIMESTEP
0
ITEM: NUMBER OF ATOMS
89
ITEM: BOX BOUNDS xy xz yz pp pp pp
                     0.00000000000000e+00 1.06200000000000e+01 0.00000000000000e+00
0.00000000000000e+00	1.06200000000000e+01	0.00000000000000e+00
0.00000000000000e+00	1.06200000000000e+01	0.00000000000000e+00
ITEM: ATOMS id type x y z DisplacementX DisplacementY DisplacementZ
179 1 -2.621e-03 4.813e-03 -5.985e+00 -7.103e-04 1.482e-03 -5.030e-03
180 1 3.540e+00 -3.537e+00 -2.493e+00 -3.839e-03 6.376e-04 -2.808e-03
181 1 -3.542e+00 3.547e+00 -2.491e+00 2.414e-03 7.250e-04 -4.660e-03
182 1 -3.541e+00 -3.536e+00 -2.491e+00 2.509e-03 5.889e-04 -2.843e-03
183 1 3.540e+00 3.546e+00 -2.490e+00 -2.702e-03 -1.327e-03 -2.801e-03
184 1 1.775e+00 -3.535e+00 -4.258e+00 -1.390e-02 -8.059e-04 7.324e-03
185 1 3.538e+00 -1.772e+00 -4.258e+00 -4.857e-03 -2.263e-03 3.196e-03
186 1 -1.777e+00 -3.534e+00 -4.257e+00 1.480e-02 -1.303e-03 5.307e-03
187 1 3.538e+00 1.780e+00 -4.258e+00 -4.439e-03 4.432e-03 3.460e-03
188 1 -3.539e+00 1.780e+00 -4.258e+00 3.336e-03 1.874e-03 1.695e-03
189 1 -1.777e+00 3.544e+00 -4.255e+00 1.263e-02 2.497e-03 4.274e-03
190 1 -3.540e+00 -1.772e+00 -4.257e+00 1.978e-03 -2.901e-03 3.456e-03
191 1 1.774e+00 3.545e+00 -4.257e+00 -1.255e-02 -7.433e-04 6.147e-03
192 1 -1.572e-03 3.620e+00 4.661e+00 -8.570e-04 -9.436e-02 -9.482e-02
193 1 -3.616e+00 5.853e-03 4.662e+00 4.706e-03 -1.354e-03 -1.564e-03
194 1 3.613e+00 6.205e-03 4.661e+00 -1.097e-03 -1.772e-03 2.450e-03
195 1 -1.771e-03 -3.608e+00 4.661e+00 1.267e-03 9.376e-02 -9.101e-02
196 1 5.296e+00 -1.763e+00 1.046e+00 -2.688e-02 4.097e-03 -3.713e-04
197 1 1.767e+00 -5.294e+00 1.048e+00 6.155e-03 2.403e-02 5.790e-05
198 1 1.766e+00 5.304e+00 1.048e+00 4.358e-03 -2.299e-02 5.957e-04
199 1 -5.300e+00 -1.762e+00 1.048e+00 2.800e-02 1.376e-03 9.801e-04
200 1 -1.768e+00 5.305e+00 1.047e+00 -3.995e-03 -2.168e-02 -6.066e-04
201 1 -5.301e+00 1.773e+00 1.046e+00 2.902e-02 -2.629e-03 1.201e-03
202 1 5.298e+00 1.772e+00 1.048e+00 -2.708e-02 -3.949e-03 -2.023e-05
203 1 -1.770e+00 -5.293e+00 1.046e+00 -3.080e-03 2.321e-02 -3.555e-04
204 1 -1.238e-03 -5.270e+00 -7.241e-01 -2.100e-03 -2.023e-02 4.154e-03
205 1 5.275e+00 4.410e-03 -7.246e-01 -5.960e-03 1.129e-04 6.468e-03
206 1 -5.277e+00 3.443e-03 -7.253e-01 8.059e-03 -5.377e-04 4.781e-03
207 1 -1.051e-04 5.282e+00 -7.238e-01 6.571e-05 2.296e-02 2.726e-03
208 1 -5.277e+00 4.006e-03 2.819e+00 6.473e-03 1.547e-03 -6.068e-03
209 1 -8.930e-04 5.281e+00 2.818e+00 -6.029e-05 2.042e-02 -5.214e-03
210 1 -1.502e-03 -5.271e+00 2.820e+00 3.190e-04 -2.233e-02 -4.761e-03
211 1 5.274e+00 5.721e-03 2.821e+00 -8.715e-03 5.142e-04 -7.831e-03
212 1 -1.792e+00 1.798e+00 4.600e+00 2.817e-02 1.454e-02 1.074e-02
213 1 1.791e+00 -1.785e+00 4.602e+00 -2.760e-02 -1.671e-02 9.163e-03
214 1 1.792e+00 1.797e+00 4.601e+00 -2.780e-02 1.443e-02 1.057e-02
215 1 -1.793e+00 -1.786e+00 4.601e+00 2.781e-02 -1.485e-02 7.967e-03
216 1 3.518e+00 -3.515e+00 1.048e+00 9.366e-02 -9.306e-02 -2.432e-04
217 1 -3.522e+00 3.526e+00 1.048e+00 -9.023e-02 9.498e-02 -1.680e-04
218 1 3.520e+00 3.527e+00 1.047e+00 9.225e-02 9.345e-02 -8.609e-05
219 1 -3.522e+00 -3.516e+00 1.049e+00 -9.107e-02 -9.299e-02 -1.175e-03
220 1 -1.534e-03 6.240e-03 4.542e+00 -4.558e-05 -3.264e-03 5.704e-02
221 1 -3.563e+00 1.813e+00 2.811e+00 1.052e-02 -1.624e-02 2.724e-02
222 1 -1.810e+00 3.568e+00 2.811e+00 4.122e-02 -6.143e-04 4.399e-02
223 1 -3.564e+00 -1.803e+00 2.813e+00 1.053e-02 1.839e-02 2.705e-02
224 1 1.806e+00 3.569e+00 2.813e+00 -4.459e-02 -3.017e-03 4.302e-02
225 1 1.806e+00 -3.559e+00 2.813e+00 -4.302e-02 2.672e-03 4.212e-02
226 1 3.561e+00 -1.803e+00 2.812e+00 -1.107e-02 1.794e-02 2.647e-02
227 1 -1.808e+00 -3.557e+00 2.813e+00 4.265e-02 -2.123e-03 4.184e-02
228 1 3.561e+00 1.812e+00 2.814e+00 -9.518e-03 -1.689e-02 2.647e-02
229 1 1.764e+00 4.398e-03 -4.220e+00 8.549e-03 2.535e-03 -6.537e-03
230 1 -1.463e-04 -1.760e+00 -4.223e+00 1.971e-04 -2.551e-03 -2.887e-02
231 1 -1.257e-03 1.771e+00 -4.222e+00 -7.204e-04 5.255e-03 -2.881e-02
232 1 -1.767e+00 5.015e-03 -4.221e+00 -7.417e-03 -1.931e-04 -6.470e-03
233 1 3.613e+00 4.621e-03 -2.564e+00 -2.080e-03 1.035e-03 -9.572e-04
234 1 -2.260e-03 -3.609e+00 -2.568e+00 1.903e-04 9.264e-02 9.347e-02
235 1 -1.537e-03 3.618e+00 -2.565e+00 -1.096e-03 -9.131e-02 8.826e-02
236 1 -3.614e+00 5.383e-03 -2.563e+00 -1.361e-03 9.317e-04 -3.884e-03
237 1 -1.359e-03 7.658e-03 2.103e+00 1.050e+00 -3.577e-03 -1.053e+00
238 1 9.663e-04 1.431e-04 8.925e-04 -1.054e+00 5.139e-03 1.041e+00
239 1 1.807e+00 -3.557e+00 -7.163e-01 -4.542e-02 1.087e-03 -4.513e-02
240 1 3.562e+00 -1.802e+00 -7.165e-01 -1.108e-02 1.481e-02 -2.638e-02
241 1 -1.809e+00 -3.557e+00 -7.166e-01 4.525e-02 1.501e-03 -4.475e-02
242 1 3.561e+00 1.812e+00 -7.183e-01 -9.417e-03 -1.735e-02 -2.795e-02
243 1 -3.564e+00 1.813e+00 -7.162e-01 1.085e-02 -1.472e-02 -2.764e-02
244 1 -1.808e+00 3.564e+00 -7.170e-01 4.029e-02 -1.536e-04 -4.396e-02
245 1 -3.563e+00 -1.803e+00 -7.159e-01 9.441e-03 1.576e-02 -2.793e-02
246 1 1.805e+00 3.566e+00 -7.166e-01 -4.489e-02 2.146e-03 -4.404e-02
247 1 -1.129e-03 -2.032e+00 -8.643e-01 -3.999e-05 3.626e-01 2.405e-01
248 1 2.031e+00 4.329e-03 -8.622e-01 -1.216e-01 -1.075e-03 -1.204e-01
249 1 -2.033e+00 4.128e-03 -8.634e-01 1.180e-01 -2.299e-03 -1.273e-01
250 1 -2.368e-03 2.035e+00 -8.619e-01 -5.586e-04 -3.543e-01 2.373e-01
251 1 -2.036e+00 4.724e-03 2.961e+00 1.223e-01 1.485e-03 1.166e-01
252 1 -2.757e-03 2.043e+00 2.962e+00 -1.744e-03 -3.646e-01 -2.426e-01
253 1 -1.260e-03 -2.025e+00 2.962e+00 5.664e-05 3.569e-01 -2.393e-01
254 1 2.031e+00 4.562e-03 2.961e+00 -1.201e-01 -5.049e-04 1.206e-01
255 1 4.263e-04 3.556e+00 1.047e+00 9.209e-04 1.781e-03 -8.846e-05
256 1 -3.552e+00 5.502e-03 1.047e+00 5.779e-02 1.026e-03 -2.171e-04
257 1 3.549e+00 5.091e-03 1.048e+00 -5.891e-02 3.308e-04 -1.031e-03
258 1 -4.662e-05 -3.547e+00 1.048e+00 -9.849e-04 5.301e-04 -4.747e-04
259 1 1.791e+00 -1.786e+00 -2.505e+00 -2.656e-02 -1.446e-02 -1.142e-02
260 1 -1.792e+00 -1.787e+00 -2.506e+00 2.705e-02 -1.736e-02 -1.203e-02
261 1 1.791e+00 1.797e+00 -2.504e+00 -2.792e-02 1.716e-02 -1.214e-02
262 1 -1.793e+00 1.795e+00 -2.504e+00 2.759e-02 1.927e-02 -1.579e-02
263 1 -1.292e-03 4.760e-03 -2.443e+00 1.281e-04 1.876e-03 -6.238e-02
264 1 1.672e+00 -1.669e+00 1.049e+00 2.374e-01 -3.579e-01 -2.144e-03
265 1 -1.673e+00 1.677e+00 1.050e+00 -2.400e-01 3.610e-01 -4.974e-04
266 1 1.672e+00 1.677e+00 1.050e+00 2.379e-01 3.582e-01 -3.512e-03
267 1 -1.675e+00 -1.669e+00 1.052e+00 -2.373e-01 -3.605e-01 2.785e-04
ITEM: TIMESTEP
0
ITEM: NUMBER OF ATOMS
89
ITEM: BOX BOUNDS xy xz yz pp pp pp
                     0.00000000000000e+00 1.06200000000000e+01 0.00000000000000e+00
0.00000000000000e+00	1.06200000000000e+01	0.00000000000000e+00
0.00000000000000e+00	1.06200000000000e+01	0.00000000000000e+00
ITEM: ATOMS id type x y z DisplacementX DisplacementY DisplacementZ
268 1 9.464e-04 6.816e-03 -5.984e+00 5.449e-04 3.935e-04 -5.556e-03
269 1 3.540e+00 -3.535e+00 -2.491e+00 -3.546e-03 -8.271e-05 -2.371e-03
270 1 -3.542e+00 3.546e+00 -2.490e+00 2.207e-03 1.933e-03 -3.127e-03
271 1 -3.541e+00 -3.537e+00 -2.491e+00 7.041e-04 7.260e-04 -4.564e-03
272 1 3.542e+00 3.546e+00 -2.490e+00 -3.256e-04 2.134e-03 -3.937e-03
273 1 1.773e+00 -3.533e+00 -4.257e+00 -1.319e-02 -3.989e-05 6.359e-03
274 1 3.537e+00 -1.772e+00 -4.257e+00 -3.218e-03 4.808e-04 3.497e-03
275 1 -1.776e+00 -3.535e+00 -4.258e+00 1.400e-02 -4.906e-04 7.720e-03
276 1 3.537e+00 1.780e+00 -4.257e+00 -3.669e-03 3.999e-03 2.910e-03
277 1 -3.540e+00 1.781e+00 -4.256e+00 1.714e-03 3.337e-03 1.422e-03
278 1 -1.776e+00 3.543e+00 -4.256e+00 1.225e-02 6.094e-05 4.839e-03
279 1 -3.541e+00 -1.772e+00 -4.259e+00 3.747e-03 -2.949e-03 4.312e-03
280 1 1.775e+00 3.544e+00 -4.256e+00 -1.400e-02 -1.582e-04 5.544e-03
281 1 -4.123e-03 3.620e+00 4.662e+00 4.951e-04 -9.509e-02 -9.475e-02
282 1 -3.617e+00 4.330e-03 4.661e+00 7.976e-04 1.435e-03 -1.682e-03
283 1 3.613e+00 7.306e-03 4.662e+00 -2.747e-03 7.421e-04 -2.235e-04
284 1 -2.682e-03 -3.609e+00 4.662e+00 -1.034e-03 9.153e-02 -9.214e-02
285 1 5.298e+00 -1.763e+00 1.047e+00 -2.789e-02 7.169e-04 -8.824e-04
286 1 1.766e+00 -5.291e+00 1.047e+00 3.608e-03 2.176e-02 -8.721e-04
287 1 1.766e+00 5.303e+00 1.046e+00 5.962e-03 -2.109e-02 -1.637e-03
288 1 -5.300e+00 -1.764e+00 1.046e+00 2.947e-02 3.412e-03 1.876e-04
289 1 -1.768e+00 5.302e+00 1.048e+00 -3.191e-03 -1.941e-02 5.853e-04
290 1 -5.299e+00 1.772e+00 1.049e+00 2.966e-02 -2.276e-03 -9.872e-04
291 1 5.298e+00 1.773e+00 1.049e+00 -2.683e-02 -4.081e-03 -1.780e-03
292 1 -1.771e+00 -5.294e+00 1.047e+00 -3.697e-03 1.999e-02 -2.582e-04
293 1 1.031e-03 -5.270e+00 -7.261e-01 -9.514e-04 -2.353e-02 3.199e-03
294 1 5.275e+00 2.934e-03 -7.247e-01 -7.290e-03 -2.641e-05 5.298e-03
295 1 -5.279e+00 3.895e-03 -7.252e-01 6.493e-03 -1.049e-03 5.691e-03
296 1 -2.185e-03 5.281e+00 -7.246e-01 5.026e-04 2.153e-02 3.917e-03
297 1 -5.277e+00 6.338e-03 2.818e+00 5.538e-03 6.133e-04 -6.622e-03
298 1 -2.312e-03 5.282e+00 2.821e+00 -1.391e-03 1.965e-02 -4.263e-03
299 1 -9.208e-04 -5.272e+00 2.818e+00 -7.361e-04 -2.067e-02 -6.332e-03
300 1 5.277e+00 4.702e-03 2.820e+00 -7.568e-03 -8.763e-04 -7.480e-03
301 1 -1.792e+00 1.797e+00 4.599e+00 2.795e-02 1.770e-02 1.067e-02
302 1 1.792e+00 -1.788e+00 4.601e+00 -2.809e-02 -1.775e-02 6.784e-03
303 1 1.791e+00 1.797e+00 4.600e+00 -2.922e-02 1.431e-02 8.803e-03
304 1 -1.795e+00 -1.786e+00 4.600e+00 2.585e-02 -1.656e-02 1.197e-02
305 1 3.518e+00 -3.516e+00 1.047e+00 9.037e-02 -9.268e-02 -1.044e-03
306 1 -3.521e+00 3.525e+00 1.047e+00 -9.156e-02 9.272e-02 9.027e-04
307 1 3.519e+00 3.527e+00 1.048e+00 9.184e-02 9.565e-02 -1.235e-03
308 1 -3.523e+00 -3.516e+00 1.048e+00 -9.115e-02 -9.136e-02 -5.569e-04
309 1 -1.064e-03 4.257e-03 4.540e+00 1.753e-03 4.590e-04 5.661e-02
310 1 -3.565e+00 1.815e+00 2.810e+00 1.143e-02 -1.496e-02 2.705e-02
311 1 -1.811e+00 3.568e+00 2.810e+00 4.406e-02 -1.387e-03 4.210e-02
312 1 -3.565e+00 -1.803e+00 2.814e+00 1.152e-02 1.791e-02 2.603e-02
313 1 1.808e+00 3.569e+00 2.814e+00 -4.417e-02 -8.787e-04 4.305e-02
314 1 1.807e+00 -3.555e+00 2.812e+00 -4.373e-02 1.186e-03 4.167e-02
315 1 3.560e+00 -1.806e+00 2.812e+00 -9.913e-03 1.440e-02 2.593e-02
316 1 -1.810e+00 -3.557e+00 2.813e+00 4.397e-02 -1.625e-03 4.440e-02
317 1 3.561e+00 1.812e+00 2.811e+00 -1.082e-02 -1.616e-02 2.495e-02
318 1 1.763e+00 6.211e-03 -4.223e+00 6.328e-03 7.339e-04 -8.434e-03
319 1 -7.908e-04 -1.760e+00 -4.225e+00 9.553e-04 -2.462e-03 -2.816e-02
320 1 1.565e-04 1.769e+00 -4.222e+00 -1.269e-03 2.992e-03 -3.043e-02
321 1 -1.767e+00 4.714e-03 -4.222e+00 -7.955e-03 8.727e-04 -7.884e-03
322 1 3.613e+00 5.790e-03 -2.566e+00 -1.293e-03 7.153e-04 -3.941e-03
323 1 -2.128e-03 -3.611e+00 -2.565e+00 -1.104e-03 9.468e-02 9.073e-02
324 1 -7.266e-04 3.619e+00 -2.565e+00 3.339e-04 -9.151e-02 9.054e-02
325 1 -3.615e+00 4.672e-03 -2.565e+00 1.522e-03 1.573e-04 -9.387e-04
326 1 -1.991e-03 8.209e-03 2.103e+00 -1.051e+00 -5.317e-03 -1.055e+00
327 1 -3.259e-04 -2.807e-04 -6.802e-04 1.050e+00 3.478e-03 1.045e+00
328 1 1.808e+00 -3.556e+00 -7.158e-01 -4.413e-02 6.506e-04 -4.556e-02
329 1 3.562e+00 -1.802e+00 -7.171e-01 -9.708e-03 1.532e-02 -2.972e-02
330 1 -1.810e+00 -3.558e+00 -7.163e-01 4.387e-02 3.108e-04 -4.346e-02
331 1 3.562e+00 1.812e+00 -7.167e-01 -1.024e-02 -1.568e-02 -2.793e-02
332 1 -3.563e+00 1.811e+00 -7.165e-01 1.014e-02 -1.424e-02 -2.779e-02
333 1 -1.809e+00 3.565e+00 -7.163e-01 4.051e-02 1.749e-03 -4.343e-02
334 1 -3.563e+00 -1.801e+00 -7.150e-01 8.670e-03 1.464e-02 -2.964e-02
335 1 1.804e+00 3.566e+00 -7.167e-01 -4.221e-02 2.562e-03 -4.563e-02
336 1 -1.692e-03 -2.031e+00 -8.639e-01 6.114e-04 3.604e-01 2.380e-01
337 1 2.032e+00 5.702e-03 -8.657e-01 -1.220e-01 2.748e-03 -1.211e-01
338 1 -2.030e+00 6.284e-03 -8.642e-01 1.195e-01 5.301e-04 -1.227e-01
339 1 3.397e-05 2.032e+00 -8.626e-01 -1.609e-03 -3.533e-01 2.369e-01
340 1 -2.034e+00 5.057e-03 2.963e+00 1.228e-01 9.956e-04 1.172e-01
341 1 -1.226e-03 2.041e+00 2.961e+00 -4.852e-04 -3.615e-01 -2.407e-01
342 1 -3.248e-03 -2.025e+00 2.961e+00 -1.991e-05 3.562e-01 -2.381e-01
343 1 2.030e+00 5.885e-03 2.963e+00 -1.201e-01 3.788e-04 1.183e-01
344 1 -1.766e-03 3.554e+00 1.047e+00 7.233e-06 1.590e-03 -1.415e-03
345 1 -3.553e+00 4.940e-03 1.049e+00 5.850e-02 -1.110e-03 -1.360e-03
346 1 3.550e+00 5.933e-03 1.048e+00 -5.903e-02 -2.803e-04 -7.629e-04
347 1 -2.997e-03 -3.546e+00 1.048e+00 1.578e-04 -1.471e-03 -2.812e-03
348 1 1.792e+00 -1.789e+00 -2.504e+00 -2.658e-02 -1.555e-02 -1.232e-02
349 1 -1.796e+00 -1.788e+00 -2.504e+00 2.623e-02 -1.584e-02 -1.115e-02
350 1 1.791e+00 1.797e+00 -2.506e+00 -2.950e-02 1.717e-02 -1.197e-02
351 1 -1.793e+00 1.796e+00 -2.503e+00 2.881e-02 1.663e-02 -1.109e-02
352 1 4.477e-04 4.099e-03 -2.442e+00 3.053e-04 2.172e-03 -6.127e-02
353 1 1.670e+00 -1.668e+00 1.048e+00 2.371e-01 -3.578e-01 -2.803e-03
354 1 -1.674e+00 1.679e+00 1.051e+00 -2.378e-01 3.609e-01 -3.115e-03
355 1 1.672e+00 1.678e+00 1.048e+00 2.383e-01 3.597e-01 -5.583e-05
356 1 -1.675e+00 -1.671e+00 1.049e+00 -2.379e-01 -3.585e-01 -2.725e-03
ITEM: TIMESTEP
0
ITEM: NUMBER OF ATOMS
89
ITEM: BOX BOUNDS xy xz yz pp pp pp
                     0.00000000000000e+00 1.06200000000000e+01 0.00000000000000e+00
0.00000000000000e+00	1.06200000000000e+01	0.00000000000000e+00
0.00000000000000e+00	1.06200000000000e+01	0.00000000000000e+00
ITEM: ATOMS id type x y z DisplacementX DisplacementY DisplacementZ
357 1 -1.599e-03 5.445e-03 -5.985e+00 1.559e-02 6.720e-04 -5.036e-03
358 1 3.539e+00 -3.536e+00 -2.490e+00 6.214e-03 2.235e-03 6.786e-03
359 1 -3.542e+00 3.546e+00 -2.491e+00 2.116e-02 2.371e-02 -2.829e-02
360 1 -3.542e+00 -3.535e+00 -2.492e+00 2.298e-02 -2.000e-02 -2.859e-02
361 1 3.539e+00 3.546e+00 -2.492e+00 6.279e-03 -2.038e-03 6.309e-03
362 1 1.774e+00 -3.535e+00 -4.257e+00 5.287e-03 2.543e-04 6.670e-03
363 1 3.537e+00 -1.770e+00 -4.257e+00 6.801e-03 3.647e-04 1.050e-02
364 1 -1.776e+00 -3.535e+00 -4.257e+00 1.870e-02 1.873e-02 2.833e-02
365 1 3.538e+00 1.780e+00 -4.258e+00 9.726e-03 -8.900e-04 8.553e-03
366 1 -3.541e+00 1.783e+00 -4.256e+00 1.793e-02 3.417e-02 -1.733e-02
367 1 -1.775e+00 3.543e+00 -4.256e+00 2.051e-02 -1.953e-02 2.652e-02
368 1 -3.541e+00 -1.769e+00 -4.257e+00 1.809e-02 -3.173e-02 -1.529e-02
369 1 1.774e+00 3.542e+00 -4.256e+00 7.269e-03 4.118e-03 5.671e-03
370 1 -1.644e-03 3.621e+00 4.660e+00 4.315e-03 -7.483e-02 -7.283e-02
371 1 -3.616e+00 5.130e-03 4.660e+00 8.701e-02 1.866e-03 -9.558e-02
372 1 3.613e+00 5.704e-03 4.662e+00 -5.300e-02 -1.719e-03 -5.353e-02
373 1 -2.792e-03 -3.607e+00 4.660e+00 5.048e-03 7.325e-02 -7.079e-02
374 1 5.296e+00 -1.761e+00 1.045e+00 -1.704e-02 8.518e-03 4.588e-03
375 1 1.768e+00 -5.294e+00 1.049e+00 1.168e-02 -3.308e-03 2.034e-02
376 1 1.768e+00 5.302e+00 1.047e+00 1.037e-02 2.777e-03 2.331e-02
377 1 -5.301e+00 -1.762e+00 1.051e+00 -9.628e-03 -2.330e-02 3.503e-02
378 1 -1.768e+00 5.302e+00 1.047e+00 1.186e-02 1.465e-03 1.012e-02
379 1 -5.301e+00 1.772e+00 1.047e+00 -9.341e-03 2.542e-02 3.432e-02
380 1 5.296e+00 1.772e+00 1.048e+00 -1.638e-02 -6.476e-03 4.425e-03
381 1 -1.769e+00 -5.293e+00 1.047e+00 1.306e-02 -9.730e-05 9.675e-03
382 1 -1.526e-03 -5.270e+00 -7.242e-01 1.651e-02 -6.248e-04 1.733e-02
383 1 5.275e+00 3.836e-03 -7.250e-01 -1.356e-03 -6.266e-04 1.713e-02
384 1 -5.278e+00 3.936e-03 -7.252e-01 2.726e-02 6.450e-05 1.499e-02
385 1 -2.373e-03 5.281e+00 -7.215e-01 1.530e-02 6.535e-05 1.356e-02
386 1 -5.279e+00 4.659e-03 2.822e+00 -9.112e-02 1.099e-03 8.343e-02
387 1 -1.268e-03 5.281e+00 2.820e+00 4.467e-03 2.269e-02 1.125e-02
388 1 -1.337e-03 -5.271e+00 2.821e+00 5.909e-03 -2.129e-02 7.461e-03
389 1 5.276e+00 4.815e-03 2.819e+00 5.486e-03 -3.184e-04 -5.105e-03
390 1 -1.796e+00 1.797e+00 4.601e+00 3.747e-02 -2.281e-02 -8.008e-03
391 1 1.790e+00 -1.786e+00 4.601e+00 -1.357e-02 1.281e-02 -9.752e-03
392 1 1.791e+00 1.798e+00 4.600e+00 -1.393e-02 -1.475e-02 -7.675e-03
393 1 -1.792e+00 -1.786e+00 4.601e+00 3.563e-02 2.165e-02 -1.085e-02
394 1 3.520e+00 -3.512e+00 1.049e+00 2.914e-02 -1.815e-02 1.835e-02
395 1 -3.522e+00 3.527e+00 1.045e+00 -8.498e-05 4.340e-02 5.180e-02
396 1 3.520e+00 3.524e+00 1.047e+00 2.946e-02 2.083e-02 1.966e-02
397 1 -3.521e+00 -3.513e+00 1.046e+00 5.548e-04 -4.104e-02 4.951e-02
398 1 -6.658e-04 4.238e-03 4.542e+00 1.483e-02 -1.535e-04 2.683e-02
399 1 -3.563e+00 1.812e+00 2.811e+00 4.357e-02 -5.593e-04 4.032e-02
400 1 -1.810e+00 3.568e+00 2.813e+00 5.336e-02 -4.072e-02 -2.403e-03
401 1 -3.563e+00 -1.805e+00 2.812e+00 4.204e-02 2.764e-03 4.117e-02
402 1 1.808e+00 3.568e+00 2.812e+00 -2.366e-02 -2.224e-02 2.052e-02
403 1 1.806e+00 -3.557e+00 2.812e+00 -2.498e-02 2.068e-02 1.999e-02
404 1 3.561e+00 -1.803e+00 2.811e+00 -1.409e-02 3.182e-02 1.772e-02
405 1 -1.809e+00 -3.555e+00 2.813e+00 5.064e-02 4.010e-02 -1.036e-03
406 1 3.561e+00 1.813e+00 2.813e+00 -1.396e-02 -3.035e-02 1.803e-02
407 1 1.765e+00 6.082e-03 -4.222e+00 8.975e-02 9.702e-04 -9.892e-02
408 1 -1.907e-03 -1.762e+00 -4.223e+00 5.880e-03 -4.175e-02 -4.908e-02
409 1 -2.571e-03 1.768e+00 -4.221e+00 8.255e-03 4.328e-02 -5.206e-02
410 1 -1.768e+00 4.666e-03 -4.222e+00 9.210e-03 -7.790e-04 -3.946e-02
411 1 3.613e+00 3.395e-03 -2.564e+00 -1.015e-01 -8.445e-04 8.850e-02