ITEM: TIMESTEP
0
ITEM: NUMBER OF ATOMS
89
ITEM: BOX BOUNDS xy xz yz pp pp pp
                     0.00000000000000e+00 1.06200000000000e+01 0.00000000000000e+00
0.00000000000000e+00	1.06200000000000e+01	0.00000000000000e+00
0.00000000000000e+00	1.06200000000000e+01	0.00000000000000e+00
ITEM: ATOMS id type x y z DisplacementX DisplacementY DisplacementZ
1 1 -8.664e-04 -5.978e+00 -1.126e-05 -1.252e-02 -8.014e-03 -7.427e-04
2 1 3.545e+00 -2.487e+00 3.547e+00 -2.011e-02 -2.575e-02 1.987e-02
3 1 -3.547e+00 -2.490e+00 -3.545e+00 -3.611e-03 4.486e-03 1.140e-03
4 1 -3.546e+00 -2.490e+00 3.546e+00 -2.427e-03 5.812e-03 -1.081e-03
5 1 3.547e+00 -2.489e+00 -3.547e+00 -2.018e-02 -2.814e-02 -2.067e-02
6 1 1.779e+00 -4.254e+00 3.544e+00 -1.884e-02 2.440e-02 -2.024e-02
7 1 3.545e+00 -4.255e+00 1.779e+00 -1.865e-02 -1.898e-02 3.244e-02
8 1 -1.780e+00 -4.257e+00 3.544e+00 -5.041e-03 4.098e-03 3.746e-03
9 1 3.546e+00 -4.256e+00 -1.779e+00 -2.071e-02 -1.933e-02 -3.256e-02
10 1 -3.545e+00 -4.255e+00 -1.778e+00 -4.011e-03 5.538e-03 3.903e-04
11 1 -1.779e+00 -4.256e+00 -3.543e+00 -3.055e-03 3.306e-03 -2.229e-03
12 1 -3.544e+00 -4.256e+00 1.777e+00 -3.706e-03 4.749e-03 -8.986e-04
13 1 1.779e+00 -4.256e+00 -3.546e+00 -1.983e-02 2.429e-02 1.984e-02
14 1 1.001e-04 4.668e+00 -3.619e+00 -4.445e-03 -7.172e-02 7.260e-02
15 1 -3.618e+00 4.669e+00 -9.205e-04 5.550e-02 -4.867e-02 -6.958e-04
16 1 3.620e+00 4.669e+00 -5.250e-04 -8.754e-02 -9.456e-02 1.015e-03
17 1 1.079e-03 4.667e+00 3.617e+00 -3.721e-03 -7.202e-02 -7.533e-02
18 1 5.302e+00 1.051e+00 1.770e+00 9.136e-03 3.320e-02 2.387e-02
19 1 1.771e+00 1.053e+00 5.302e+00 -1.097e-02 1.107e-02 -5.495e-04
20 1 1.768e+00 1.052e+00 -5.302e+00 -1.341e-02 9.590e-03 -6.245e-05
21 1 -5.301e+00 1.055e+00 1.770e+00 2.324e-02 4.089e-03 -7.140e-03
22 1 -1.772e+00 1.053e+00 -5.301e+00 -8.549e-03 2.033e-02 -4.538e-03
23 1 -5.302e+00 1.054e+00 -1.771e+00 2.202e-02 4.618e-03 8.159e-03
24 1 5.302e+00 1.054e+00 -1.770e+00 1.107e-02 3.463e-02 -2.338e-02
25 1 -1.770e+00 1.053e+00 5.302e+00 -1.071e-02 2.149e-02 3.483e-03
26 1 -2.332e-04 -7.211e-01 5.281e+00 -1.396e-02 1.525e-02 -1.348e-03
27 1 5.281e+00 -7.194e-01 7.304e-04 -2.756e-02 1.453e-02 -2.721e-04
28 1 -5.279e+00 -7.209e-01 6.865e-04 8.121e-03 1.523e-02 3.956e-04
29 1 -1.332e-04 -7.211e-01 -5.280e+00 -1.420e-02 1.521e-02 1.153e-03
30 1 -5.281e+00 2.826e+00 -9.764e-04 -3.269e-03 -5.355e-03 -9.233e-04
31 1 -8.287e-04 2.825e+00 -5.280e+00 -4.903e-03 9.742e-03 -2.451e-02
32 1 -8.398e-04 2.827e+00 5.282e+00 -5.358e-03 1.029e-02 2.532e-02
33 1 5.279e+00 2.826e+00 -9.539e-04 9.379e-02 8.386e-02 8.721e-04
34 1 -1.794e+00 4.607e+00 -1.795e+00 1.415e-02 -6.093e-03 1.378e-02
35 1 1.795e+00 4.606e+00 1.795e+00 -3.524e-02 -1.244e-02 -2.469e-02
36 1 1.795e+00 4.608e+00 -1.796e+00 -3.670e-02 -1.259e-02 2.275e-02
37 1 -1.794e+00 4.605e+00 1.795e+00 1.478e-02 -5.426e-03 -1.417e-02
38 1 3.525e+00 1.054e+00 3.524e+00 3.607e-04 5.211e-02 4.144e-02
39 1 -3.523e+00 1.052e+00 -3.525e+00 -2.488e-02 1.879e-02 -1.845e-02
40 1 3.524e+00 1.052e+00 -3.525e+00 1.617e-03 5.221e-02 -4.201e-02
41 1 -3.524e+00 1.052e+00 3.524e+00 -2.358e-02 2.015e-02 1.996e-02
42 1 6.036e-04 4.547e+00 -2.167e-04 -1.410e-02 2.693e-02 2.995e-04
43 1 -3.565e+00 2.819e+00 -1.810e+00 1.681e-02 2.041e-02 3.044e-02
44 1 -1.810e+00 2.818e+00 -3.567e+00 2.675e-02 2.114e-02 1.949e-02
45 1 -3.566e+00 2.819e+00 1.811e+00 1.717e-02 1.878e-02 -2.906e-02
46 1 1.808e+00 2.819e+00 -3.566e+00 -5.049e-02 -5.505e-05 4.187e-02
47 1 1.810e+00 2.818e+00 3.564e+00 -5.219e-02 -2.025e-03 -4.131e-02
48 1 3.567e+00 2.819e+00 1.811e+00 -4.292e-02 3.930e-02 -1.068e-03
49 1 -1.810e+00 2.819e+00 3.563e+00 2.557e-02 2.110e-02 -1.865e-02
50 1 3.566e+00 2.820e+00 -1.810e+00 -4.106e-02 3.924e-02 2.795e-03
51 1 1.767e+00 -4.216e+00 -3.075e-04 -1.011e-02 -4.185e-02 3.542e-05
52 1 1.421e-04 -4.219e+00 1.767e+00 -7.241e-03 -5.152e-02 4.302e-02
53 1 -1.136e-04 -4.219e+00 -1.767e+00 -7.961e-03 -5.142e-02 -4.170e-02
54 1 -1.767e+00 -4.220e+00 -3.984e-04 -8.638e-02 -1.054e-01 1.626e-03
55 1 3.618e+00 -2.563e+00 -8.887e-04 5.508e-02 -1.802e-01 8.775e-04
56 1 1.010e-04 -2.563e+00 3.618e+00 -7.086e-03 4.433e-02 -5.267e-02
57 1 -3.659e-04 -2.562e+00 -3.618e+00 -7.014e-03 4.599e-02 5.130e-02
58 1 -3.618e+00 -2.561e+00 1.591e-03 1.068e-01 8.968e-02 3.110e-04
59 1 2.144e-03 2.105e+00 -1.707e-03 -1.564e-01 -7.732e-01 -5.971e-04
60 1 -8.206e-04 1.212e-03 1.010e-03 7.089e-01 -7.015e-01 -6.693e-05
61 1 1.809e+00 -7.112e-01 3.566e+00 -5.086e-02 6.036e-03 -1.271e-02
62 1 3.567e+00 -7.142e-01 1.810e+00 1.091e-01 7.144e-03 2.258e-01
63 1 -1.810e+00 -7.136e-01 3.566e+00 -4.700e-02 6.336e-03 5.411e-02
64 1 3.568e+00 -7.125e-01 -1.811e+00 1.073e-01 8.181e-03 -2.269e-01
65 1 -3.565e+00 -7.129e-01 -1.810e+00 5.510e-02 6.743e-03 4.135e-02
66 1 -1.810e+00 -7.121e-01 -3.566e+00 -4.583e-02 6.754e-03 -5.299e-02
67 1 -3.565e+00 -7.119e-01 1.810e+00 5.357e-02 7.593e-03 -4.192e-02
68 1 1.808e+00 -7.137e-01 -3.566e+00 -5.111e-02 5.712e-03 1.105e-02
69 1 9.062e-04 -8.615e-01 2.037e+00 -1.558e-01 1.534e-01 3.266e-04
70 1 2.034e+00 -8.624e-01 -1.022e-03 7.776e-01 1.505e-01 1.391e-03
71 1 -2.036e+00 -8.621e-01 -2.145e-03 3.016e-01 1.583e-01 -4.854e-04
72 1 9.596e-04 -8.625e-01 -2.035e+00 -1.553e-01 1.556e-01 -1.114e-03
73 1 -2.034e+00 2.966e+00 -1.483e-03 1.765e-01 -5.399e-02 -1.860e-03
74 1 3.370e-04 2.967e+00 -2.036e+00 -8.009e-03 -1.073e-01 2.226e-01
75 1 -6.695e-04 2.968e+00 2.035e+00 -5.786e-03 -1.067e-01 -2.230e-01
76 1 2.035e+00 2.969e+00 6.109e-04 -2.770e-01 -1.207e-01 5.374e-04
77 1 9.226e-04 1.053e+00 -3.555e+00 -7.763e-03 5.102e-02 -1.071e-02
78 1 -3.553e+00 1.053e+00 2.043e-03 4.254e-02 8.779e-03 -1.497e-03
79 1 3.552e+00 1.053e+00 1.969e-04 1.183e-01 2.751e-01 -1.069e-03
80 1 2.506e-04 1.053e+00 3.554e+00 -7.148e-03 4.994e-02 1.299e-02
81 1 1.793e+00 -2.503e+00 1.793e+00 -3.462e-02 1.194e-01 -1.178e-01
82 1 -1.794e+00 -2.503e+00 1.794e+00 -1.673e-03 4.474e-04 4.841e-04
83 1 1.794e+00 -2.501e+00 -1.795e+00 -3.329e-02 1.197e-01 1.178e-01
84 1 -1.794e+00 -2.501e+00 -1.795e+00 -1.687e-03 2.092e-03 -7.502e-04
85 1 -3.185e-04 -2.442e+00 2.209e-04 -1.524e-01 -2.957e-01 -3.868e-04
86 1 1.676e+00 1.053e+00 1.675e+00 8.462e-02 -8.268e-02 -1.580e-03
87 1 -1.674e+00 1.054e+00 -1.675e+00 -1.191e-01 3.621e-02 -1.198e-01
88 1 1.675e+00 1.052e+00 -1.674e+00 8.335e-02 -8.411e-02 1.074e-04
89 1 -1.676e+00 1.053e+00 1.677e+00 -1.198e-01 3.534e-02 1.188e-01
ITEM: TIMESTEP
0
ITEM: NUMBER OF ATOMS
89
ITEM: BOX BOUNDS xy xz yz pp pp pp
                     0.00000000000000e+00 1.06200000000000e+01 0.00000000000000e+00
0.00000000000000e+00	1.06200000000000e+01	0.00000000000000e+00
0.00000000000000e+00	1.06200000000000e+01	0.00000000000000e+00
ITEM: ATOMS id type x y z DisplacementX DisplacementY DisplacementZ
90 1 8.827e-04 -5.979e+00 -2.927e-04 -1.035e-04 -8.401e-03 1.313e-03
91 1 3.545e+00 -2.490e+00 3.545e+00 -5.235e-05 -6.005e-03 -2.170e-03
92 1 -3.545e+00 -2.488e+00 -3.546e+00 7.764e-04 -2.556e-03 4.866e-03
93 1 -3.546e+00 -2.488e+00 3.546e+00 -1.215e-03 -4.411e-03 -3.436e-03
94 1 3.547e+00 -2.488e+00 -3.544e+00 2.057e-03 -3.391e-03 4.044e-03
95 1 1.779e+00 -4.255e+00 3.544e+00 3.923e-03 4.710e-04 -3.163e-03
96 1 3.544e+00 -4.255e+00 1.778e+00 6.696e-04 5.090e-03 -1.418e-02
97 1 -1.778e+00 -4.256e+00 3.545e+00 -1.229e-03 1.521e-03 -3.974e-03
98 1 3.544e+00 -4.253e+00 -1.777e+00 -5.477e-04 6.288e-03 1.578e-02
99 1 -3.543e+00 -4.255e+00 -1.777e+00 -2.249e-04 5.702e-03 1.714e-02
100 1 -1.780e+00 -4.256e+00 -3.544e+00 -8.973e-04 2.038e-03 6.058e-03
101 1 -3.544e+00 -4.255e+00 1.777e+00 -1.605e-04 5.280e-03 -1.377e-02
102 1 1.779e+00 -4.254e+00 -3.543e+00 2.220e-03 2.043e-03 6.773e-03
103 1 1.007e-03 4.670e+00 -3.620e+00 4.647e-04 2.808e-03 2.891e-03
104 1 -3.619e+00 4.669e+00 -7.786e-04 9.237e-02 -9.167e-02 3.843e-04
105 1 3.620e+00 4.669e+00 5.103e-04 -9.276e-02 -9.011e-02 -1.553e-03
106 1 -8.679e-04 4.669e+00 3.617e+00 -2.779e-04 1.340e-03 -2.594e-03
107 1 5.301e+00 1.052e+00 1.769e+00 -2.083e-02 5.655e-04 3.594e-03
108 1 1.769e+00 1.053e+00 5.302e+00 -1.643e-03 -1.178e-04 -3.089e-02
109 1 1.770e+00 1.052e+00 -5.302e+00 -3.823e-03 9.798e-05 3.227e-02
110 1 -5.302e+00 1.054e+00 1.770e+00 2.022e-02 -9.267e-04 3.221e-03
111 1 -1.771e+00 1.052e+00 -5.302e+00 2.077e-03 2.518e-04 3.034e-02
112 1 -5.303e+00 1.053e+00 -1.769e+00 2.011e-02 3.965e-05 -2.961e-03
113 1 5.303e+00 1.053e+00 -1.769e+00 -2.130e-02 -5.718e-04 -3.232e-03
114 1 -1.770e+00 1.054e+00 5.301e+00 3.243e-03 1.126e-03 -3.053e-02
115 1 -6.740e-05 -7.217e-01 5.281e+00 -2.871e-03 6.262e-03 -7.317e-03
116 1 5.280e+00 -7.223e-01 -7.244e-05 2.294e-02 4.221e-03 2.836e-03
117 1 -5.281e+00 -7.218e-01 5.575e-04 -2.294e-02 3.742e-03 2.732e-04
118 1 -3.128e-04 -7.211e-01 -5.279e+00 3.786e-04 7.810e-03 9.514e-03
119 1 -5.279e+00 2.824e+00 -1.183e-03 -2.336e-02 -1.911e-03 -1.341e-03
120 1 -1.106e-03 2.827e+00 -5.280e+00 -7.646e-04 -6.649e-03 7.088e-03
121 1 1.830e-05 2.827e+00 5.280e+00 -7.891e-04 -8.229e-03 -9.948e-03
122 1 5.281e+00 2.827e+00 8.145e-04 2.120e-02 -1.711e-03 1.047e-03
123 1 -1.794e+00 4.607e+00 -1.795e+00 -1.656e-02 1.111e-02 2.746e-02
124 1 1.793e+00 4.606e+00 1.794e+00 1.688e-02 1.035e-02 -2.790e-02
125 1 1.793e+00 4.607e+00 -1.795e+00 1.701e-02 1.112e-02 2.890e-02
126 1 -1.795e+00 4.607e+00 1.794e+00 -1.467e-02 1.119e-02 -2.744e-02
127 1 3.524e+00 1.055e+00 3.525e+00 9.503e-02 2.013e-04 9.041e-02
128 1 -3.524e+00 1.051e+00 -3.523e+00 -9.544e-02 5.887e-05 -9.219e-02
129 1 3.525e+00 1.052e+00 -3.524e+00 9.687e-02 1.542e-03 -8.966e-02
130 1 -3.523e+00 1.053e+00 3.524e+00 -9.528e-02 -2.039e-03 9.022e-02
131 1 1.331e-03 4.546e+00 -2.017e-03 6.089e-05 6.170e-02 -3.634e-04
132 1 -3.565e+00 2.819e+00 -1.809e+00 -1.036e-03 4.284e-02 4.283e-02
133 1 -1.811e+00 2.819e+00 -3.565e+00 1.464e-02 2.782e-02 1.207e-02
134 1 -3.567e+00 2.818e+00 1.810e+00 -1.038e-03 4.421e-02 -4.431e-02
135 1 1.809e+00 2.818e+00 -3.567e+00 -1.529e-02 2.798e-02 1.182e-02
136 1 1.810e+00 2.818e+00 3.566e+00 -1.578e-02 2.734e-02 -1.477e-02
137 1 3.566e+00 2.820e+00 1.811e+00 7.774e-04 4.332e-02 -4.417e-02
138 1 -1.809e+00 2.818e+00 3.565e+00 1.570e-02 2.710e-02 -1.188e-02
139 1 3.565e+00 2.819e+00 -1.811e+00 1.226e-03 4.370e-02 4.100e-02
140 1 1.767e+00 -4.218e+00 -3.005e-04 3.950e-03 -3.068e-02 2.514e-03
141 1 1.680e-04 -4.217e+00 1.766e+00 2.216e-04 -8.181e-03 6.169e-03
142 1 2.476e-04 -4.220e+00 -1.768e+00 -8.318e-04 -8.593e-03 -3.625e-03
143 1 -1.767e+00 -4.218e+00 -1.030e-03 -2.872e-03 -2.919e-02 5.384e-04
144 1 3.619e+00 -2.561e+00 -1.554e-03 -9.252e-02 9.029e-02 -4.301e-05
145 1 -1.696e-03 -2.562e+00 3.620e+00 2.372e-04 -4.508e-03 -1.887e-03
146 1 -7.734e-04 -2.563e+00 -3.619e+00 -7.584e-04 -1.511e-03 6.300e-03
147 1 -3.618e+00 -2.561e+00 -3.347e-04 9.178e-02 9.133e-02 8.265e-04
148 1 -3.754e-05 2.105e+00 -1.049e-03 1.846e-04 -1.050e+00 -1.051e+00
149 1 6.161e-04 8.398e-04 -2.414e-04 8.547e-04 1.049e+00 1.053e+00
150 1 1.810e+00 -7.141e-01 3.566e+00 -1.556e-02 -2.865e-02 -1.285e-02
151 1 3.567e+00 -7.127e-01 1.811e+00 9.892e-04 -4.402e-02 -4.486e-02
152 1 -1.810e+00 -7.121e-01 3.566e+00 1.663e-02 -2.743e-02 -1.098e-02
153 1 3.565e+00 -7.121e-01 -1.811e+00 2.040e-03 -4.419e-02 4.599e-02
154 1 -3.566e+00 -7.129e-01 -1.809e+00 -2.709e-03 -4.344e-02 4.240e-02
155 1 -1.809e+00 -7.130e-01 -3.564e+00 1.475e-02 -2.638e-02 1.041e-02
156 1 -3.567e+00 -7.136e-01 1.811e+00 -2.403e-03 -4.473e-02 -4.410e-02
157 1 1.811e+00 -7.120e-01 -3.566e+00 -1.453e-02 -2.759e-02 1.239e-02
158 1 -9.791e-04 -8.600e-01 2.034e+00 1.333e-03 -1.228e-01 -1.197e-01
159 1 2.036e+00 -8.641e-01 -3.028e-04 -3.590e-01 2.373e-01 2.520e-04
160 1 -2.035e+00 -8.617e-01 -7.240e-04 3.583e-01 2.386e-01 -4.414e-04
161 1 -2.345e-04 -8.623e-01 -2.034e+00 4.184e-05 -1.182e-01 1.222e-01
162 1 -2.034e+00 2.967e+00 1.076e-03 3.580e-01 -2.386e-01 -1.187e-03
163 1 3.816e-06 2.966e+00 -2.038e+00 -1.053e-03 1.220e-01 1.208e-01
164 1 -1.121e-05 2.967e+00 2.035e+00 8.810e-04 1.181e-01 -1.221e-01
165 1 2.034e+00 2.967e+00 9.136e-04 -3.593e-01 -2.399e-01 -5.077e-04
166 1 8.217e-06 1.051e+00 -3.554e+00 1.518e-03 -2.158e-04 5.970e-02
167 1 -3.555e+00 1.053e+00 -1.078e-03 -1.928e-03 -7.556e-04 5.607e-04
168 1 3.553e+00 1.055e+00 -2.860e-04 1.146e-03 -5.056e-04 1.008e-03
169 1 -6.542e-04 1.052e+00 3.553e+00 -8.125e-04 -1.832e-03 -5.782e-02
170 1 1.793e+00 -2.502e+00 1.795e+00 1.570e-02 -1.138e-02 -2.793e-02
171 1 -1.795e+00 -2.500e+00 1.794e+00 -1.780e-02 -1.221e-02 -2.632e-02
172 1 1.794e+00 -2.502e+00 -1.794e+00 1.506e-02 -1.010e-02 2.959e-02
173 1 -1.795e+00 -2.502e+00 -1.793e+00 -1.660e-02 -1.027e-02 2.861e-02
174 1 -1.785e-03 -2.441e+00 4.607e-04 -6.667e-04 -5.953e-02 -7.705e-04
175 1 1.675e+00 1.052e+00 1.674e+00 3.608e-01 2.469e-04 2.386e-01
176 1 -1.675e+00 1.052e+00 -1.677e+00 -3.607e-01 5.834e-04 -2.380e-01
177 1 1.676e+00 1.053e+00 -1.675e+00 3.586e-01 8.651e-04 -2.367e-01
178 1 -1.675e+00 1.051e+00 1.674e+00 -3.602e-01 7.041e-05 2.388e-01
ITEM: TIMESTEP
0
ITEM: NUMBER OF ATOMS
89
ITEM: BOX BOUNDS xy xz yz pp pp pp
                     0.00000000000000e+00 1.06200000000000e+01 0.00000000000000e+00
0.00000000000000e+00	1.06200000000000e+01	0.00000000000000e+00
0.00000000000000e+00	1.06200000000000e+01	0.00000000000000e+00
ITEM: ATOMS id type x y z DisplacementX DisplacementY DisplacementZ
179 1 -2.934e-04 -5.979e+00 5.839e-04 2.986e-03 -1.027e-02 -8.676e-04
180 1 3.546e+00 -2.491e+00 3.547e+00 -4.154e-03 -3.155e-03 1.980e-03
181 1 -3.545e+00 -2.489e+00 -3.545e+00 5.362e-03 -3.775e-03 -6.014e-04
182 1 -3.545e+00 -2.489e+00 3.547e+00 5.004e-03 -3.004e-03 -5.606e-04
183 1 3.546e+00 -2.488e+00 -3.545e+00 -4.115e-03 -2.973e-03 2.481e-04
184 1 1.779e+00 -4.256e+00 3.543e+00 -1.441e-02 4.966e-03 5.083e-04
185 1 3.545e+00 -4.255e+00 1.777e+00 -4.387e-03 2.671e-03 2.553e-03
186 1 -1.778e+00 -4.255e+00 3.545e+00 1.399e-02 5.785e-03 5.049e-04
187 1 3.545e+00 -4.254e+00 -1.778e+00 -5.304e-03 2.056e-03 -1.532e-03
188 1 -3.543e+00 -4.253e+00 -1.779e+00 5.082e-03 1.985e-03 -2.542e-03
189 1 -1.778e+00 -4.254e+00 -3.545e+00 1.551e-02 4.394e-03 -1.396e-03
190 1 -3.543e+00 -4.255e+00 1.779e+00 5.853e-03 2.934e-03 2.533e-03
191 1 1.779e+00 -4.255e+00 -3.544e+00 -1.290e-02 3.163e-03 3.867e-05
192 1 -1.153e-03 4.670e+00 -3.617e+00 -1.905e-03 -8.961e-02 9.356e-02
193 1 -3.617e+00 4.668e+00 8.420e-04 2.793e-03 3.135e-03 -6.881e-04
194 1 3.618e+00 4.667e+00 3.048e-04 -3.475e-03 1.635e-03 2.264e-03
195 1 -8.089e-04 4.668e+00 3.619e+00 -1.419e-03 -9.145e-02 -9.440e-02
196 1 5.303e+00 1.051e+00 1.770e+00 -2.949e-02 -1.030e-03 -3.660e-03
197 1 1.768e+00 1.053e+00 5.304e+00 4.356e-03 -5.523e-04 -2.234e-02
198 1 1.771e+00 1.052e+00 -5.300e+00 3.672e-03 -9.186e-04 2.250e-02
199 1 -5.302e+00 1.052e+00 1.771e+00 3.087e-02 1.751e-04 -2.823e-03
200 1 -1.771e+00 1.053e+00 -5.303e+00 -1.422e-03 1.701e-03 2.192e-02
201 1 -5.301e+00 1.053e+00 -1.771e+00 3.034e-02 8.273e-04 1.040e-03
202 1 5.302e+00 1.051e+00 -1.770e+00 -2.976e-02 -8.746e-05 2.770e-03
203 1 -1.770e+00 1.053e+00 5.302e+00 -3.323e-03 -1.205e-03 -2.287e-02
204 1 8.109e-04 -7.210e-01 5.280e+00 -7.005e-04 3.619e-03 2.396e-02
205 1 5.282e+00 -7.201e-01 -7.479e-04 -6.239e-03 5.363e-03 -4.663e-05
206 1 -5.279e+00 -7.224e-01 1.115e-03 9.834e-03 6.630e-03 -2.633e-03
207 1 -9.031e-04 -7.208e-01 -5.279e+00 3.837e-05 1.507e-03 -2.329e-02
208 1 -5.280e+00 2.825e+00 -3.040e-04 7.506e-03 -5.476e-03 2.367e-05
209 1 1.646e-03 2.825e+00 -5.280e+00 -1.009e-03 -4.349e-03 -2.352e-02
210 1 -1.935e-03 2.827e+00 5.279e+00 -9.080e-04 -3.869e-03 2.395e-02
211 1 5.280e+00 2.825e+00 -4.715e-04 -6.504e-03 -7.332e-03 -1.534e-04
212 1 -1.793e+00 4.607e+00 -1.796e+00 2.748e-02 1.256e-02 -1.733e-02
213 1 1.794e+00 4.607e+00 1.796e+00 -2.863e-02 1.142e-02 1.515e-02
214 1 1.794e+00 4.606e+00 -1.795e+00 -2.890e-02 1.070e-02 -1.510e-02
215 1 -1.795e+00 4.607e+00 1.795e+00 2.958e-02 1.202e-02 1.470e-02
216 1 3.525e+00 1.052e+00 3.525e+00 9.034e-02 -2.095e-03 9.386e-02
217 1 -3.524e+00 1.054e+00 -3.525e+00 -9.143e-02 2.035e-03 -9.545e-02
218 1 3.523e+00 1.053e+00 -3.524e+00 9.190e-02 -9.459e-04 -9.145e-02
219 1 -3.527e+00 1.053e+00 3.525e+00 -8.912e-02 -9.407e-04 9.409e-02
220 1 7.100e-04 4.548e+00 -7.777e-04 -8.278e-04 6.022e-02 1.138e-03
221 1 -3.564e+00 2.819e+00 -1.809e+00 1.166e-02 2.833e-02 1.495e-02
222 1 -1.809e+00 2.818e+00 -3.566e+00 4.403e-02 4.374e-02 -7.704e-04
223 1 -3.567e+00 2.818e+00 1.810e+00 1.328e-02 2.887e-02 -1.425e-02
224 1 1.809e+00 2.819e+00 -3.566e+00 -4.405e-02 4.365e-02 -1.330e-03
225 1 1.809e+00 2.821e+00 3.567e+00 -4.438e-02 4.305e-02 2.196e-03
226 1 3.567e+00 2.819e+00 1.810e+00 -1.202e-02 2.813e-02 -1.488e-02
227 1 -1.810e+00 2.819e+00 3.568e+00 4.563e-02 4.216e-02 1.151e-03
228 1 3.564e+00 2.818e+00 -1.811e+00 -1.293e-02 2.759e-02 1.564e-02
229 1 1.767e+00 -4.216e+00 9.586e-04 7.630e-03 -9.638e-03 4.033e-04
230 1 -1.907e-04 -4.218e+00 1.767e+00 1.116e-04 -3.122e-02 2.707e-03
231 1 1.237e-03 -4.218e+00 -1.767e+00 1.415e-03 -3.147e-02 -2.473e-03
232 1 -1.768e+00 -4.219e+00 1.688e-03 -8.229e-03 -7.768e-03 5.075e-04
233 1 3.618e+00 -2.563e+00 2.309e-04 -3.124e-03 -4.216e-03 -1.513e-03
234 1 -3.499e-05 -2.561e+00 3.619e+00 2.351e-03 9.191e-02 -9.357e-02
235 1 4.217e-04 -2.563e+00 -3.619e+00 2.005e-03 8.948e-02 9.258e-02
236 1 -3.617e+00 -2.564e+00 7.143e-04 2.192e-03 -3.052e-03 -6.845e-04
237 1 4.283e-04 2.106e+00 3.622e-04 -1.052e+00 -1.050e+00 1.349e-03
238 1 1.730e-03 -5.841e-04 3.176e-04 1.054e+00 1.050e+00 3.814e-04
239 1 1.811e+00 -7.135e-01 3.565e+00 -4.348e-02 -4.425e-02 1.521e-03
240 1 3.566e+00 -7.138e-01 1.811e+00 -1.180e-02 -2.737e-02 -1.665e-02
241 1 -1.810e+00 -7.138e-01 3.566e+00 4.344e-02 -4.395e-02 -1.651e-04
242 1 3.566e+00 -7.130e-01 -1.809e+00 -1.127e-02 -2.821e-02 1.726e-02
243 1 -3.567e+00 -7.135e-01 -1.811e+00 1.303e-02 -2.552e-02 1.459e-02
244 1 -1.809e+00 -7.128e-01 -3.567e+00 4.479e-02 -4.234e-02 1.419e-04
245 1 -3.566e+00 -7.124e-01 1.811e+00 1.234e-02 -2.664e-02 -1.513e-02
246 1 1.810e+00 -7.128e-01 -3.567e+00 -4.589e-02 -4.426e-02 -1.217e-03
247 1 -1.173e-03 -8.614e-01 2.034e+00 -5.684e-04 2.392e-01 -3.592e-01
248 1 2.034e+00 -8.604e-01 1.898e-03 -1.216e-01 -1.218e-01 -2.648e-04
249 1 -2.035e+00 -8.604e-01 -2.315e-03 1.205e-01 -1.192e-01 -1.570e-03
250 1 -1.894e-04 -8.625e-01 -2.036e+00 2.611e-04 2.399e-01 3.608e-01
251 1 -2.035e+00 2.968e+00 1.879e-03 1.220e-01 1.220e-01 1.127e-03
252 1 4.960e-04 2.966e+00 -2.035e+00 -1.007e-03 -2.386e-01 3.594e-01
253 1 -4.633e-04 2.966e+00 2.035e+00 -1.152e-03 -2.385e-01 -3.589e-01
254 1 2.035e+00 2.969e+00 2.240e-03 -1.230e-01 1.198e-01 3.130e-04
255 1 -1.856e-03 1.052e+00 -3.553e+00 1.102e-03 -1.372e-03 -7.113e-04
256 1 -3.554e+00 1.051e+00 -2.787e-03 6.037e-02 1.195e-03 -1.313e-03
257 1 3.553e+00 1.052e+00 -7.205e-04 -5.987e-02 1.516e-04 -5.367e-04
258 1 -8.631e-04 1.055e+00 3.554e+00 -2.643e-03 -1.444e-03 2.085e-03
259 1 1.795e+00 -2.503e+00 1.795e+00 -2.790e-02 -1.155e-02 1.596e-02
260 1 -1.794e+00 -2.503e+00 1.796e+00 3.098e-02 -1.116e-02 1.765e-02
261 1 1.795e+00 -2.501e+00 -1.794e+00 -2.705e-02 -1.252e-02 -1.661e-02
262 1 -1.795e+00 -2.500e+00 -1.795e+00 2.820e-02 -1.046e-02 -1.597e-02
263 1 -5.103e-04 -2.443e+00 2.458e-03 1.350e-03 -5.728e-02 -2.830e-03
264 1 1.677e+00 1.051e+00 1.675e+00 2.380e-01 8.696e-04 3.600e-01
265 1 -1.675e+00 1.052e+00 -1.675e+00 -2.378e-01 -3.585e-04 -3.602e-01
266 1 1.677e+00 1.053e+00 -1.678e+00 2.368e-01 -1.175e-03 -3.603e-01
267 1 -1.675e+00 1.054e+00 1.676e+00 -2.372e-01 -3.624e-04 3.605e-01
ITEM: TIMESTEP
0
ITEM: NUMBER OF ATOMS
89
ITEM: BOX BOUNDS xy xz yz pp pp pp
                     0.00000000000000e+00 1.06200000000000e+01 0.00000000000000e+00
0.00000000000000e+00	1.06200000000000e+01	0.00000000000000e+00
0.00000000000000e+00	1.06200000000000e+01	0.00000000000000e+00
ITEM: ATOMS id type x y z DisplacementX DisplacementY DisplacementZ
268 1 1.036e-03 -5.979e+00 -6.751e-04 -3.048e-04 -8.865e-03 -1.259e-04
269 1 3.547e+00 -2.489e+00 3.545e+00 9.289e-04 -1.962e-03 -5.692e-03
270 1 -3.546e+00 -2.489e+00 -3.545e+00 -1.709e-03 -6.318e-03 5.742e-03
271 1 -3.546e+00 -2.490e+00 3.545e+00 4.976e-04 -3.383e-03 -4.387e-03
272 1 3.546e+00 -2.491e+00 -3.547e+00 7.642e-04 -5.013e-03 5.039e-03
273 1 1.780e+00 -4.255e+00 3.544e+00 1.671e-03 1.926e-03 -5.579e-03
274 1 3.545e+00 -4.256e+00 1.778e+00 -1.345e-03 5.109e-03 -1.623e-02
275 1 -1.779e+00 -4.254e+00 3.544e+00 -2.509e-03 2.351e-03 -5.986e-03
276 1 3.543e+00 -4.256e+00 -1.779e+00 6.220e-05 4.856e-03 1.404e-02
277 1 -3.545e+00 -4.257e+00 -1.780e+00 -3.993e-04 4.621e-03 1.266e-02
278 1 -1.778e+00 -4.256e+00 -3.545e+00 -9.798e-04 3.642e-03 4.906e-03
279 1 -3.544e+00 -4.255e+00 1.778e+00 -1.443e-03 5.280e-03 -1.486e-02
280 1 1.777e+00 -4.259e+00 -3.545e+00 2.302e-03 2.749e-04 5.902e-03
281 1 -1.512e-03 4.668e+00 -3.620e+00 8.093e-04 1.314e-03 5.015e-03
282 1 -3.617e+00 4.670e+00 6.101e-04 9.498e-02 -8.941e-02 2.127e-03
283 1 3.619e+00 4.668e+00 -7.493e-04 -9.366e-02 -9.115e-02 1.177e-03
284 1 1.039e-03 4.668e+00 3.621e+00 -8.810e-04 1.588e-03 -2.910e-03
285 1 5.303e+00 1.052e+00 1.770e+00 -2.136e-02 -8.655e-04 4.438e-03
286 1 1.770e+00 1.053e+00 5.304e+00 -2.768e-03 1.256e-03 -3.190e-02
287 1 1.771e+00 1.051e+00 -5.301e+00 -2.009e-03 9.263e-05 3.123e-02
288 1 -5.303e+00 1.053e+00 1.771e+00 2.233e-02 8.085e-04 1.523e-03
289 1 -1.770e+00 1.054e+00 -5.301e+00 3.346e-03 9.794e-04 2.951e-02
290 1 -5.303e+00 1.053e+00 -1.768e+00 2.138e-02 -1.353e-03 -2.236e-03
291 1 5.302e+00 1.054e+00 -1.770e+00 -2.051e-02 4.306e-04 -5.182e-03
292 1 -1.768e+00 1.052e+00 5.300e+00 1.477e-03 1.038e-03 -3.210e-02
293 1 2.973e-05 -7.234e-01 5.280e+00 7.188e-05 5.051e-03 -1.090e-02
294 1 5.279e+00 -7.212e-01 9.522e-04 2.319e-02 2.639e-03 2.578e-03
295 1 -5.278e+00 -7.220e-01 -1.855e-03 -2.260e-02 3.473e-03 9.166e-04
296 1 4.737e-04 -7.213e-01 -5.281e+00 -1.157e-03 6.230e-03 7.979e-03
297 1 -5.280e+00 2.825e+00 1.348e-03 -2.306e-02 -4.966e-03 -1.848e-04
298 1 2.789e-04 2.826e+00 -5.280e+00 -2.314e-03 -6.430e-03 1.052e-02
299 1 1.346e-03 2.827e+00 5.279e+00 -2.151e-03 -6.256e-03 -7.349e-03
300 1 5.279e+00 2.826e+00 -9.372e-05 2.279e-02 -2.677e-03 1.476e-05
301 1 -1.797e+00 4.609e+00 -1.795e+00 -1.816e-02 9.317e-03 2.875e-02
302 1 1.793e+00 4.606e+00 1.795e+00 1.708e-02 1.151e-02 -2.683e-02
303 1 1.795e+00 4.607e+00 -1.795e+00 1.680e-02 1.149e-02 3.034e-02
304 1 -1.793e+00 4.608e+00 1.795e+00 -1.648e-02 1.291e-02 -2.922e-02
305 1 3.525e+00 1.053e+00 3.525e+00 9.319e-02 4.420e-04 9.012e-02
306 1 -3.524e+00 1.054e+00 -3.524e+00 -9.301e-02 -6.248e-04 -9.191e-02
307 1 3.524e+00 1.054e+00 -3.525e+00 9.411e-02 -1.513e-03 -9.014e-02
308 1 -3.525e+00 1.053e+00 3.524e+00 -9.378e-02 1.059e-03 9.181e-02
309 1 -6.096e-05 4.547e+00 -1.909e-03 -6.985e-04 5.990e-02 -1.489e-04
310 1 -3.564e+00 2.818e+00 -1.808e+00 4.422e-04 4.527e-02 4.416e-02
311 1 -1.809e+00 2.819e+00 -3.568e+00 1.635e-02 2.815e-02 1.167e-02
312 1 -3.564e+00 2.819e+00 1.809e+00 -1.418e-03 4.498e-02 -4.404e-02
313 1 1.811e+00 2.817e+00 -3.567e+00 -1.738e-02 2.670e-02 1.104e-02
314 1 1.809e+00 2.818e+00 3.567e+00 -1.619e-02 2.880e-02 -1.042e-02
315 1 3.566e+00 2.819e+00 1.810e+00 1.045e-03 4.567e-02 -4.448e-02
316 1 -1.809e+00 2.819e+00 3.566e+00 1.615e-02 2.822e-02 -1.253e-02
317 1 3.566e+00 2.819e+00 -1.808e+00 3.231e-04 4.456e-02 4.575e-02
318 1 1.768e+00 -4.219e+00 -6.983e-04 3.228e-03 -3.163e-02 -1.516e-03
319 1 -7.038e-04 -4.219e+00 1.768e+00 -7.589e-04 -8.404e-03 5.508e-03
320 1 -1.845e-03 -4.220e+00 -1.768e+00 6.218e-04 -6.898e-03 -6.565e-03
321 1 -1.766e+00 -4.219e+00 -1.120e-03 -3.954e-03 -3.184e-02 -1.606e-04
322 1 3.618e+00 -2.562e+00 4.871e-04 -9.463e-02 9.150e-02 -2.038e-03
323 1 -8.477e-04 -2.563e+00 3.618e+00 -6.393e-04 -2.915e-03 -4.041e-03
324 1 -1.243e-03 -2.563e+00 -3.619e+00 5.194e-04 -3.967e-03 2.558e-03
325 1 -3.619e+00 -2.562e+00 2.691e-03 9.204e-02 9.124e-02 6.621e-05
326 1 -1.358e-03 2.105e+00 -8.788e-04 -3.018e-04 -1.052e+00 1.052e+00
327 1 -1.166e-03 2.076e-04 9.467e-04 3.202e-05 1.052e+00 -1.053e+00
328 1 1.810e+00 -7.133e-01 3.565e+00 -1.587e-02 -2.830e-02 -1.349e-02
329 1 3.567e+00 -7.131e-01 1.810e+00 1.101e-04 -4.297e-02 -4.558e-02
330 1 -1.810e+00 -7.149e-01 3.567e+00 1.521e-02 -2.681e-02 -1.192e-02
331 1 3.564e+00 -7.127e-01 -1.809e+00 1.897e-04 -4.678e-02 4.191e-02
332 1 -3.567e+00 -7.124e-01 -1.811e+00 2.281e-04 -4.284e-02 4.337e-02
333 1 -1.811e+00 -7.136e-01 -3.566e+00 1.548e-02 -2.848e-02 1.114e-02
334 1 -3.565e+00 -7.136e-01 1.810e+00 -1.229e-03 -4.264e-02 -4.345e-02
335 1 1.811e+00 -7.145e-01 -3.564e+00 -1.465e-02 -2.870e-02 1.281e-02
336 1 4.489e-04 -8.605e-01 2.035e+00 -2.468e-04 -1.206e-01 -1.205e-01
337 1 2.035e+00 -8.630e-01 2.903e-03 -3.598e-01 2.378e-01 -3.202e-03
338 1 -2.034e+00 -8.604e-01 1.329e-03 3.593e-01 2.384e-01 1.399e-03
339 1 9.303e-04 -8.612e-01 -2.034e+00 6.455e-04 -1.206e-01 1.220e-01
340 1 -2.036e+00 2.967e+00 -8.766e-04 3.608e-01 -2.399e-01 7.173e-04
341 1 1.722e-03 2.967e+00 -2.034e+00 -2.937e-04 1.194e-01 1.214e-01
342 1 -6.462e-06 2.967e+00 2.036e+00 -1.412e-04 1.232e-01 -1.208e-01
343 1 2.034e+00 2.967e+00 -4.667e-04 -3.598e-01 -2.378e-01 2.989e-04
344 1 2.635e-04 1.052e+00 -3.553e+00 9.825e-04 1.384e-03 5.975e-02
345 1 -3.553e+00 1.053e+00 5.572e-04 -9.694e-04 1.738e-04 2.044e-03
346 1 3.554e+00 1.052e+00 -1.551e-03 -9.406e-04 1.080e-03 -7.454e-04
347 1 -9.753e-04 1.051e+00 3.555e+00 8.714e-06 7.705e-04 -5.892e-02
348 1 1.794e+00 -2.502e+00 1.797e+00 1.669e-02 -1.080e-02 -2.934e-02
349 1 -1.794e+00 -2.501e+00 1.797e+00 -1.505e-02 -1.052e-02 -2.871e-02
350 1 1.793e+00 -2.502e+00 -1.794e+00 1.691e-02 -1.184e-02 2.933e-02
351 1 -1.794e+00 -2.504e+00 -1.793e+00 -1.604e-02 -9.782e-03 2.684e-02
352 1 -3.692e-05 -2.442e+00 -3.820e-04 -1.753e-04 -5.779e-02 -8.043e-04
353 1 1.675e+00 1.054e+00 1.676e+00 3.594e-01 -3.038e-04 2.364e-01
354 1 -1.676e+00 1.052e+00 -1.676e+00 -3.593e-01 -1.189e-03 -2.364e-01
355 1 1.675e+00 1.054e+00 -1.677e+00 3.616e-01 8.401e-04 -2.391e-01
356 1 -1.674e+00 1.050e+00 1.675e+00 -3.617e-01 1.031e-03 2.387e-01
ITEM: TIMESTEP
0
ITEM: NUMBER OF ATOMS
89
ITEM: BOX BOUNDS xy xz yz pp pp pp
                     0.00000000000000e+00 1.06200000000000e+01 0.00000000000000e+00
0.00000000000000e+00	1.06200000000000e+01	0.00000000000000e+00
0.00000000000000e+00	1.06200000000000e+01	0.00000000000000e+00
ITEM: ATOMS id type x y z DisplacementX DisplacementY DisplacementZ
357 1 -1.533e-03 -5.981e+00 -1.200e-04 6.627e-03 2.100e-03 -9.689e-04
358 1 3.547e+00 -2.491e+00 3.548e+00 -3.092e-03 1.789e-02 -5.168e-04
359 1 -3.547e+00 -2.489e+00 -3.547e+00 -2.485e-02 1.659e-02 -2.097e-02
360 1 -3.546e+00 -2.491e+00 3.546e+00 -2.328e-02 1.700e-02 2.108e-02
361 1 3.544e+00 -2.490e+00 -3.547e+00 -3.871e-03 2.015e-02 2.241e-03
362 1 1.778e+00 -4.258e+00 3.545e+00 7.536e-03 6.958e-03 3.383e-03
363 1 3.544e+00 -4.255e+00 1.777e+00 3.011e-03 9.528e-03 2.328e-03
364 1 -1.780e+00 -4.256e+00 3.545e+00 1.845e-02 -6.532e-02 7.428e-02
365 1 3.544e+00 -4.255e+00 -1.778e+00 2.775e-03 1.197e-02 -1.066e-03
366 1 -3.542e+00 -4.255e+00 -1.779e+00 -1.105e-02 -6.663e-03 -1.610e-02
367 1 -1.778e+00 -4.255e+00 -3.544e+00 1.673e-02 -6.805e-02 -7.531e-02
368 1 -3.546e+00 -4.256e+00 1.778e+00 -1.205e-02 -6.467e-03 1.598e-02
369 1 1.778e+00 -4.255e+00 -3.544e+00 9.930e-03 5.707e-03 -2.632e-03
370 1 -1.002e-03 4.668e+00 -3.620e+00 1.730e-02 -6.544e-02 7.308e-02
371 1 -3.620e+00 4.669e+00 7.185e-05 9.266e-02 -1.046e-01 -5.028e-04
372 1 3.618e+00 4.668e+00 9.277e-04 -5.560e-02 -5.263e-02 -5.241e-04
373 1 -2.909e-03 4.667e+00 3.619e+00 1.974e-02 -6.727e-02 -7.392e-02
374 1 5.303e+00 1.052e+00 1.769e+00 -1.570e-02 6.046e-03 -6.060e-03
375 1 1.768e+00 1.052e+00 5.303e+00 1.490e-02 3.773e-03 1.752e-03
376 1 1.770e+00 1.052e+00 -5.301e+00 1.480e-02 6.808e-03 -4.722e-04
377 1 -5.301e+00 1.053e+00 1.769e+00 -2.224e-02 6.610e-03 3.851e-02
378 1 -1.771e+00 1.053e+00 -5.304e+00 8.643e-03 1.557e-02 2.215e-02
379 1 -5.302e+00 1.053e+00 -1.771e+00 -2.090e-02 4.597e-03 -3.872e-02
380 1 5.302e+00 1.052e+00 -1.769e+00 -1.557e-02 5.815e-03 6.777e-03
381 1 -1.770e+00 1.054e+00 5.301e+00 8.300e-03 1.357e-02 -2.061e-02
382 1 -3.369e-04 -7.215e-01 5.280e+00 1.237e-02 1.558e-02 2.299e-02
383 1 5.280e+00 -7.216e-01 9.200e-04 6.999e-05 1.551e-02 7.276e-04
384 1 -5.280e+00 -7.208e-01 -6.580e-04 -3.441e-02 1.339e-02 -7.189e-04
385 1 -3.753e-04 -7.191e-01 -5.279e+00 1.018e-02 1.606e-02 -2.171e-02
386 1 -5.279e+00 2.827e+00 1.176e-03 -9.629e-02 8.092e-02 7.993e-04
387 1 -1.074e-03 2.825e+00 -5.280e+00 1.976e-02 5.633e-03 -2.754e-02
388 1 -1.169e-03 2.826e+00 5.280e+00 2.094e-02 5.798e-03 2.700e-02
389 1 5.280e+00 2.827e+00 8.759e-04 6.102e-03 -3.670e-03 -3.763e-05
390 1 -1.792e+00 4.608e+00 -1.793e+00 3.650e-02 -4.282e-02 2.496e-02
391 1 1.795e+00 4.606e+00 1.795e+00 -8.163e-03 -4.457e-03 -1.571e-02
392 1 1.793e+00 4.609e+00 -1.794e+00 -8.991e-03 -6.950e-03 1.508e-02
393 1 -1.793e+00 4.609e+00 1.794e+00 3.478e-02 -4.074e-02 -2.536e-02
394 1 3.522e+00 1.053e+00 3.525e+00 1.943e-02 4.085e-03 2.034e-02
395 1 -3.524e+00 1.053e+00 -3.525e+00 -4.275e-02 4.527e-03 -4.391e-02
396 1 3.524e+00 1.054e+00 -3.526e+00 1.915e-02 3.163e-03 -2.082e-02
397 1 -3.525e+00 1.053e+00 3.526e+00 -4.397e-02 7.085e-03 4.282e-02
398 1 5.181e-04 4.546e+00 -2.937e-04 8.919e-03 1.853e-02 1.238e-03
399 1 -3.565e+00 2.819e+00 -1.812e+00 1.415e-02 2.871e-02 1.508e-02
400 1 -1.811e+00 2.818e+00 -3.565e+00 5.171e-02 8.961e-02 -5.350e-02
401 1 -3.566e+00 2.816e+00 1.811e+00 1.120e-02 2.854e-02 -1.541e-02
402 1 1.811e+00 2.818e+00 -3.566e+00 -2.264e-02 1.781e-02 1.991e-02
403 1 1.810e+00 2.820e+00 3.566e+00 -2.307e-02 1.779e-02 -2.028e-02
404 1 3.564e+00 2.819e+00 1.810e+00 -1.998e-02 1.542e-02 -2.983e-02
405 1 -1.810e+00 2.820e+00 3.566e+00 5.138e-02 9.065e-02 5.145e-02
406 1 3.565e+00 2.817e+00 -1.808e+00 -1.672e-02 1.174e-02 2.877e-02
407 1 1.768e+00 -4.219e+00 -1.695e-03 8.859e-02 -1.004e-01 -4.575e-04
408 1 -2.930e-04 -4.219e+00 1.767e+00 3.513e-02 -4.305e-02 2.578e-02
409 1 -1.071e-03 -4.222e+00 -1.768e+00 3.323e-02 -4.282e-02 -2.715e-02
410 1 -1.767e+00 -4.220e+00 6.407e-04 6.066e-03 1.956e-02 -1.805e-04