ITEM: TIMESTEP
0
ITEM: NUMBER OF ATOMS
89
ITEM: BOX BOUNDS xy xz yz pp pp pp
                     0.00000000000000e+00 1.06200000000000e+01 0.00000000000000e+00
0.00000000000000e+00	1.06200000000000e+01	0.00000000000000e+00
0.00000000000000e+00	1.06200000000000e+01	0.00000000000000e+00
ITEM: ATOMS id type x y z DisplacementX DisplacementY DisplacementZ
1 1 -2.873e-03 6.191e-03 -5.984e+00 -1.611e-02 -3.899e-04 -2.376e-03
2 1 3.538e+00 -3.536e+00 -2.493e+00 -2.038e-02 -2.059e-02 -2.359e-02
3 1 -3.544e+00 3.544e+00 -2.491e+00 -7.168e-03 -1.638e-03 4.931e-03
4 1 -3.543e+00 -3.536e+00 -2.492e+00 -6.922e-03 1.913e-03 6.251e-03
5 1 3.539e+00 3.545e+00 -2.490e+00 -2.121e-02 2.049e-02 -2.585e-02
6 1 1.775e+00 -3.536e+00 -4.257e+00 -1.929e-02 1.998e-02 2.851e-02
7 1 3.538e+00 -1.770e+00 -4.256e+00 -1.880e-02 -3.359e-02 -1.433e-02
8 1 -1.777e+00 -3.534e+00 -4.259e+00 -5.876e-03 -2.182e-03 6.428e-03
9 1 3.538e+00 1.781e+00 -4.258e+00 -1.708e-02 3.393e-02 -1.687e-02
10 1 -3.539e+00 1.779e+00 -4.258e+00 -7.631e-03 -5.818e-04 7.644e-03
11 1 -1.776e+00 3.542e+00 -4.257e+00 -5.796e-03 3.089e-03 5.846e-03
12 1 -3.542e+00 -1.768e+00 -4.256e+00 -8.667e-03 2.534e-04 9.491e-03
13 1 1.773e+00 3.544e+00 -4.257e+00 -1.901e-02 -1.916e-02 2.629e-02
14 1 -2.679e-03 3.620e+00 4.663e+00 -6.724e-03 -7.701e-02 -7.284e-02
15 1 -3.617e+00 7.424e-03 4.661e+00 5.386e-02 -4.996e-04 -5.136e-02
16 1 3.614e+00 3.120e-03 4.662e+00 -8.538e-02 -1.491e-03 -9.380e-02
17 1 -1.919e-03 -3.608e+00 4.661e+00 -5.089e-03 7.270e-02 -7.300e-02
18 1 5.296e+00 -1.763e+00 1.048e+00 1.015e-02 -2.340e-02 3.438e-02
19 1 1.766e+00 -5.292e+00 1.049e+00 -1.284e-02 8.400e-05 1.184e-02
20 1 1.766e+00 5.304e+00 1.046e+00 -1.172e-02 -9.244e-06 1.088e-02
21 1 -5.300e+00 -1.763e+00 1.047e+00 1.657e-02 8.263e-03 3.136e-03
22 1 -1.769e+00 5.303e+00 1.046e+00 -9.799e-03 5.285e-03 2.029e-02
23 1 -5.300e+00 1.772e+00 1.049e+00 1.583e-02 -7.597e-03 3.045e-03
24 1 5.297e+00 1.773e+00 1.046e+00 1.040e-02 2.563e-02 3.439e-02
25 1 -1.769e+00 -5.292e+00 1.048e+00 -1.150e-02 -3.702e-03 2.116e-02
26 1 9.069e-05 -5.272e+00 -7.234e-01 -1.625e-02 -1.166e-03 1.489e-02
27 1 5.274e+00 4.811e-03 -7.247e-01 -2.746e-02 2.006e-04 1.632e-02
28 1 -5.278e+00 3.904e-03 -7.252e-01 2.181e-03 4.181e-04 1.654e-02
29 1 -1.831e-03 5.281e+00 -7.260e-01 -1.403e-02 3.891e-04 1.343e-02
30 1 -5.278e+00 4.122e-03 2.820e+00 -6.657e-03 -8.246e-04 -6.258e-03
31 1 -6.452e-04 5.283e+00 2.820e+00 -5.881e-03 2.112e-02 1.158e-02
32 1 -1.440e-03 -5.272e+00 2.819e+00 -6.720e-03 -2.230e-02 1.013e-02
33 1 5.276e+00 5.065e-03 2.820e+00 9.222e-02 2.148e-04 8.324e-02
34 1 -1.792e+00 1.796e+00 4.599e+00 1.273e-02 -1.138e-02 -8.272e-03
35 1 1.792e+00 -1.787e+00 4.601e+00 -3.503e-02 2.371e-02 -1.305e-02
36 1 1.791e+00 1.797e+00 4.603e+00 -3.572e-02 -2.585e-02 -1.172e-02
37 1 -1.793e+00 -1.787e+00 4.598e+00 1.152e-02 1.246e-02 -7.739e-03
38 1 3.519e+00 -3.517e+00 1.049e+00 -2.171e-03 -4.287e-02 5.081e-02
39 1 -3.522e+00 3.525e+00 1.048e+00 -2.781e-02 1.982e-02 2.005e-02
40 1 3.520e+00 3.524e+00 1.046e+00 -1.092e-03 4.296e-02 5.034e-02
41 1 -3.522e+00 -3.515e+00 1.049e+00 -2.752e-02 -1.912e-02 2.065e-02
42 1 -1.957e-05 4.537e-03 4.541e+00 -1.599e-02 -1.600e-03 2.643e-02
43 1 -3.562e+00 1.812e+00 2.811e+00 1.263e-02 -3.230e-02 2.063e-02
44 1 -1.808e+00 3.567e+00 2.813e+00 2.541e-02 -2.275e-02 2.076e-02
45 1 -3.566e+00 -1.803e+00 2.812e+00 1.182e-02 3.327e-02 1.619e-02
46 1 1.808e+00 3.569e+00 2.812e+00 -5.402e-02 -4.331e-02 -1.336e-03
47 1 1.806e+00 -3.557e+00 2.813e+00 -5.027e-02 4.249e-02 -1.781e-03
48 1 3.561e+00 -1.803e+00 2.811e+00 -4.237e-02 -2.181e-04 4.001e-02
49 1 -1.808e+00 -3.557e+00 2.814e+00 2.468e-02 2.207e-02 2.056e-02
50 1 3.561e+00 1.813e+00 2.814e+00 -4.264e-02 -1.500e-03 4.061e-02
51 1 1.764e+00 4.367e-03 -4.224e+00 -1.051e-02 6.593e-04 -3.797e-02
52 1 -4.745e-04 -1.760e+00 -4.223e+00 -8.390e-03 -4.035e-02 -4.913e-02
53 1 3.557e-04 1.769e+00 -4.220e+00 -6.720e-03 4.337e-02 -4.921e-02
54 1 -1.766e+00 5.837e-03 -4.221e+00 -9.034e-02 2.174e-03 -1.003e-01
55 1 3.612e+00 6.256e-03 -2.563e+00 5.588e-02 3.116e-04 -1.811e-01
56 1 -2.300e-03 -3.610e+00 -2.567e+00 -7.328e-03 5.316e-02 4.816e-02
57 1 -2.041e-03 3.617e+00 -2.562e+00 -6.809e-03 -5.187e-02 4.561e-02
58 1 -3.615e+00 5.657e-03 -2.563e+00 9.988e-02 8.801e-04 8.845e-02
59 1 -2.012e-03 7.337e-03 2.102e+00 -1.569e-01 -4.253e-03 -7.771e-01
60 1 -6.016e-06 -3.644e-04 -8.553e-04 7.057e-01 4.800e-03 -7.059e-01
61 1 1.808e+00 -3.560e+00 -7.165e-01 -5.166e-02 1.202e-02 5.669e-03
62 1 3.560e+00 -1.802e+00 -7.153e-01 1.066e-01 -2.259e-01 5.961e-03
63 1 -1.810e+00 -3.557e+00 -7.182e-01 -4.759e-02 -4.949e-02 7.527e-03
64 1 3.563e+00 1.812e+00 -7.167e-01 1.071e-01 2.255e-01 7.474e-03
65 1 -3.562e+00 1.812e+00 -7.150e-01 4.779e-02 -4.107e-02 7.531e-03
66 1 -1.808e+00 3.566e+00 -7.160e-01 -5.110e-02 5.433e-02 7.593e-03
67 1 -3.564e+00 -1.801e+00 -7.161e-01 4.970e-02 4.397e-02 7.109e-03
68 1 1.805e+00 3.566e+00 -7.158e-01 -5.146e-02 -1.015e-02 7.582e-03
69 1 -1.016e-03 -2.030e+00 -8.654e-01 -1.541e-01 2.714e-03 1.549e-01
70 1 2.033e+00 5.198e-03 -8.648e-01 7.769e-01 -1.720e-03 1.512e-01
71 1 -2.033e+00 4.562e-03 -8.659e-01 2.952e-01 -3.734e-04 1.547e-01
72 1 -1.387e-03 2.031e+00 -8.623e-01 -1.569e-01 3.124e-03 1.527e-01
73 1 -2.038e+00 3.760e-03 2.961e+00 1.777e-01 3.061e-04 -5.481e-02
74 1 -8.767e-04 2.041e+00 2.963e+00 -9.371e-03 -2.274e-01 -1.097e-01
75 1 -1.109e-03 -2.026e+00 2.960e+00 -8.654e-03 2.231e-01 -1.052e-01
76 1 2.031e+00 3.154e-03 2.962e+00 -2.772e-01 2.296e-03 -1.216e-01
77 1 -1.450e-03 3.556e+00 1.048e+00 -9.569e-03 1.179e-02 5.028e-02
78 1 -3.550e+00 5.154e-03 1.048e+00 3.930e-02 -1.340e-04 7.157e-03
79 1 3.548e+00 4.534e-03 1.049e+00 1.168e-01 8.479e-04 2.728e-01
80 1 -1.940e-03 -3.546e+00 1.048e+00 -8.659e-03 -1.062e-02 4.775e-02
81 1 1.790e+00 -1.788e+00 -2.503e+00 -3.424e-02 1.182e-01 1.202e-01
82 1 -1.792e+00 -1.788e+00 -2.504e+00 -1.134e-03 2.738e-03 3.710e-03
83 1 1.790e+00 1.795e+00 -2.504e+00 -3.632e-02 -1.162e-01 1.207e-01
84 1 -1.794e+00 1.796e+00 -2.503e+00 -5.882e-03 5.467e-05 1.564e-03
85 1 -1.849e-03 4.769e-03 -2.442e+00 -1.563e-01 1.361e-03 -2.968e-01
86 1 1.672e+00 -1.669e+00 1.049e+00 8.281e-02 -9.898e-04 -8.542e-02
87 1 -1.675e+00 1.678e+00 1.049e+00 -1.223e-01 1.195e-01 3.403e-02
88 1 1.671e+00 1.677e+00 1.050e+00 8.237e-02 2.972e-03 -8.576e-02
89 1 -1.675e+00 -1.669e+00 1.050e+00 -1.221e-01 -1.180e-01 3.479e-02
ITEM: TIMESTEP
0
ITEM: NUMBER OF ATOMS
89
ITEM: BOX BOUNDS xy xz yz pp pp pp
                     0.00000000000000e+00 1.06200000000000e+01 0.00000000000000e+00
0.00000000000000e+00	1.06200000000000e+01	0.00000000000000e+00
0.00000000000000e+00	1.06200000000000e+01	0.00000000000000e+00
ITEM: ATOMS id type x y z DisplacementX DisplacementY DisplacementZ
90 1 8.691e-04 5.017e-03 -5.983e+00 1.690e-03 -1.138e-03 -6.585e-03
91 1 3.539e+00 -3.537e+00 -2.488e+00 1.315e-03 2.273e-03 -1.753e-03
92 1 -3.542e+00 3.546e+00 -2.490e+00 -1.316e-03 -2.090e-03 -3.328e-03
93 1 -3.543e+00 -3.537e+00 -2.491e+00 2.451e-04 1.671e-03 -2.097e-03
94 1 3.540e+00 3.547e+00 -2.489e+00 -7.837e-04 -1.569e-03 -3.628e-03
95 1 1.774e+00 -3.534e+00 -4.256e+00 1.197e-03 5.017e-03 4.358e-03
96 1 3.538e+00 -1.771e+00 -4.259e+00 -2.199e-05 1.190e-02 7.756e-03
97 1 -1.776e+00 -3.534e+00 -4.255e+00 -4.069e-03 4.699e-03 3.704e-03
98 1 3.539e+00 1.779e+00 -4.258e+00 -3.913e-04 -1.414e-02 6.567e-03
99 1 -3.540e+00 1.780e+00 -4.258e+00 -2.262e-03 -1.237e-02 4.675e-03
100 1 -1.776e+00 3.544e+00 -4.256e+00 3.588e-04 -3.090e-03 1.871e-03
101 1 -3.539e+00 -1.771e+00 -4.259e+00 1.166e-04 1.354e-02 6.154e-03
102 1 1.772e+00 3.543e+00 -4.256e+00 8.564e-04 -4.055e-03 1.493e-03
103 1 -1.505e-04 3.620e+00 4.663e+00 1.669e-04 -5.668e-03 -6.469e-04
104 1 -3.617e+00 6.114e-03 4.661e+00 9.353e-02 -1.381e-03 -9.281e-02
105 1 3.613e+00 5.519e-03 4.661e+00 -9.302e-02 -1.686e-03 -9.260e-02
106 1 -7.557e-04 -3.610e+00 4.661e+00 -1.763e-03 1.282e-03 1.588e-03
107 1 5.296e+00 -1.764e+00 1.048e+00 -2.000e-02 -7.091e-03 2.440e-04
108 1 1.766e+00 -5.292e+00 1.048e+00 -3.414e-03 2.939e-02 -1.674e-03
109 1 1.765e+00 5.304e+00 1.047e+00 -3.170e-03 -2.746e-02 -8.090e-04
110 1 -5.300e+00 -1.762e+00 1.050e+00 2.216e-02 -5.565e-03 1.535e-04
111 1 -1.769e+00 5.303e+00 1.048e+00 2.509e-03 -2.790e-02 -1.356e-03
112 1 -5.299e+00 1.773e+00 1.048e+00 2.125e-02 5.577e-03 -1.884e-03
113 1 5.297e+00 1.773e+00 1.048e+00 -2.221e-02 6.344e-03 -5.338e-04
114 1 -1.768e+00 -5.294e+00 1.047e+00 3.028e-03 2.811e-02 -4.516e-04
115 1 -1.987e-03 -5.271e+00 -7.243e-01 8.694e-04 7.105e-03 7.132e-03
116 1 5.274e+00 4.838e-03 -7.238e-01 2.267e-02 2.006e-04 3.674e-03
117 1 -5.276e+00 4.993e-03 -7.248e-01 -2.178e-02 -9.714e-05 2.379e-03
118 1 -1.509e-03 5.280e+00 -7.245e-01 1.625e-03 -6.324e-03 7.763e-03
119 1 -5.277e+00 4.976e-03 2.819e+00 -2.390e-02 -1.637e-04 -4.129e-03
120 1 -1.884e-03 5.282e+00 2.820e+00 -3.625e-04 -6.698e-03 -8.783e-03
121 1 -1.915e-04 -5.271e+00 2.822e+00 -2.385e-04 5.220e-03 -8.084e-03
122 1 5.275e+00 5.298e-03 2.820e+00 2.469e-02 -1.887e-03 -4.952e-03
123 1 -1.793e+00 1.799e+00 4.601e+00 -1.622e-02 -2.662e-02 9.375e-03
124 1 1.789e+00 -1.785e+00 4.600e+00 1.643e-02 2.795e-02 9.881e-03
125 1 1.792e+00 1.799e+00 4.601e+00 1.552e-02 -2.607e-02 1.005e-02
126 1 -1.794e+00 -1.787e+00 4.599e+00 -1.654e-02 2.701e-02 1.083e-02
127 1 3.519e+00 -3.514e+00 1.046e+00 9.376e-02 -9.025e-02 -7.475e-04
128 1 -3.520e+00 3.524e+00 1.048e+00 -9.528e-02 9.053e-02 -8.542e-04
129 1 3.518e+00 3.526e+00 1.049e+00 9.231e-02 8.973e-02 -1.034e-03
130 1 -3.524e+00 -3.515e+00 1.047e+00 -9.354e-02 -9.300e-02 -6.134e-04
131 1 -4.971e-04 4.537e-03 4.540e+00 -4.621e-04 -1.634e-03 5.693e-02
132 1 -3.561e+00 1.812e+00 2.811e+00 1.002e-03 -4.161e-02 4.276e-02
133 1 -1.808e+00 3.568e+00 2.813e+00 1.792e-02 -9.372e-03 2.669e-02
134 1 -3.564e+00 -1.803e+00 2.813e+00 1.063e-03 4.620e-02 4.402e-02
135 1 1.808e+00 3.567e+00 2.812e+00 -1.740e-02 -1.169e-02 2.670e-02
136 1 1.808e+00 -3.557e+00 2.814e+00 -1.540e-02 1.117e-02 2.815e-02
137 1 3.562e+00 -1.802e+00 2.813e+00 1.178e-04 4.344e-02 4.151e-02
138 1 -1.810e+00 -3.556e+00 2.813e+00 1.311e-02 1.090e-02 2.778e-02
139 1 3.561e+00 1.814e+00 2.812e+00 -5.565e-04 -4.345e-02 4.241e-02
140 1 1.766e+00 6.212e-03 -4.223e+00 3.233e-03 1.506e-03 -2.865e-02
141 1 -2.400e-03 -1.762e+00 -4.223e+00 7.637e-04 -5.228e-03 -7.633e-03
142 1 -7.174e-06 1.768e+00 -4.223e+00 -2.057e-03 7.217e-03 -6.302e-03
143 1 -1.767e+00 5.479e-03 -4.222e+00 -2.712e-03 1.273e-03 -3.008e-02
144 1 3.614e+00 4.077e-03 -2.566e+00 -9.169e-02 1.404e-04 8.993e-02
145 1 -2.010e-03 -3.610e+00 -2.564e+00 5.845e-04 2.354e-03 -9.182e-04
146 1 -3.097e-04 3.619e+00 -2.563e+00 -8.035e-04 1.708e-03 -1.059e-03
147 1 -3.614e+00 5.562e-03 -2.563e+00 9.324e-02 2.822e-04 9.131e-02
148 1 -2.020e-03 8.971e-03 2.103e+00 -2.235e-03 -1.053e+00 -1.056e+00
149 1 2.270e-03 6.694e-04 1.204e-03 -1.001e-03 1.055e+00 1.044e+00
150 1 1.807e+00 -3.558e+00 -7.170e-01 -1.585e-02 1.111e-02 -2.927e-02
151 1 3.560e+00 -1.805e+00 -7.162e-01 5.173e-04 4.274e-02 -4.542e-02
152 1 -1.808e+00 -3.558e+00 -7.157e-01 1.654e-02 1.239e-02 -2.935e-02
153 1 3.561e+00 1.811e+00 -7.146e-01 3.602e-04 -4.366e-02 -4.410e-02
154 1 -3.563e+00 1.811e+00 -7.155e-01 -2.673e-03 -4.176e-02 -4.273e-02
155 1 -1.808e+00 3.565e+00 -7.157e-01 1.494e-02 -1.052e-02 -2.883e-02
156 1 -3.562e+00 -1.804e+00 -7.136e-01 2.534e-04 4.456e-02 -4.418e-02
157 1 1.805e+00 3.567e+00 -7.138e-01 -1.575e-02 -1.024e-02 -2.758e-02
158 1 -1.262e-03 -2.030e+00 -8.648e-01 1.586e-03 1.232e-01 -1.188e-01
159 1 2.031e+00 7.952e-03 -8.647e-01 -3.583e-01 1.600e-05 2.372e-01
160 1 -2.033e+00 5.607e-03 -8.629e-01 3.581e-01 -1.442e-04 2.376e-01
161 1 -1.436e-03 2.035e+00 -8.637e-01 4.401e-04 -1.169e-01 -1.235e-01
162 1 -2.036e+00 5.699e-03 2.960e+00 3.605e-01 3.295e-04 -2.425e-01
163 1 8.279e-04 2.042e+00 2.962e+00 -2.473e-04 -1.243e-01 1.170e-01
164 1 -2.376e-03 -2.026e+00 2.959e+00 -1.161e-03 1.190e-01 1.187e-01
165 1 2.030e+00 3.237e-03 2.961e+00 -3.580e-01 4.816e-04 -2.389e-01
166 1 -2.309e-04 3.556e+00 1.048e+00 -1.594e-04 -5.883e-02 6.647e-04
167 1 -3.550e+00 6.165e-03 1.049e+00 -2.611e-05 1.249e-03 -3.560e-05
168 1 3.548e+00 4.000e-03 1.048e+00 -1.051e-03 1.735e-03 1.449e-03
169 1 -8.795e-04 -3.546e+00 1.048e+00 1.176e-04 5.969e-02 -1.890e-03
170 1 1.791e+00 -1.788e+00 -2.504e+00 1.505e-02 2.923e-02 -9.954e-03
171 1 -1.793e+00 -1.788e+00 -2.505e+00 -1.554e-02 2.809e-02 -1.196e-02
172 1 1.790e+00 1.795e+00 -2.503e+00 1.633e-02 -2.894e-02 -1.308e-02
173 1 -1.791e+00 1.796e+00 -2.504e+00 -1.443e-02 -2.774e-02 -1.080e-02
174 1 -1.083e-03 3.419e-03 -2.443e+00 9.365e-05 1.255e-03 -6.213e-02
175 1 1.673e+00 -1.670e+00 1.051e+00 3.591e-01 -2.379e-01 -3.536e-03
176 1 -1.674e+00 1.680e+00 1.050e+00 -3.583e-01 2.410e-01 -3.229e-04
177 1 1.670e+00 1.678e+00 1.049e+00 3.599e-01 2.378e-01 -2.092e-03
178 1 -1.677e+00 -1.670e+00 1.050e+00 -3.587e-01 -2.384e-01 -2.329e-03
ITEM: TIMESTEP
0
ITEM: NUMBER OF ATOMS
89
ITEM: BOX BOUNDS xy xz yz pp pp pp
                     0.00000000000000e+00 1.06200000000000e+01 0.00000000000000e+00
0.00000000000000e+00	1.06200000000000e+01	0.00000000000000e+00
0.00000000000000e+00	1.06200000000000e+01	0.00000000000000e+00
ITEM: ATOMS id type x y z DisplacementX DisplacementY DisplacementZ
179 1 -1.134e-03 3.947e-03 -5.984e+00 4.272e-04 2.749e-04 -6.978e-03
180 1 3.539e+00 -3.537e+00 -2.490e+00 -3.173e-03 1.150e-03 -2.729e-03
181 1 -3.541e+00 3.544e+00 -2.490e+00 9.401e-04 1.227e-03 -2.364e-03
182 1 -3.542e+00 -3.536e+00 -2.492e+00 2.529e-03 -1.880e-04 -3.490e-03
183 1 3.541e+00 3.547e+00 -2.490e+00 -1.925e-03 3.682e-04 -3.519e-03
184 1 1.772e+00 -3.535e+00 -4.257e+00 -1.435e-02 -3.438e-04 6.865e-03
185 1 3.537e+00 -1.770e+00 -4.258e+00 -3.772e-03 -7.879e-04 4.751e-03
186 1 -1.779e+00 -3.534e+00 -4.256e+00 1.225e-02 8.166e-04 9.039e-03
187 1 3.537e+00 1.778e+00 -4.257e+00 -3.892e-03 1.458e-03 4.272e-03
188 1 -3.541e+00 1.781e+00 -4.256e+00 2.610e-03 1.650e-03 4.345e-03
189 1 -1.776e+00 3.544e+00 -4.257e+00 1.140e-02 2.135e-03 7.135e-03
190 1 -3.542e+00 -1.771e+00 -4.256e+00 3.320e-03 -2.060e-03 3.281e-03
191 1 1.775e+00 3.544e+00 -4.257e+00 -1.234e-02 -1.390e-03 6.909e-03
192 1 2.736e-06 3.620e+00 4.664e+00 9.120e-04 -9.531e-02 -9.347e-02
193 1 -3.615e+00 5.726e-03 4.660e+00 3.225e-03 -4.246e-04 -4.406e-04
194 1 3.612e+00 5.304e-03 4.661e+00 -1.622e-04 -9.175e-04 7.861e-04
195 1 -1.033e-03 -3.609e+00 4.661e+00 -1.792e-05 9.205e-02 -9.214e-02
196 1 5.295e+00 -1.762e+00 1.046e+00 -2.701e-02 3.829e-03 -6.594e-04
197 1 1.767e+00 -5.293e+00 1.047e+00 4.935e-03 2.234e-02 -1.309e-03
198 1 1.765e+00 5.304e+00 1.047e+00 1.961e-03 -2.362e-02 -1.881e-03
199 1 -5.300e+00 -1.762e+00 1.047e+00 2.762e-02 3.753e-03 -5.149e-04
200 1 -1.768e+00 5.304e+00 1.049e+00 -4.878e-03 -1.996e-02 6.431e-04
201 1 -5.301e+00 1.773e+00 1.048e+00 2.770e-02 -2.461e-03 -5.725e-05
202 1 5.295e+00 1.773e+00 1.047e+00 -2.804e-02 -3.946e-03 -1.004e-03
203 1 -1.768e+00 -5.291e+00 1.046e+00 -4.126e-03 2.240e-02 -2.651e-03
204 1 8.855e-04 -5.271e+00 -7.238e-01 -1.001e-03 -2.190e-02 3.664e-03
205 1 5.273e+00 4.366e-03 -7.233e-01 -4.076e-03 2.541e-04 6.943e-03
206 1 -5.279e+00 3.732e-03 -7.233e-01 5.468e-03 2.196e-03 7.217e-03
207 1 -9.134e-04 5.281e+00 -7.237e-01 -8.556e-04 2.006e-02 3.789e-03
208 1 -5.278e+00 4.996e-03 2.818e+00 7.548e-03 4.870e-04 -7.151e-03
209 1 -2.171e-03 5.281e+00 2.819e+00 5.527e-04 2.117e-02 -6.123e-03
210 1 -6.167e-04 -5.272e+00 2.820e+00 -1.987e-03 -2.241e-02 -3.185e-03
211 1 5.273e+00 6.149e-03 2.820e+00 -4.374e-03 1.201e-03 -8.429e-03
212 1 -1.794e+00 1.798e+00 4.602e+00 2.819e-02 1.506e-02 8.903e-03
213 1 1.790e+00 -1.786e+00 4.601e+00 -2.974e-02 -1.659e-02 9.621e-03
214 1 1.790e+00 1.796e+00 4.600e+00 -2.873e-02 1.407e-02 8.331e-03
215 1 -1.794e+00 -1.787e+00 4.600e+00 2.791e-02 -1.552e-02 8.348e-03
216 1 3.519e+00 -3.515e+00 1.048e+00 9.237e-02 -9.474e-02 1.138e-03
217 1 -3.524e+00 3.526e+00 1.046e+00 -9.289e-02 9.417e-02 2.311e-03
218 1 3.520e+00 3.525e+00 1.048e+00 9.088e-02 9.152e-02 -3.129e-04
219 1 -3.521e+00 -3.514e+00 1.047e+00 -9.293e-02 -9.401e-02 -1.374e-03
220 1 -7.423e-04 6.334e-03 4.541e+00 2.928e-04 5.846e-04 5.570e-02
221 1 -3.565e+00 1.814e+00 2.813e+00 8.736e-03 -1.583e-02 2.767e-02
222 1 -1.809e+00 3.568e+00 2.811e+00 4.432e-02 2.479e-04 4.386e-02
223 1 -3.564e+00 -1.804e+00 2.813e+00 1.109e-02 1.688e-02 2.471e-02
224 1 1.808e+00 3.569e+00 2.812e+00 -4.410e-02 -1.246e-03 4.329e-02
225 1 1.806e+00 -3.560e+00 2.811e+00 -4.450e-02 1.575e-03 4.045e-02
226 1 3.561e+00 -1.802e+00 2.814e+00 -1.057e-02 1.737e-02 2.688e-02
227 1 -1.810e+00 -3.557e+00 2.814e+00 4.352e-02 -1.869e-04 4.356e-02
228 1 3.561e+00 1.815e+00 2.813e+00 -8.761e-03 -1.594e-02 2.648e-02
229 1 1.763e+00 4.182e-03 -4.223e+00 8.143e-03 7.637e-04 -7.778e-03
230 1 2.875e-04 -1.759e+00 -4.223e+00 -4.832e-05 -1.730e-03 -3.014e-02
231 1 -2.183e-03 1.770e+00 -4.220e+00 -1.667e-03 5.844e-03 -2.919e-02
232 1 -1.766e+00 3.117e-03 -4.221e+00 -7.433e-03 2.381e-03 -9.230e-03
233 1 3.612e+00 4.822e-03 -2.563e+00 -2.198e-03 -1.869e-03 -2.011e-03
234 1 -1.760e-03 -3.611e+00 -2.566e+00 -4.655e-04 9.506e-02 9.280e-02
235 1 -3.848e-04 3.617e+00 -2.564e+00 -1.355e-03 -9.132e-02 9.009e-02
236 1 -3.615e+00 4.531e-03 -2.564e+00 -1.628e-03 -1.327e-03 -3.731e-03
237 1 -2.837e-03 9.658e-03 2.103e+00 1.049e+00 -4.691e-03 -1.052e+00
238 1 3.388e-04 1.435e-05 -3.619e-04 -1.056e+00 5.646e-03 1.040e+00
239 1 1.806e+00 -3.558e+00 -7.161e-01 -4.705e-02 -2.241e-04 -4.432e-02
240 1 3.561e+00 -1.802e+00 -7.159e-01 -9.695e-03 1.788e-02 -2.861e-02
241 1 -1.808e+00 -3.558e+00 -7.161e-01 4.365e-02 1.211e-03 -4.410e-02
242 1 3.563e+00 1.813e+00 -7.171e-01 -1.007e-02 -1.753e-02 -2.841e-02
243 1 -3.562e+00 1.811e+00 -7.164e-01 9.826e-03 -1.630e-02 -2.858e-02
244 1 -1.808e+00 3.565e+00 -7.154e-01 4.166e-02 3.342e-04 -4.349e-02
245 1 -3.564e+00 -1.804e+00 -7.173e-01 9.183e-03 1.539e-02 -2.742e-02
246 1 1.805e+00 3.566e+00 -7.163e-01 -4.191e-02 2.061e-03 -4.396e-02
247 1 -3.248e-03 -2.030e+00 -8.647e-01 -1.459e-03 3.618e-01 2.375e-01
248 1 2.032e+00 6.350e-03 -8.659e-01 -1.208e-01 3.828e-04 -1.178e-01
249 1 -2.032e+00 4.814e-03 -8.630e-01 1.188e-01 1.580e-03 -1.261e-01
250 1 9.255e-05 2.034e+00 -8.622e-01 -1.942e-04 -3.546e-01 2.363e-01
251 1 -2.035e+00 2.498e-03 2.961e+00 1.223e-01 7.560e-04 1.162e-01
252 1 -2.213e-03 2.041e+00 2.963e+00 -7.887e-04 -3.627e-01 -2.414e-01
253 1 -2.930e-03 -2.024e+00 2.962e+00 -3.443e-04 3.596e-01 -2.394e-01
254 1 2.033e+00 3.291e-03 2.959e+00 -1.188e-01 3.473e-04 1.209e-01
255 1 -1.075e-03 3.555e+00 1.047e+00 -8.090e-04 1.037e-03 3.224e-04
256 1 -3.551e+00 5.392e-03 1.048e+00 6.053e-02 -4.095e-04 1.188e-03
257 1 3.549e+00 5.126e-03 1.048e+00 -6.005e-02 8.072e-04 -7.556e-04
258 1 7.306e-05 -3.547e+00 1.047e+00 -2.105e-03 9.161e-04 -1.226e-03
259 1 1.791e+00 -1.787e+00 -2.505e+00 -2.862e-02 -1.710e-02 -1.247e-02
260 1 -1.794e+00 -1.786e+00 -2.503e+00 2.658e-02 -1.561e-02 -1.413e-02
261 1 1.791e+00 1.795e+00 -2.506e+00 -2.830e-02 1.598e-02 -9.545e-03
262 1 -1.795e+00 1.796e+00 -2.502e+00 2.824e-02 1.953e-02 -1.277e-02
263 1 -2.208e-03 2.501e-03 -2.442e+00 6.074e-04 5.566e-04 -6.118e-02
264 1 1.673e+00 -1.668e+00 1.048e+00 2.377e-01 -3.570e-01 3.470e-04
265 1 -1.675e+00 1.679e+00 1.049e+00 -2.403e-01 3.617e-01 -5.589e-04
266 1 1.671e+00 1.679e+00 1.050e+00 2.382e-01 3.604e-01 -4.328e-03
267 1 -1.675e+00 -1.670e+00 1.049e+00 -2.381e-01 -3.583e-01 -1.216e-03
ITEM: TIMESTEP
0
ITEM: NUMBER OF ATOMS
89
ITEM: BOX BOUNDS xy xz yz pp pp pp
                     0.00000000000000e+00 1.06200000000000e+01 0.00000000000000e+00
0.00000000000000e+00	1.06200000000000e+01	0.00000000000000e+00
0.00000000000000e+00	1.06200000000000e+01	0.00000000000000e+00
ITEM: ATOMS id type x y z DisplacementX DisplacementY DisplacementZ
268 1 -7.252e-04 3.571e-03 -5.984e+00 6.951e-04 9.668e-05 -6.903e-03
269 1 3.540e+00 -3.535e+00 -2.491e+00 -1.928e-03 8.887e-04 -2.669e-03
270 1 -3.542e+00 3.544e+00 -2.491e+00 1.576e-03 1.618e-03 -3.275e-03
271 1 -3.543e+00 -3.536e+00 -2.491e+00 3.826e-03 1.804e-04 -1.945e-03
272 1 3.540e+00 3.546e+00 -2.490e+00 -1.653e-03 -7.202e-04 -2.898e-03
273 1 1.774e+00 -3.536e+00 -4.257e+00 -1.228e-02 3.668e-04 5.354e-03
274 1 3.538e+00 -1.771e+00 -4.258e+00 -3.557e-03 -8.815e-04 4.143e-03
275 1 -1.778e+00 -3.534e+00 -4.259e+00 1.468e-02 7.429e-04 5.535e-03
276 1 3.537e+00 1.781e+00 -4.258e+00 -4.350e-03 2.217e-03 4.039e-03
277 1 -3.540e+00 1.780e+00 -4.256e+00 2.481e-03 8.577e-04 1.966e-03
278 1 -1.776e+00 3.544e+00 -4.256e+00 1.275e-02 -3.965e-04 5.059e-03
279 1 -3.541e+00 -1.770e+00 -4.256e+00 4.235e-03 -6.908e-04 4.051e-03
280 1 1.774e+00 3.545e+00 -4.257e+00 -1.247e-02 2.152e-03 4.538e-03
281 1 -1.321e-03 3.622e+00 4.662e+00 -6.839e-04 -9.450e-02 -9.225e-02
282 1 -3.615e+00 6.352e-03 4.661e+00 3.748e-03 -2.224e-04 1.685e-03
283 1 3.612e+00 5.771e-03 4.662e+00 -2.820e-03 -2.907e-05 3.777e-04
284 1 -1.124e-03 -3.609e+00 4.659e+00 9.347e-04 9.318e-02 -9.344e-02
285 1 5.298e+00 -1.762e+00 1.051e+00 -2.942e-02 1.664e-03 2.733e-05
286 1 1.768e+00 -5.292e+00 1.049e+00 4.579e-03 2.155e-02 -1.193e-04
287 1 1.767e+00 5.302e+00 1.047e+00 4.127e-03 -2.376e-02 3.368e-04
288 1 -5.299e+00 -1.763e+00 1.047e+00 2.729e-02 2.533e-03 3.706e-04
289 1 -1.769e+00 5.302e+00 1.046e+00 -3.913e-03 -2.050e-02 2.240e-03
290 1 -5.302e+00 1.772e+00 1.048e+00 2.956e-02 -2.839e-03 -1.266e-04
291 1 5.298e+00 1.771e+00 1.047e+00 -2.845e-02 -3.440e-03 -1.047e-03
292 1 -1.767e+00 -5.294e+00 1.047e+00 -2.835e-03 2.321e-02 -8.356e-04
293 1 -2.722e-03 -5.269e+00 -7.246e-01 7.324e-04 -2.207e-02 3.618e-03
294 1 5.274e+00 7.162e-03 -7.237e-01 -7.139e-03 1.875e-03 4.921e-03
295 1 -5.277e+00 5.305e-03 -7.246e-01 4.254e-03 2.262e-04 6.061e-03
296 1 -3.530e-03 5.282e+00 -7.239e-01 1.068e-03 2.266e-02 3.671e-03
297 1 -5.278e+00 4.531e-03 2.820e+00 6.661e-03 5.018e-04 -6.964e-03
298 1 -6.363e-04 5.283e+00 2.820e+00 -9.580e-04 2.380e-02 -3.689e-03
299 1 -5.018e-04 -5.272e+00 2.818e+00 2.464e-05 -2.199e-02 -4.960e-03
300 1 5.275e+00 4.877e-03 2.820e+00 -8.498e-03 7.238e-04 -7.570e-03
301 1 -1.794e+00 1.797e+00 4.602e+00 2.743e-02 1.442e-02 8.926e-03
302 1 1.793e+00 -1.786e+00 4.600e+00 -2.821e-02 -1.550e-02 9.697e-03
303 1 1.793e+00 1.797e+00 4.600e+00 -2.654e-02 1.689e-02 8.408e-03
304 1 -1.795e+00 -1.787e+00 4.600e+00 2.777e-02 -1.606e-02 7.931e-03
305 1 3.520e+00 -3.516e+00 1.048e+00 9.135e-02 -9.455e-02 -1.094e-03
306 1 -3.522e+00 3.525e+00 1.045e+00 -9.122e-02 9.197e-02 -1.628e-03
307 1 3.520e+00 3.524e+00 1.046e+00 9.192e-02 9.496e-02 7.854e-05
308 1 -3.524e+00 -3.516e+00 1.048e+00 -9.244e-02 -9.398e-02 -6.798e-04
309 1 -6.164e-04 6.836e-03 4.541e+00 1.641e-03 -1.277e-03 5.888e-02
310 1 -3.564e+00 1.813e+00 2.811e+00 1.056e-02 -1.771e-02 2.502e-02
311 1 -1.809e+00 3.568e+00 2.810e+00 4.488e-02 -1.040e-03 4.395e-02
312 1 -3.564e+00 -1.805e+00 2.813e+00 1.331e-02 1.774e-02 2.666e-02
313 1 1.808e+00 3.570e+00 2.811e+00 -4.428e-02 1.189e-03 4.357e-02
314 1 1.806e+00 -3.557e+00 2.815e+00 -4.289e-02 1.138e-04 4.306e-02
315 1 3.562e+00 -1.802e+00 2.811e+00 -1.136e-02 1.470e-02 2.822e-02
316 1 -1.808e+00 -3.557e+00 2.811e+00 4.317e-02 8.638e-04 4.233e-02
317 1 3.562e+00 1.811e+00 2.813e+00 -1.161e-02 -1.606e-02 2.690e-02
318 1 1.765e+00 5.279e-03 -4.222e+00 4.778e-03 1.067e-03 -7.440e-03
319 1 -1.056e-03 -1.761e+00 -4.223e+00 1.702e-03 -2.308e-03 -2.937e-02
320 1 -1.890e-04 1.770e+00 -4.221e+00 8.867e-04 4.054e-03 -3.070e-02
321 1 -1.766e+00 6.033e-03 -4.220e+00 -7.255e-03 1.417e-04 -8.665e-03
322 1 3.612e+00 4.799e-03 -2.565e+00 -1.176e-03 -4.763e-04 -1.991e-03
323 1 -1.603e-03 -3.612e+00 -2.564e+00 -6.381e-05 9.531e-02 9.145e-02
324 1 -4.147e-04 3.616e+00 -2.564e+00 -5.087e-04 -9.196e-02 8.842e-02
325 1 -3.613e+00 4.820e-03 -2.565e+00 1.002e-03 1.137e-04 -2.330e-03
326 1 -2.827e-03 7.365e-03 2.104e+00 -1.051e+00 -3.694e-03 -1.056e+00
327 1 -3.606e-04 1.096e-03 1.095e-03 1.051e+00 4.530e-03 1.047e+00
328 1 1.807e+00 -3.560e+00 -7.164e-01 -4.270e-02 -1.262e-04 -4.247e-02
329 1 3.562e+00 -1.804e+00 -7.158e-01 -9.217e-03 1.656e-02 -2.798e-02
330 1 -1.810e+00 -3.557e+00 -7.156e-01 4.441e-02 8.426e-04 -4.417e-02
331 1 3.562e+00 1.812e+00 -7.157e-01 -1.041e-02 -1.840e-02 -2.746e-02
332 1 -3.564e+00 1.813e+00 -7.164e-01 9.142e-03 -1.669e-02 -2.589e-02
333 1 -1.807e+00 3.567e+00 -7.142e-01 3.973e-02 9.959e-04 -4.265e-02
334 1 -3.563e+00 -1.801e+00 -7.163e-01 1.057e-02 1.750e-02 -2.798e-02
335 1 1.806e+00 3.567e+00 -7.153e-01 -4.294e-02 2.214e-03 -4.436e-02
336 1 -1.397e-03 -2.030e+00 -8.661e-01 -1.231e-03 3.623e-01 2.384e-01
337 1 2.033e+00 5.651e-03 -8.633e-01 -1.219e-01 1.697e-03 -1.236e-01
338 1 -2.032e+00 3.857e-03 -8.646e-01 1.190e-01 3.668e-04 -1.211e-01
339 1 -4.498e-04 2.032e+00 -8.638e-01 -4.557e-04 -3.535e-01 2.370e-01
340 1 -2.037e+00 5.420e-03 2.961e+00 1.225e-01 -1.828e-03 1.188e-01
341 1 -1.238e-03 2.042e+00 2.962e+00 -1.192e-04 -3.632e-01 -2.411e-01
342 1 -2.093e-03 -2.026e+00 2.961e+00 3.444e-04 3.585e-01 -2.410e-01
343 1 2.034e+00 4.186e-03 2.963e+00 -1.208e-01 4.951e-04 1.190e-01
344 1 -1.206e-04 3.555e+00 1.050e+00 -1.872e-03 4.294e-04 -8.428e-04
345 1 -3.550e+00 3.986e-03 1.049e+00 5.885e-02 6.460e-04 4.881e-04
346 1 3.548e+00 5.126e-03 1.049e+00 -5.957e-02 9.089e-04 -3.347e-03
347 1 -8.201e-04 -3.546e+00 1.048e+00 -1.587e-03 1.241e-03 -2.398e-03
348 1 1.791e+00 -1.788e+00 -2.504e+00 -2.778e-02 -1.596e-02 -7.964e-03
349 1 -1.792e+00 -1.788e+00 -2.504e+00 2.670e-02 -1.652e-02 -9.476e-03
350 1 1.789e+00 1.796e+00 -2.504e+00 -2.743e-02 1.664e-02 -1.039e-02
351 1 -1.793e+00 1.796e+00 -2.504e+00 2.769e-02 1.702e-02 -1.042e-02
352 1 -1.620e-03 2.681e-03 -2.443e+00 8.324e-04 3.049e-03 -6.331e-02
353 1 1.674e+00 -1.670e+00 1.051e+00 2.372e-01 -3.593e-01 -6.464e-04
354 1 -1.674e+00 1.679e+00 1.047e+00 -2.391e-01 3.603e-01 -4.199e-03
355 1 1.671e+00 1.681e+00 1.049e+00 2.376e-01 3.593e-01 -3.476e-03
356 1 -1.675e+00 -1.669e+00 1.048e+00 -2.375e-01 -3.598e-01 -2.182e-03
ITEM: TIMESTEP
0
ITEM: NUMBER OF ATOMS
89
ITEM: BOX BOUNDS xy xz yz pp pp pp
                     0.00000000000000e+00 1.06200000000000e+01 0.00000000000000e+00
0.00000000000000e+00	1.06200000000000e+01	0.00000000000000e+00
0.00000000000000e+00	1.06200000000000e+01	0.00000000000000e+00
ITEM: ATOMS id type x y z DisplacementX DisplacementY DisplacementZ
357 1 -1.859e-03 3.202e-03 -5.984e+00 1.534e-02 1.419e-04 -4.237e-03
358 1 3.540e+00 -3.535e+00 -2.492e+00 6.222e-03 1.658e-03 3.709e-03
359 1 -3.543e+00 3.546e+00 -2.490e+00 2.067e-02 2.295e-02 -2.665e-02
360 1 -3.543e+00 -3.538e+00 -2.492e+00 2.015e-02 -2.011e-02 -2.469e-02
361 1 3.538e+00 3.546e+00 -2.492e+00 5.878e-03 -1.081e-03 6.171e-03
362 1 1.773e+00 -3.536e+00 -4.258e+00 6.494e-03 -2.447e-03 8.316e-03
363 1 3.536e+00 -1.770e+00 -4.258e+00 6.888e-03 1.207e-04 8.347e-03
364 1 -1.776e+00 -3.533e+00 -4.256e+00 1.982e-02 1.865e-02 2.757e-02
365 1 3.537e+00 1.780e+00 -4.258e+00 8.819e-03 -3.063e-04 8.558e-03
366 1 -3.541e+00 1.779e+00 -4.255e+00 1.788e-02 3.274e-02 -1.581e-02
367 1 -1.776e+00 3.544e+00 -4.256e+00 1.944e-02 -1.851e-02 2.529e-02
368 1 -3.543e+00 -1.772e+00 -4.256e+00 1.752e-02 -3.354e-02 -1.592e-02
369 1 1.774e+00 3.543e+00 -4.256e+00 6.657e-03 3.201e-03 6.325e-03
370 1 4.199e-05 3.620e+00 4.661e+00 5.974e-03 -7.531e-02 -7.367e-02
371 1 -3.616e+00 5.519e-03 4.660e+00 8.782e-02 -1.520e-04 -9.374e-02
372 1 3.613e+00 6.140e-03 4.660e+00 -5.413e-02 2.178e-03 -5.162e-02
373 1 -1.945e-03 -3.607e+00 4.661e+00 6.404e-03 7.430e-02 -7.159e-02
374 1 5.298e+00 -1.762e+00 1.048e+00 -1.662e-02 8.700e-03 1.419e-03
375 1 1.765e+00 -5.293e+00 1.048e+00 1.266e-02 -3.043e-03 1.914e-02
376 1 1.764e+00 5.302e+00 1.046e+00 1.094e-02 2.371e-03 1.888e-02
377 1 -5.300e+00 -1.763e+00 1.048e+00 -1.261e-02 -2.625e-02 3.554e-02
378 1 -1.769e+00 5.303e+00 1.048e+00 1.091e-02 -5.349e-04 1.128e-02
379 1 -5.300e+00 1.773e+00 1.048e+00 -1.061e-02 2.379e-02 3.422e-02
380 1 5.298e+00 1.774e+00 1.049e+00 -1.508e-02 -7.019e-03 1.804e-03
381 1 -1.769e+00 -5.293e+00 1.048e+00 1.065e-02 7.244e-04 1.135e-02
382 1 -1.493e-03 -5.271e+00 -7.234e-01 1.677e-02 5.315e-05 1.485e-02
383 1 5.274e+00 5.329e-03 -7.236e-01 -7.085e-04 -1.661e-03 1.588e-02
384 1 -5.279e+00 5.152e-03 -7.235e-01 2.875e-02 1.424e-03 1.343e-02
385 1 -9.060e-04 5.280e+00 -7.255e-01 1.316e-02 -3.511e-04 1.635e-02
386 1 -5.277e+00 5.775e-03 2.820e+00 -9.285e-02 -2.414e-03 8.283e-02
387 1 -2.786e-03 5.280e+00 2.819e+00 6.557e-03 2.362e-02 1.136e-02
388 1 -1.148e-03 -5.272e+00 2.821e+00 4.339e-03 -2.030e-02 9.562e-03
389 1 5.276e+00 4.002e-03 2.819e+00 6.020e-03 1.622e-03 -6.892e-03
390 1 -1.794e+00 1.797e+00 4.600e+00 3.461e-02 -2.495e-02 -1.191e-02
391 1 1.791e+00 -1.784e+00 4.602e+00 -1.221e-02 1.310e-02 -8.091e-03
392 1 1.790e+00 1.798e+00 4.602e+00 -1.467e-02 -1.379e-02 -8.210e-03
393 1 -1.793e+00 -1.788e+00 4.600e+00 3.556e-02 2.266e-02 -1.087e-02
394 1 3.518e+00 -3.516e+00 1.049e+00 2.776e-02 -1.833e-02 1.823e-02
395 1 -3.523e+00 3.525e+00 1.046e+00 1.179e-03 4.196e-02 5.202e-02
396 1 3.518e+00 3.527e+00 1.045e+00 2.617e-02 1.973e-02 1.686e-02
397 1 -3.522e+00 -3.514e+00 1.047e+00 7.948e-04 -4.057e-02 5.121e-02
398 1 -2.605e-03 6.652e-03 4.541e+00 1.738e-02 -5.772e-04 2.537e-02
399 1 -3.564e+00 1.812e+00 2.812e+00 4.139e-02 -2.541e-04 3.900e-02
400 1 -1.809e+00 3.571e+00 2.813e+00 5.231e-02 -4.028e-02 -4.894e-04
401 1 -3.562e+00 -1.803e+00 2.813e+00 4.365e-02 8.124e-04 4.142e-02
402 1 1.808e+00 3.568e+00 2.811e+00 -2.720e-02 -2.208e-02 2.042e-02
403 1 1.805e+00 -3.555e+00 2.813e+00 -2.548e-02 2.043e-02 1.882e-02
404 1 3.561e+00 -1.802e+00 2.812e+00 -1.389e-02 3.281e-02 1.861e-02
405 1 -1.808e+00 -3.559e+00 2.812e+00 5.183e-02 3.991e-02 -2.616e-03
406 1 3.560e+00 1.814e+00 2.812e+00 -1.475e-02 -3.184e-02 1.780e-02
407 1 1.765e+00 4.015e-03 -4.221e+00 8.965e-02 -1.218e-03 -1.015e-01
408 1 -4.834e-04 -1.762e+00 -4.223e+00 8.031e-03 -4.196e-02 -5.073e-02
409 1 2.150e-04 1.768e+00 -4.220e+00 8.077e-03 4.254e-02 -5.069e-02
410 1 -1.766e+00 4.915e-03 -4.222e+00 9.060e-03 8.027e-04 -3.693e-02
411 1 3.614e+00 5.220e-03 -2.566e+00 -1.005e-01 -1.415e-03 8.953e-02