ITEM: TIMESTEP
0
ITEM: NUMBER OF ATOMS
89
ITEM: BOX BOUNDS xy xz yz pp pp pp
                     0.00000000000000e+00 1.06200000000000e+01 0.00000000000000e+00
0.00000000000000e+00	1.06200000000000e+01	0.00000000000000e+00
0.00000000000000e+00	1.06200000000000e+01	0.00000000000000e+00
ITEM: ATOMS id type x y z DisplacementX DisplacementY DisplacementZ
1 1 -1.224e-03 3.528e-03 -5.981e+00 -1.417e-02 1.046e-03 -2.576e-03
2 1 3.540e+00 -3.537e+00 -2.493e+00 -2.217e-02 -2.061e-02 -2.597e-02
3 1 -3.542e+00 3.544e+00 -2.492e+00 -8.251e-03 -6.884e-04 5.161e-03
4 1 -3.542e+00 -3.537e+00 -2.490e+00 -7.307e-03 1.089e-03 6.881e-03
5 1 3.539e+00 3.545e+00 -2.491e+00 -2.135e-02 2.045e-02 -2.787e-02
6 1 1.773e+00 -3.535e+00 -4.259e+00 -1.822e-02 1.950e-02 2.712e-02
7 1 3.538e+00 -1.772e+00 -4.257e+00 -1.994e-02 -3.253e-02 -1.506e-02
8 1 -1.776e+00 -3.535e+00 -4.258e+00 -5.807e-03 -8.244e-04 7.745e-03
9 1 3.538e+00 1.779e+00 -4.258e+00 -1.822e-02 3.333e-02 -1.356e-02
10 1 -3.540e+00 1.780e+00 -4.256e+00 -9.459e-03 -5.356e-04 8.403e-03
11 1 -1.776e+00 3.545e+00 -4.254e+00 -8.453e-03 1.266e-03 5.095e-03
12 1 -3.539e+00 -1.770e+00 -4.258e+00 -8.325e-03 -3.878e-04 7.388e-03
13 1 1.775e+00 3.543e+00 -4.256e+00 -1.841e-02 -1.997e-02 2.582e-02
14 1 -7.102e-04 3.621e+00 4.661e+00 -4.438e-03 -7.651e-02 -7.373e-02
15 1 -3.616e+00 6.587e-03 4.661e+00 5.488e-02 2.307e-05 -5.358e-02
16 1 3.613e+00 3.417e-03 4.660e+00 -8.615e-02 -1.984e-04 -9.530e-02
17 1 -2.011e-03 -3.608e+00 4.660e+00 -6.026e-03 7.550e-02 -7.206e-02
18 1 5.297e+00 -1.763e+00 1.047e+00 1.012e-02 -2.338e-02 3.345e-02
19 1 1.766e+00 -5.294e+00 1.047e+00 -1.203e-02 2.080e-04 9.424e-03
20 1 1.765e+00 5.304e+00 1.046e+00 -1.002e-02 -1.893e-04 1.099e-02
21 1 -5.300e+00 -1.762e+00 1.048e+00 1.553e-02 7.482e-03 3.626e-03
22 1 -1.768e+00 5.305e+00 1.049e+00 -1.236e-02 3.686e-03 2.133e-02
23 1 -5.301e+00 1.773e+00 1.047e+00 1.593e-02 -7.946e-03 4.214e-03
24 1 5.297e+00 1.775e+00 1.047e+00 9.711e-03 2.519e-02 3.351e-02
25 1 -1.769e+00 -5.292e+00 1.047e+00 -1.268e-02 -2.289e-03 1.938e-02
26 1 -2.578e-03 -5.271e+00 -7.239e-01 -1.581e-02 -3.965e-04 1.651e-02
27 1 5.274e+00 5.284e-03 -7.253e-01 -2.867e-02 1.225e-03 1.459e-02
28 1 -5.279e+00 6.956e-03 -7.242e-01 2.580e-03 2.054e-03 1.498e-02
29 1 -2.900e-03 5.282e+00 -7.234e-01 -1.651e-02 7.910e-04 1.277e-02
30 1 -5.277e+00 6.421e-03 2.820e+00 -7.040e-03 -4.837e-06 -4.754e-03
31 1 7.268e-04 5.282e+00 2.819e+00 -7.058e-03 2.182e-02 9.520e-03
32 1 -2.378e-03 -5.272e+00 2.821e+00 -6.166e-03 -2.189e-02 1.016e-02
33 1 5.274e+00 6.129e-03 2.819e+00 9.203e-02 -4.214e-04 8.522e-02
34 1 -1.793e+00 1.798e+00 4.599e+00 1.427e-02 -1.398e-02 -9.949e-03
35 1 1.793e+00 -1.785e+00 4.601e+00 -3.542e-02 2.434e-02 -1.086e-02
36 1 1.790e+00 1.797e+00 4.601e+00 -3.464e-02 -2.450e-02 -1.112e-02
37 1 -1.794e+00 -1.785e+00 4.601e+00 1.164e-02 1.255e-02 -6.953e-03
38 1 3.517e+00 -3.517e+00 1.048e+00 -3.312e-04 -4.103e-02 5.342e-02
39 1 -3.522e+00 3.525e+00 1.047e+00 -2.778e-02 1.921e-02 1.840e-02
40 1 3.520e+00 3.525e+00 1.048e+00 2.244e-04 4.156e-02 5.065e-02
41 1 -3.521e+00 -3.516e+00 1.047e+00 -2.784e-02 -1.832e-02 1.927e-02
42 1 -5.425e-04 5.778e-03 4.542e+00 -1.799e-02 7.595e-04 2.514e-02
43 1 -3.565e+00 1.812e+00 2.812e+00 1.362e-02 -3.140e-02 1.940e-02
44 1 -1.811e+00 3.569e+00 2.811e+00 2.540e-02 -2.118e-02 2.080e-02
45 1 -3.564e+00 -1.803e+00 2.812e+00 1.451e-02 3.394e-02 1.707e-02
46 1 1.809e+00 3.571e+00 2.813e+00 -5.125e-02 -4.018e-02 -1.366e-03
47 1 1.805e+00 -3.557e+00 2.813e+00 -5.093e-02 4.088e-02 -1.626e-03
48 1 3.563e+00 -1.803e+00 2.812e+00 -4.118e-02 1.262e-03 3.985e-02
49 1 -1.809e+00 -3.559e+00 2.811e+00 2.523e-02 2.232e-02 2.033e-02
50 1 3.560e+00 1.812e+00 2.812e+00 -4.285e-02 -2.971e-03 3.839e-02
51 1 1.763e+00 3.730e-03 -4.222e+00 -1.105e-02 2.252e-03 -3.789e-02
52 1 -5.240e-04 -1.762e+00 -4.220e+00 -8.345e-03 -4.341e-02 -4.956e-02
53 1 -7.450e-04 1.770e+00 -4.223e+00 -8.528e-03 4.480e-02 -5.088e-02
54 1 -1.766e+00 4.202e-03 -4.222e+00 -9.127e-02 2.589e-03 -1.019e-01
55 1 3.612e+00 4.669e-03 -2.564e+00 5.540e-02 7.111e-04 -1.817e-01
56 1 -1.173e-03 -3.609e+00 -2.565e+00 -8.846e-03 5.328e-02 4.843e-02
57 1 -5.865e-04 3.615e+00 -2.564e+00 -8.822e-03 -4.909e-02 4.682e-02
58 1 -3.616e+00 4.817e-03 -2.565e+00 1.025e-01 5.697e-04 8.926e-02
59 1 -3.405e-03 8.116e-03 2.103e+00 -1.566e-01 -4.758e-03 -7.788e-01
60 1 2.366e-05 -2.965e-03 2.360e-04 7.046e-01 5.910e-03 -7.057e-01
61 1 1.807e+00 -3.558e+00 -7.165e-01 -5.105e-02 1.169e-02 5.324e-03
62 1 3.560e+00 -1.803e+00 -7.164e-01 1.075e-01 -2.280e-01 5.909e-03
63 1 -1.809e+00 -3.558e+00 -7.162e-01 -4.782e-02 -5.018e-02 6.795e-03
64 1 3.562e+00 1.814e+00 -7.151e-01 1.067e-01 2.236e-01 5.798e-03
65 1 -3.563e+00 1.811e+00 -7.162e-01 4.839e-02 -4.058e-02 7.139e-03
66 1 -1.808e+00 3.567e+00 -7.159e-01 -4.871e-02 5.309e-02 5.708e-03
67 1 -3.563e+00 -1.803e+00 -7.157e-01 4.700e-02 4.200e-02 5.623e-03
68 1 1.804e+00 3.565e+00 -7.159e-01 -4.974e-02 -1.028e-02 6.471e-03
69 1 -5.996e-04 -2.030e+00 -8.651e-01 -1.552e-01 4.200e-03 1.553e-01
70 1 2.031e+00 6.675e-03 -8.658e-01 7.752e-01 -3.180e-03 1.515e-01
71 1 -2.031e+00 4.347e-03 -8.640e-01 2.966e-01 1.260e-03 1.564e-01
72 1 -2.020e-03 2.034e+00 -8.639e-01 -1.561e-01 5.818e-03 1.546e-01
73 1 -2.034e+00 4.984e-03 2.962e+00 1.758e-01 2.325e-04 -5.517e-02
74 1 -7.989e-04 2.041e+00 2.963e+00 -7.917e-03 -2.284e-01 -1.078e-01
75 1 -1.456e-03 -2.027e+00 2.959e+00 -9.395e-03 2.221e-01 -1.065e-01
76 1 2.032e+00 4.502e-03 2.962e+00 -2.785e-01 9.553e-04 -1.191e-01
77 1 -2.419e-03 3.555e+00 1.046e+00 -7.990e-03 1.196e-02 4.994e-02
78 1 -3.551e+00 5.158e-03 1.048e+00 3.760e-02 -2.326e-04 9.041e-03
79 1 3.549e+00 4.741e-03 1.047e+00 1.170e-01 -8.643e-04 2.729e-01
80 1 -2.345e-03 -3.546e+00 1.047e+00 -8.550e-03 -1.220e-02 5.074e-02
81 1 1.791e+00 -1.788e+00 -2.503e+00 -3.650e-02 1.189e-01 1.205e-01
82 1 -1.792e+00 -1.788e+00 -2.502e+00 -2.942e-03 1.755e-03 -7.932e-04
83 1 1.791e+00 1.797e+00 -2.503e+00 -3.644e-02 -1.181e-01 1.205e-01
84 1 -1.792e+00 1.796e+00 -2.506e+00 -7.053e-03 2.172e-03 1.878e-03
85 1 -1.888e-03 4.894e-03 -2.442e+00 -1.540e-01 1.771e-03 -2.956e-01
86 1 1.672e+00 -1.669e+00 1.050e+00 8.098e-02 7.334e-04 -8.277e-02
87 1 -1.675e+00 1.678e+00 1.049e+00 -1.225e-01 1.203e-01 3.292e-02
88 1 1.673e+00 1.679e+00 1.051e+00 8.111e-02 4.405e-04 -8.482e-02
89 1 -1.675e+00 -1.669e+00 1.051e+00 -1.212e-01 -1.165e-01 3.375e-02
