ITEM: TIMESTEP
0
ITEM: NUMBER OF ATOMS
89
ITEM: BOX BOUNDS xy xz yz pp pp pp
                     0.00000000000000e+00 1.06200000000000e+01 0.00000000000000e+00
0.00000000000000e+00	1.06200000000000e+01	0.00000000000000e+00
0.00000000000000e+00	1.06200000000000e+01	0.00000000000000e+00
ITEM: ATOMS id type x y z DisplacementX DisplacementY DisplacementZ
1 1 -2.542e-03 6.076e-03 -5.984e+00 -1.664e-02 -1.543e-03 -3.364e-03
2 1 3.541e+00 -3.538e+00 -2.490e+00 -2.092e-02 -2.196e-02 -2.604e-02
3 1 -3.542e+00 3.545e+00 -2.491e+00 -4.804e-03 -1.619e-03 4.463e-03
4 1 -3.543e+00 -3.536e+00 -2.492e+00 -5.423e-03 1.237e-03 8.338e-03
5 1 3.539e+00 3.546e+00 -2.492e+00 -2.000e-02 1.876e-02 -2.711e-02
6 1 1.774e+00 -3.535e+00 -4.259e+00 -1.863e-02 1.952e-02 2.796e-02
7 1 3.539e+00 -1.768e+00 -4.256e+00 -1.792e-02 -3.358e-02 -1.618e-02
8 1 -1.776e+00 -3.534e+00 -4.257e+00 -8.120e-03 -1.347e-03 4.515e-03
9 1 3.538e+00 1.780e+00 -4.258e+00 -1.897e-02 3.395e-02 -1.496e-02
10 1 -3.541e+00 1.781e+00 -4.257e+00 -9.183e-03 3.021e-03 9.461e-03
11 1 -1.776e+00 3.543e+00 -4.255e+00 -5.595e-03 3.987e-03 5.614e-03
12 1 -3.541e+00 -1.771e+00 -4.255e+00 -8.966e-03 9.598e-04 7.141e-03
13 1 1.773e+00 3.545e+00 -4.256e+00 -2.102e-02 -1.945e-02 2.710e-02
14 1 -1.643e-03 3.622e+00 4.662e+00 -6.308e-03 -7.690e-02 -7.272e-02
15 1 -3.616e+00 5.491e-03 4.660e+00 5.247e-02 -1.390e-05 -5.191e-02
16 1 3.613e+00 5.084e-03 4.661e+00 -8.717e-02 5.848e-04 -9.636e-02
17 1 -1.586e-03 -3.609e+00 4.659e+00 -4.517e-03 7.545e-02 -7.401e-02
18 1 5.297e+00 -1.764e+00 1.047e+00 1.070e-02 -2.429e-02 3.433e-02
19 1 1.767e+00 -5.294e+00 1.046e+00 -8.491e-03 -3.798e-04 1.113e-02
20 1 1.766e+00 5.303e+00 1.047e+00 -1.055e-02 -3.992e-04 1.044e-02
21 1 -5.301e+00 -1.764e+00 1.046e+00 1.564e-02 7.226e-03 3.210e-03
22 1 -1.769e+00 5.302e+00 1.047e+00 -1.083e-02 1.762e-03 2.031e-02
23 1 -5.302e+00 1.773e+00 1.048e+00 1.636e-02 -6.826e-03 1.668e-03
24 1 5.296e+00 1.774e+00 1.048e+00 1.006e-02 2.264e-02 3.412e-02
25 1 -1.769e+00 -5.294e+00 1.048e+00 -1.171e-02 -1.792e-03 2.157e-02
26 1 6.432e-04 -5.271e+00 -7.252e-01 -1.641e-02 -1.163e-03 1.681e-02
27 1 5.275e+00 4.784e-03 -7.255e-01 -2.820e-02 6.559e-04 1.539e-02
28 1 -5.278e+00 6.619e-03 -7.240e-01 1.207e-03 1.052e-03 1.546e-02
29 1 -1.111e-03 5.282e+00 -7.245e-01 -1.709e-02 -2.222e-04 1.723e-02
30 1 -5.277e+00 4.758e-03 2.819e+00 -7.617e-03 8.856e-05 -4.973e-03
31 1 -2.075e-03 5.279e+00 2.819e+00 -6.978e-03 2.305e-02 1.101e-02
32 1 -5.050e-04 -5.271e+00 2.818e+00 -7.135e-03 -2.121e-02 1.037e-02
33 1 5.275e+00 3.716e-03 2.819e+00 9.146e-02 4.877e-04 8.236e-02
34 1 -1.794e+00 1.798e+00 4.600e+00 1.271e-02 -1.435e-02 -6.081e-03
35 1 1.791e+00 -1.786e+00 4.601e+00 -3.481e-02 2.409e-02 -1.250e-02
36 1 1.790e+00 1.796e+00 4.600e+00 -3.382e-02 -2.705e-02 -1.035e-02
37 1 -1.793e+00 -1.786e+00 4.599e+00 1.424e-02 1.407e-02 -8.104e-03
38 1 3.518e+00 -3.516e+00 1.049e+00 -2.754e-04 -4.375e-02 5.015e-02
39 1 -3.523e+00 3.525e+00 1.047e+00 -2.874e-02 2.101e-02 2.131e-02
40 1 3.519e+00 3.525e+00 1.047e+00 -6.580e-04 4.114e-02 5.051e-02
41 1 -3.523e+00 -3.516e+00 1.047e+00 -2.829e-02 -1.945e-02 1.799e-02
42 1 -2.957e-03 4.725e-03 4.541e+00 -1.664e-02 -1.447e-03 2.610e-02
43 1 -3.565e+00 1.813e+00 2.812e+00 1.498e-02 -3.184e-02 1.856e-02
44 1 -1.809e+00 3.568e+00 2.814e+00 2.510e-02 -2.174e-02 1.933e-02
45 1 -3.565e+00 -1.802e+00 2.812e+00 1.471e-02 3.267e-02 1.765e-02
46 1 1.809e+00 3.567e+00 2.812e+00 -5.149e-02 -4.169e-02 -4.795e-04
47 1 1.808e+00 -3.556e+00 2.812e+00 -5.326e-02 4.107e-02 -1.713e-03
48 1 3.561e+00 -1.803e+00 2.813e+00 -4.337e-02 -1.357e-03 4.128e-02
49 1 -1.808e+00 -3.557e+00 2.812e+00 2.676e-02 1.860e-02 2.006e-02
50 1 3.561e+00 1.813e+00 2.813e+00 -4.309e-02 -2.739e-04 4.062e-02
51 1 1.764e+00 3.858e-03 -4.222e+00 -9.350e-03 -9.961e-04 -3.863e-02
52 1 -2.255e-03 -1.761e+00 -4.223e+00 -7.789e-03 -4.166e-02 -5.004e-02
53 1 -1.443e-03 1.769e+00 -4.223e+00 -6.804e-03 4.091e-02 -4.949e-02
54 1 -1.768e+00 5.713e-03 -4.223e+00 -8.958e-02 1.212e-03 -1.005e-01
55 1 3.614e+00 3.095e-03 -2.565e+00 5.478e-02 -4.214e-06 -1.805e-01
56 1 -1.368e-03 -3.612e+00 -2.566e+00 -7.124e-03 5.237e-02 4.720e-02
57 1 -2.095e-03 3.617e+00 -2.562e+00 -9.561e-03 -5.021e-02 4.549e-02
58 1 -3.614e+00 3.612e-03 -2.563e+00 9.869e-02 3.444e-04 8.875e-02
59 1 -1.874e-03 6.850e-03 2.104e+00 -1.557e-01 -5.167e-03 -7.766e-01
60 1 -1.516e-04 -2.428e-04 8.606e-04 7.052e-01 7.187e-03 -7.043e-01
61 1 1.807e+00 -3.558e+00 -7.182e-01 -5.221e-02 1.181e-02 6.316e-03
62 1 3.560e+00 -1.803e+00 -7.164e-01 1.066e-01 -2.258e-01 6.723e-03
63 1 -1.809e+00 -3.557e+00 -7.165e-01 -4.763e-02 -5.182e-02 8.012e-03
64 1 3.560e+00 1.812e+00 -7.166e-01 1.070e-01 2.228e-01 7.750e-03
65 1 -3.564e+00 1.810e+00 -7.151e-01 4.877e-02 -4.087e-02 6.521e-03
66 1 -1.808e+00 3.566e+00 -7.188e-01 -5.021e-02 5.296e-02 6.159e-03
67 1 -3.563e+00 -1.801e+00 -7.158e-01 4.913e-02 4.266e-02 6.949e-03
68 1 1.805e+00 3.567e+00 -7.157e-01 -5.060e-02 -9.675e-03 6.847e-03
69 1 -1.127e-03 -2.029e+00 -8.665e-01 -1.563e-01 3.031e-03 1.548e-01
70 1 2.033e+00 7.641e-03 -8.658e-01 7.772e-01 -1.557e-03 1.504e-01
71 1 -2.032e+00 6.555e-03 -8.643e-01 2.958e-01 -8.065e-04 1.572e-01
72 1 -2.669e-03 2.034e+00 -8.640e-01 -1.556e-01 3.560e-03 1.539e-01
73 1 -2.035e+00 5.181e-03 2.962e+00 1.768e-01 1.016e-03 -5.470e-02
74 1 -1.178e-03 2.042e+00 2.961e+00 -7.635e-03 -2.289e-01 -1.082e-01
75 1 -2.781e-03 -2.027e+00 2.962e+00 -7.328e-03 2.232e-01 -1.075e-01
76 1 2.032e+00 4.762e-03 2.961e+00 -2.772e-01 8.786e-04 -1.210e-01
77 1 -1.566e-03 3.555e+00 1.047e+00 -8.216e-03 1.218e-02 5.125e-02
78 1 -3.553e+00 5.566e-03 1.047e+00 3.635e-02 3.018e-04 9.639e-03
79 1 3.550e+00 6.035e-03 1.047e+00 1.187e-01 -1.010e-04 2.716e-01
80 1 9.089e-05 -3.545e+00 1.047e+00 -7.567e-03 -1.184e-02 4.956e-02
81 1 1.790e+00 -1.786e+00 -2.505e+00 -3.559e-02 1.200e-01 1.204e-01
82 1 -1.793e+00 -1.789e+00 -2.503e+00 -3.929e-03 2.883e-04 2.561e-03
83 1 1.790e+00 1.798e+00 -2.505e+00 -3.450e-02 -1.172e-01 1.200e-01
84 1 -1.793e+00 1.798e+00 -2.503e+00 -4.026e-03 1.121e-03 1.742e-03
85 1 -7.058e-04 3.569e-03 -2.441e+00 -1.544e-01 8.015e-04 -2.967e-01
86 1 1.674e+00 -1.667e+00 1.050e+00 8.031e-02 -2.191e-04 -8.525e-02
87 1 -1.676e+00 1.677e+00 1.049e+00 -1.206e-01 1.182e-01 3.322e-02
88 1 1.673e+00 1.677e+00 1.049e+00 8.193e-02 -3.715e-04 -8.329e-02
89 1 -1.675e+00 -1.670e+00 1.049e+00 -1.214e-01 -1.186e-01 3.531e-02
