ITEM: TIMESTEP
0
ITEM: NUMBER OF ATOMS
89
ITEM: BOX BOUNDS xy xz yz pp pp pp
                     0.00000000000000e+00 1.06200000000000e+01 0.00000000000000e+00
0.00000000000000e+00	1.06200000000000e+01	0.00000000000000e+00
0.00000000000000e+00	1.06200000000000e+01	0.00000000000000e+00
ITEM: ATOMS id type x y z DisplacementX DisplacementY DisplacementZ
1 1 -1.537e-03 5.925e-03 -5.983e+00 -1.709e-02 -2.729e-04 -7.808e-04
2 1 3.540e+00 -3.536e+00 -2.491e+00 -2.110e-02 -2.175e-02 -2.645e-02
3 1 -3.543e+00 3.545e+00 -2.491e+00 -7.013e-03 -1.709e-03 4.771e-03
4 1 -3.544e+00 -3.537e+00 -2.490e+00 -5.074e-03 1.768e-03 5.060e-03
5 1 3.539e+00 3.546e+00 -2.491e+00 -1.996e-02 2.386e-02 -2.717e-02
6 1 1.775e+00 -3.534e+00 -4.257e+00 -1.986e-02 1.940e-02 2.793e-02
7 1 3.538e+00 -1.771e+00 -4.258e+00 -2.127e-02 -3.334e-02 -1.483e-02
8 1 -1.777e+00 -3.533e+00 -4.258e+00 -4.294e-03 -1.362e-03 6.403e-03
9 1 3.537e+00 1.781e+00 -4.257e+00 -1.963e-02 3.292e-02 -1.525e-02
10 1 -3.542e+00 1.781e+00 -4.258e+00 -1.035e-02 -1.880e-04 8.785e-03
11 1 -1.778e+00 3.543e+00 -4.256e+00 -4.305e-03 3.325e-03 4.942e-03
12 1 -3.541e+00 -1.772e+00 -4.256e+00 -8.177e-03 1.048e-03 7.768e-03
13 1 1.773e+00 3.543e+00 -4.257e+00 -1.943e-02 -1.879e-02 2.633e-02
14 1 -1.270e-03 3.621e+00 4.662e+00 -5.212e-03 -7.515e-02 -7.408e-02
15 1 -3.615e+00 6.519e-03 4.661e+00 5.355e-02 1.833e-03 -5.317e-02
16 1 3.615e+00 4.974e-03 4.661e+00 -8.512e-02 -1.442e-03 -9.173e-02
17 1 -2.545e-03 -3.608e+00 4.659e+00 -6.786e-03 7.330e-02 -7.050e-02
18 1 5.298e+00 -1.763e+00 1.047e+00 1.077e-02 -2.451e-02 3.344e-02
19 1 1.765e+00 -5.293e+00 1.047e+00 -1.077e-02 5.803e-05 9.054e-03
20 1 1.766e+00 5.304e+00 1.048e+00 -1.176e-02 1.335e-03 1.222e-02
21 1 -5.299e+00 -1.761e+00 1.048e+00 1.759e-02 7.073e-03 5.285e-03
22 1 -1.770e+00 5.304e+00 1.048e+00 -1.040e-02 2.948e-03 2.168e-02
23 1 -5.299e+00 1.773e+00 1.048e+00 1.819e-02 -8.540e-03 4.450e-03
24 1 5.297e+00 1.774e+00 1.047e+00 1.037e-02 2.402e-02 3.511e-02
25 1 -1.768e+00 -5.292e+00 1.046e+00 -1.118e-02 -1.903e-03 2.026e-02
26 1 -2.805e-03 -5.271e+00 -7.242e-01 -1.484e-02 1.051e-04 1.447e-02
27 1 5.275e+00 2.676e-03 -7.239e-01 -2.927e-02 5.649e-04 1.491e-02
28 1 -5.277e+00 3.761e-03 -7.238e-01 -1.092e-03 -7.839e-04 1.435e-02
29 1 -2.761e-03 5.282e+00 -7.245e-01 -1.566e-02 -6.417e-04 1.574e-02
30 1 -5.278e+00 4.776e-03 2.818e+00 -8.198e-03 2.520e-05 -6.443e-03
31 1 -9.453e-04 5.280e+00 2.819e+00 -5.618e-03 2.166e-02 9.744e-03
32 1 -2.559e-03 -5.271e+00 2.820e+00 -6.452e-03 -2.233e-02 1.012e-02
33 1 5.275e+00 5.398e-03 2.819e+00 9.152e-02 -9.621e-04 8.344e-02
34 1 -1.793e+00 1.796e+00 4.602e+00 1.264e-02 -1.450e-02 -8.775e-03
35 1 1.793e+00 -1.787e+00 4.602e+00 -3.543e-02 2.270e-02 -1.097e-02
36 1 1.791e+00 1.798e+00 4.602e+00 -3.499e-02 -2.539e-02 -1.121e-02
37 1 -1.795e+00 -1.786e+00 4.601e+00 1.259e-02 1.377e-02 -8.394e-03
38 1 3.520e+00 -3.515e+00 1.047e+00 2.806e-04 -4.221e-02 5.005e-02
39 1 -3.521e+00 3.524e+00 1.047e+00 -2.831e-02 1.886e-02 2.041e-02
40 1 3.516e+00 3.525e+00 1.048e+00 -1.020e-03 4.186e-02 5.112e-02
41 1 -3.523e+00 -3.516e+00 1.048e+00 -2.594e-02 -1.893e-02 2.065e-02
42 1 -2.308e-03 5.464e-03 4.542e+00 -1.456e-02 -4.741e-04 2.411e-02
43 1 -3.564e+00 1.812e+00 2.811e+00 1.481e-02 -3.164e-02 1.773e-02
44 1 -1.809e+00 3.569e+00 2.813e+00 2.584e-02 -2.142e-02 2.144e-02
45 1 -3.566e+00 -1.804e+00 2.812e+00 1.532e-02 3.172e-02 1.828e-02
46 1 1.807e+00 3.566e+00 2.812e+00 -5.321e-02 -4.209e-02 -4.527e-04
47 1 1.807e+00 -3.558e+00 2.812e+00 -5.093e-02 4.051e-02 -2.491e-03
48 1 3.563e+00 -1.804e+00 2.812e+00 -4.294e-02 5.553e-06 4.141e-02
49 1 -1.808e+00 -3.557e+00 2.813e+00 2.618e-02 2.081e-02 1.952e-02
50 1 3.562e+00 1.813e+00 2.812e+00 -4.372e-02 1.712e-04 3.983e-02
51 1 1.764e+00 5.635e-03 -4.223e+00 -9.047e-03 2.184e-04 -3.815e-02
52 1 3.481e-04 -1.760e+00 -4.220e+00 -9.859e-03 -4.114e-02 -4.941e-02
53 1 -1.858e-03 1.770e+00 -4.223e+00 -8.767e-03 4.241e-02 -4.976e-02
54 1 -1.767e+00 3.787e-03 -4.224e+00 -8.965e-02 -1.624e-04 -1.010e-01
55 1 3.613e+00 2.889e-03 -2.566e+00 5.572e-02 1.135e-03 -1.796e-01
56 1 -2.068e-03 -3.612e+00 -2.565e+00 -8.874e-03 5.338e-02 4.962e-02
57 1 -3.811e-04 3.617e+00 -2.563e+00 -8.216e-03 -4.893e-02 4.547e-02
58 1 -3.616e+00 4.596e-03 -2.563e+00 1.008e-01 -7.160e-04 8.997e-02
59 1 -2.698e-03 8.937e-03 2.104e+00 -1.555e-01 -4.368e-03 -7.777e-01
60 1 -4.551e-04 -4.159e-04 3.779e-04 7.054e-01 4.674e-03 -7.031e-01
61 1 1.807e+00 -3.558e+00 -7.178e-01 -5.105e-02 1.285e-02 6.826e-03
62 1 3.560e+00 -1.803e+00 -7.173e-01 1.074e-01 -2.248e-01 5.486e-03
63 1 -1.811e+00 -3.559e+00 -7.159e-01 -4.735e-02 -5.016e-02 7.549e-03
64 1 3.561e+00 1.811e+00 -7.158e-01 1.074e-01 2.257e-01 6.201e-03
65 1 -3.565e+00 1.813e+00 -7.146e-01 4.752e-02 -4.049e-02 7.154e-03
66 1 -1.808e+00 3.566e+00 -7.154e-01 -4.789e-02 5.214e-02 6.938e-03
67 1 -3.563e+00 -1.803e+00 -7.158e-01 4.850e-02 4.192e-02 7.013e-03
68 1 1.806e+00 3.565e+00 -7.169e-01 -4.997e-02 -9.222e-03 6.543e-03
69 1 -1.564e-03 -2.030e+00 -8.651e-01 -1.563e-01 1.281e-03 1.539e-01
70 1 2.033e+00 5.908e-03 -8.643e-01 7.756e-01 1.101e-03 1.510e-01
71 1 -2.034e+00 4.206e-03 -8.633e-01 2.961e-01 -2.102e-03 1.562e-01
72 1 -7.386e-04 2.034e+00 -8.625e-01 -1.564e-01 4.945e-03 1.514e-01
73 1 -2.037e+00 4.045e-03 2.963e+00 1.765e-01 1.339e-03 -5.489e-02
74 1 -1.122e-04 2.040e+00 2.964e+00 -8.699e-03 -2.271e-01 -1.091e-01
75 1 -7.370e-05 -2.028e+00 2.961e+00 -1.059e-02 2.228e-01 -1.058e-01
76 1 2.030e+00 4.797e-03 2.962e+00 -2.767e-01 1.724e-03 -1.181e-01
77 1 -2.272e-03 3.556e+00 1.048e+00 -8.554e-03 1.113e-02 5.052e-02
78 1 -3.552e+00 3.601e-03 1.048e+00 3.710e-02 -5.957e-04 6.944e-03
79 1 3.551e+00 5.254e-03 1.050e+00 1.150e-01 1.504e-04 2.742e-01
80 1 -1.507e-03 -3.546e+00 1.048e+00 -8.736e-03 -9.811e-03 4.983e-02
81 1 1.790e+00 -1.786e+00 -2.503e+00 -3.482e-02 1.191e-01 1.206e-01
82 1 -1.791e+00 -1.787e+00 -2.503e+00 -2.628e-03 6.181e-04 1.379e-03
83 1 1.790e+00 1.796e+00 -2.504e+00 -3.516e-02 -1.179e-01 1.223e-01
84 1 -1.792e+00 1.796e+00 -2.503e+00 -4.727e-03 2.442e-04 1.925e-03
85 1 -6.439e-04 5.309e-03 -2.443e+00 -1.558e-01 9.627e-04 -2.964e-01
86 1 1.674e+00 -1.669e+00 1.050e+00 8.159e-02 -8.557e-04 -8.298e-02
87 1 -1.675e+00 1.677e+00 1.050e+00 -1.220e-01 1.202e-01 3.673e-02
88 1 1.673e+00 1.678e+00 1.050e+00 8.198e-02 1.197e-03 -8.377e-02
89 1 -1.675e+00 -1.669e+00 1.048e+00 -1.208e-01 -1.163e-01 3.532e-02
ITEM: TIMESTEP
0
ITEM: NUMBER OF ATOMS
89
ITEM: BOX BOUNDS xy xz yz pp pp pp
                     0.00000000000000e+00 1.06200000000000e+01 0.00000000000000e+00
0.00000000000000e+00	1.06200000000000e+01	0.00000000000000e+00
0.00000000000000e+00	1.06200000000000e+01	0.00000000000000e+00
ITEM: ATOMS id type x y z DisplacementX DisplacementY DisplacementZ
90 1 -2.744e-03 6.203e-03 -5.983e+00 5.603e-04 -8.621e-04 -7.048e-03
91 1 3.539e+00 -3.537e+00 -2.491e+00 2.950e-04 2.055e-03 -3.840e-03
92 1 -3.545e+00 3.545e+00 -2.491e+00 6.906e-04 -1.539e-03 -3.583e-03
93 1 -3.542e+00 -3.538e+00 -2.490e+00 6.822e-04 2.151e-03 -3.416e-03
94 1 3.538e+00 3.544e+00 -2.489e+00 -7.028e-04 -2.719e-03 -3.229e-03
95 1 1.776e+00 -3.534e+00 -4.256e+00 2.537e-03 4.642e-03 5.483e-03
96 1 3.538e+00 -1.769e+00 -4.257e+00 5.163e-04 1.295e-02 7.428e-03
97 1 -1.776e+00 -3.534e+00 -4.257e+00 -1.861e-03 3.983e-03 4.776e-03
98 1 3.536e+00 1.780e+00 -4.258e+00 4.743e-04 -1.305e-02 6.537e-03
99 1 -3.540e+00 1.781e+00 -4.256e+00 1.641e-03 -1.096e-02 5.363e-03
100 1 -1.776e+00 3.544e+00 -4.255e+00 -4.302e-03 -3.538e-03 2.184e-03
101 1 -3.540e+00 -1.770e+00 -4.255e+00 -1.769e-03 1.188e-02 6.894e-03
102 1 1.774e+00 3.545e+00 -4.258e+00 4.403e-03 -4.245e-03 2.534e-03
103 1 3.681e-04 3.621e+00 4.661e+00 -2.344e-04 -4.014e-03 -5.170e-04
104 1 -3.617e+00 6.177e-03 4.661e+00 9.506e-02 -4.927e-04 -9.285e-02
105 1 3.613e+00 4.992e-03 4.661e+00 -9.325e-02 -1.384e-03 -9.333e-02
106 1 -1.795e-03 -3.610e+00 4.662e+00 1.965e-03 2.394e-04 2.562e-03
107 1 5.298e+00 -1.762e+00 1.048e+00 -2.371e-02 -5.003e-03 -2.177e-03
108 1 1.768e+00 -5.294e+00 1.047e+00 -2.235e-03 3.001e-02 -1.221e-03
109 1 1.766e+00 5.305e+00 1.048e+00 -3.298e-03 -3.018e-02 3.960e-04
110 1 -5.301e+00 -1.763e+00 1.046e+00 2.130e-02 -5.517e-03 4.404e-04
111 1 -1.768e+00 5.301e+00 1.049e+00 2.230e-03 -2.937e-02 -4.317e-05
112 1 -5.299e+00 1.773e+00 1.046e+00 2.118e-02 4.678e-03 7.214e-04
113 1 5.297e+00 1.773e+00 1.046e+00 -2.191e-02 2.782e-03 1.620e-04
114 1 -1.767e+00 -5.293e+00 1.049e+00 1.483e-03 3.052e-02 3.139e-04
115 1 -1.634e-03 -5.271e+00 -7.241e-01 4.286e-04 5.800e-03 6.403e-03
116 1 5.276e+00 4.945e-03 -7.242e-01 2.309e-02 9.118e-04 3.000e-03
117 1 -5.277e+00 6.601e-03 -7.238e-01 -2.352e-02 9.219e-04 4.599e-03
118 1 -4.519e-05 5.281e+00 -7.238e-01 5.630e-06 -7.424e-03 6.197e-03
119 1 -5.278e+00 4.863e-03 2.819e+00 -2.231e-02 3.610e-04 -4.141e-03
120 1 -7.866e-04 5.279e+00 2.820e+00 -2.409e-04 -6.877e-03 -7.660e-03
121 1 -3.196e-03 -5.270e+00 2.819e+00 1.942e-03 5.677e-03 -6.667e-03
122 1 5.276e+00 5.293e-03 2.821e+00 2.332e-02 -6.127e-04 -5.187e-03
123 1 -1.794e+00 1.798e+00 4.599e+00 -1.561e-02 -2.754e-02 9.030e-03
124 1 1.792e+00 -1.785e+00 4.600e+00 1.680e-02 2.722e-02 1.080e-02
125 1 1.788e+00 1.797e+00 4.599e+00 1.561e-02 -2.817e-02 9.298e-03
126 1 -1.792e+00 -1.787e+00 4.602e+00 -1.638e-02 2.706e-02 8.262e-03
127 1 3.520e+00 -3.516e+00 1.047e+00 9.339e-02 -9.115e-02 -3.986e-04
128 1 -3.522e+00 3.527e+00 1.049e+00 -9.368e-02 9.280e-02 1.435e-04
129 1 3.519e+00 3.529e+00 1.049e+00 9.339e-02 9.274e-02 4.927e-04
130 1 -3.521e+00 -3.514e+00 1.049e+00 -9.298e-02 -9.009e-02 -1.305e-04
131 1 -4.831e-04 7.271e-03 4.541e+00 -1.153e-03 -2.820e-03 5.637e-02
132 1 -3.563e+00 1.813e+00 2.813e+00 2.786e-04 -4.305e-02 4.558e-02
133 1 -1.811e+00 3.567e+00 2.813e+00 1.731e-02 -1.132e-02 2.714e-02
134 1 -3.565e+00 -1.802e+00 2.813e+00 1.002e-03 4.414e-02 4.351e-02
135 1 1.808e+00 3.569e+00 2.812e+00 -1.658e-02 -1.198e-02 2.670e-02
136 1 1.807e+00 -3.559e+00 2.812e+00 -1.603e-02 1.134e-02 2.737e-02
137 1 3.561e+00 -1.802e+00 2.812e+00 3.178e-04 4.432e-02 4.322e-02
138 1 -1.809e+00 -3.556e+00 2.812e+00 1.438e-02 9.507e-03 2.490e-02
139 1 3.561e+00 1.813e+00 2.812e+00 -1.446e-03 -4.220e-02 4.336e-02
140 1 1.765e+00 4.103e-03 -4.221e+00 3.856e-03 -2.301e-04 -2.997e-02
141 1 -2.459e-03 -1.757e+00 -4.222e+00 -2.310e-04 -4.694e-03 -6.874e-03
142 1 -1.481e-03 1.770e+00 -4.222e+00 9.770e-04 7.487e-03 -8.292e-03
143 1 -1.766e+00 5.604e-03 -4.221e+00 -3.192e-03 3.401e-04 -3.011e-02
144 1 3.613e+00 5.153e-03 -2.564e+00 -9.334e-02 -1.954e-04 9.151e-02
145 1 -4.311e-04 -3.610e+00 -2.566e+00 -5.782e-04 4.220e-03 -7.078e-04
146 1 -4.512e-04 3.618e+00 -2.564e+00 -8.673e-04 3.088e-04 -4.133e-03
147 1 -3.614e+00 5.566e-03 -2.566e+00 9.258e-02 6.803e-04 9.029e-02
148 1 -2.233e-03 1.116e-02 2.101e+00 2.243e-03 -1.055e+00 -1.054e+00
149 1 6.419e-04 -8.729e-04 -1.830e-03 -4.502e-04 1.058e+00 1.044e+00
150 1 1.808e+00 -3.558e+00 -7.162e-01 -1.751e-02 1.047e-02 -2.792e-02
151 1 3.561e+00 -1.804e+00 -7.153e-01 -1.860e-04 4.242e-02 -4.407e-02
152 1 -1.811e+00 -3.558e+00 -7.155e-01 1.797e-02 1.111e-02 -2.945e-02
153 1 3.559e+00 1.811e+00 -7.141e-01 -1.111e-03 -4.419e-02 -4.369e-02
154 1 -3.563e+00 1.810e+00 -7.159e-01 -5.320e-04 -4.083e-02 -4.394e-02
155 1 -1.811e+00 3.565e+00 -7.161e-01 1.387e-02 -9.371e-03 -2.743e-02
156 1 -3.562e+00 -1.803e+00 -7.167e-01 -1.191e-03 4.311e-02 -4.529e-02
157 1 1.806e+00 3.566e+00 -7.150e-01 -1.573e-02 -1.080e-02 -2.865e-02
158 1 -5.590e-05 -2.030e+00 -8.654e-01 -1.353e-03 1.242e-01 -1.213e-01
159 1 2.033e+00 7.546e-03 -8.651e-01 -3.586e-01 1.095e-03 2.377e-01
160 1 -2.032e+00 7.146e-03 -8.637e-01 3.571e-01 -2.454e-04 2.367e-01
161 1 -1.869e-03 2.033e+00 -8.628e-01 4.355e-04 -1.182e-01 -1.239e-01
162 1 -2.035e+00 4.209e-03 2.960e+00 3.591e-01 1.842e-03 -2.409e-01
163 1 5.781e-05 2.042e+00 2.964e+00 -1.283e-03 -1.237e-01 1.164e-01
164 1 1.032e-03 -2.025e+00 2.960e+00 8.406e-04 1.205e-01 1.213e-01
165 1 2.032e+00 4.856e-03 2.959e+00 -3.588e-01 1.842e-03 -2.396e-01
166 1 -1.513e-03 3.556e+00 1.048e+00 -1.083e-03 -5.817e-02 -1.526e-03
167 1 -3.554e+00 4.768e-03 1.048e+00 -1.044e-03 -5.768e-04 -9.000e-05
168 1 3.549e+00 4.000e-03 1.048e+00 5.498e-04 2.016e-05 2.633e-04
169 1 -3.226e-04 -3.547e+00 1.048e+00 2.359e-03 5.991e-02 -1.193e-03
170 1 1.791e+00 -1.787e+00 -2.504e+00 1.698e-02 2.799e-02 -1.038e-02
171 1 -1.794e+00 -1.787e+00 -2.503e+00 -1.535e-02 2.789e-02 -1.159e-02
172 1 1.791e+00 1.798e+00 -2.506e+00 1.900e-02 -2.835e-02 -1.041e-02
173 1 -1.793e+00 1.797e+00 -2.503e+00 -1.788e-02 -2.586e-02 -9.658e-03
174 1 4.061e-04 2.741e-03 -2.442e+00 1.511e-03 5.411e-04 -6.244e-02
175 1 1.672e+00 -1.668e+00 1.048e+00 3.592e-01 -2.384e-01 -1.289e-03
176 1 -1.676e+00 1.677e+00 1.049e+00 -3.598e-01 2.398e-01 -4.731e-04
177 1 1.673e+00 1.677e+00 1.049e+00 3.564e-01 2.363e-01 -8.516e-04
178 1 -1.676e+00 -1.668e+00 1.048e+00 -3.584e-01 -2.381e-01 -1.537e-03
ITEM: TIMESTEP
0
ITEM: NUMBER OF ATOMS
89
ITEM: BOX BOUNDS xy xz yz pp pp pp
                     0.00000000000000e+00 1.06200000000000e+01 0.00000000000000e+00
0.00000000000000e+00	1.06200000000000e+01	0.00000000000000e+00
0.00000000000000e+00	1.06200000000000e+01	0.00000000000000e+00
ITEM: ATOMS id type x y z DisplacementX DisplacementY DisplacementZ
179 1 -1.768e-03 5.799e-03 -5.983e+00 -1.678e-03 1.018e-03 -7.512e-03
180 1 3.539e+00 -3.537e+00 -2.491e+00 -2.529e-03 2.455e-04 -2.108e-03
181 1 -3.541e+00 3.544e+00 -2.489e+00 1.026e-03 7.504e-05 -3.335e-03
182 1 -3.544e+00 -3.536e+00 -2.491e+00 3.253e-03 2.965e-04 -3.758e-03
183 1 3.538e+00 3.545e+00 -2.491e+00 -2.303e-03 5.657e-05 -1.082e-03
184 1 1.775e+00 -3.535e+00 -4.258e+00 -1.266e-02 2.960e-04 6.784e-03
185 1 3.539e+00 -1.770e+00 -4.258e+00 -4.689e-03 -1.287e-03 4.542e-03
186 1 -1.776e+00 -3.533e+00 -4.257e+00 1.403e-02 -1.347e-04 5.504e-03
187 1 3.539e+00 1.780e+00 -4.257e+00 -3.377e-03 2.930e-03 3.452e-03
188 1 -3.541e+00 1.780e+00 -4.256e+00 1.892e-03 3.122e-03 3.947e-03
189 1 -1.777e+00 3.543e+00 -4.257e+00 1.232e-02 7.879e-04 5.496e-03
190 1 -3.539e+00 -1.771e+00 -4.257e+00 1.645e-03 -3.022e-03 3.223e-03
191 1 1.774e+00 3.543e+00 -4.257e+00 -1.150e-02 5.622e-04 5.808e-03
192 1 -2.199e-03 3.620e+00 4.660e+00 1.253e-03 -9.526e-02 -9.214e-02
193 1 -3.615e+00 5.792e-03 4.662e+00 3.648e-03 -1.488e-04 -1.601e-04
194 1 3.613e+00 5.828e-03 4.661e+00 -6.981e-04 -1.001e-03 -3.361e-04
195 1 -4.499e-04 -3.608e+00 4.660e+00 -5.169e-05 9.318e-02 -9.257e-02
196 1 5.298e+00 -1.763e+00 1.049e+00 -2.926e-02 4.721e-03 -1.104e-03
197 1 1.766e+00 -5.293e+00 1.048e+00 5.940e-03 2.144e-02 6.095e-05
198 1 1.766e+00 5.302e+00 1.048e+00 3.285e-03 -2.249e-02 5.960e-04
199 1 -5.301e+00 -1.764e+00 1.047e+00 2.911e-02 3.415e-03 -1.331e-03
200 1 -1.769e+00 5.302e+00 1.047e+00 -4.511e-03 -2.318e-02 2.470e-04
201 1 -5.300e+00 1.772e+00 1.047e+00 2.810e-02 -1.408e-03 -4.104e-04
202 1 5.298e+00 1.774e+00 1.047e+00 -2.693e-02 -2.598e-03 -3.870e-04
203 1 -1.768e+00 -5.292e+00 1.047e+00 -5.226e-03 2.220e-02 -1.316e-03
204 1 -6.054e-04 -5.272e+00 -7.252e-01 -2.340e-04 -2.265e-02 2.645e-03
205 1 5.275e+00 5.010e-03 -7.231e-01 -6.332e-03 -4.643e-04 6.727e-03
206 1 -5.277e+00 4.005e-03 -7.246e-01 8.213e-03 1.560e-03 4.483e-03
207 1 -6.244e-04 5.281e+00 -7.240e-01 -5.977e-04 2.208e-02 2.607e-03
208 1 -5.276e+00 6.188e-03 2.822e+00 6.263e-03 -4.244e-04 -6.591e-03
209 1 -8.123e-04 5.279e+00 2.820e+00 -5.203e-04 2.370e-02 -4.707e-03
210 1 -3.245e-04 -5.271e+00 2.822e+00 8.457e-04 -2.268e-02 -5.437e-03
211 1 5.274e+00 4.438e-03 2.820e+00 -5.424e-03 1.435e-04 -7.793e-03
212 1 -1.792e+00 1.797e+00 4.599e+00 2.795e-02 1.432e-02 7.285e-03
213 1 1.790e+00 -1.788e+00 4.601e+00 -2.706e-02 -1.509e-02 1.049e-02
214 1 1.791e+00 1.800e+00 4.599e+00 -2.817e-02 1.434e-02 7.463e-03
215 1 -1.792e+00 -1.788e+00 4.601e+00 2.853e-02 -1.365e-02 9.582e-03
216 1 3.518e+00 -3.514e+00 1.048e+00 9.319e-02 -9.240e-02 -5.242e-04
217 1 -3.521e+00 3.524e+00 1.047e+00 -9.292e-02 9.443e-02 -2.093e-03
218 1 3.520e+00 3.525e+00 1.047e+00 9.203e-02 9.375e-02 1.684e-03
219 1 -3.522e+00 -3.517e+00 1.048e+00 -9.350e-02 -9.313e-02 -1.682e-03
220 1 -1.782e-03 5.498e-03 4.541e+00 1.886e-04 -1.549e-03 5.768e-02
221 1 -3.566e+00 1.812e+00 2.815e+00 1.287e-02 -1.403e-02 2.632e-02
222 1 -1.810e+00 3.568e+00 2.812e+00 4.388e-02 7.712e-04 4.350e-02
223 1 -3.564e+00 -1.801e+00 2.811e+00 1.138e-02 1.790e-02 2.717e-02
224 1 1.807e+00 3.567e+00 2.812e+00 -4.372e-02 -1.844e-03 4.356e-02
225 1 1.808e+00 -3.558e+00 2.812e+00 -4.204e-02 2.579e-04 4.249e-02
226 1 3.561e+00 -1.803e+00 2.811e+00 -9.159e-03 1.634e-02 2.692e-02
227 1 -1.809e+00 -3.558e+00 2.810e+00 4.383e-02 7.050e-04 4.427e-02
228 1 3.561e+00 1.814e+00 2.812e+00 -9.772e-03 -1.698e-02 2.645e-02
229 1 1.764e+00 4.326e-03 -4.222e+00 6.783e-03 1.841e-04 -7.925e-03
230 1 -1.599e-03 -1.762e+00 -4.223e+00 1.880e-03 -2.458e-03 -3.043e-02
231 1 -1.079e-03 1.771e+00 -4.219e+00 6.776e-04 4.065e-03 -2.961e-02
232 1 -1.766e+00 3.634e-03 -4.222e+00 -6.075e-03 6.246e-04 -7.017e-03
233 1 3.611e+00 5.065e-03 -2.564e+00 -2.929e-03 5.445e-04 5.778e-04
234 1 -2.299e-04 -3.609e+00 -2.565e+00 -8.072e-04 9.221e-02 9.130e-02
235 1 -1.273e-04 3.617e+00 -2.564e+00 -7.162e-04 -9.217e-02 8.950e-02
236 1 -3.614e+00 2.872e-03 -2.563e+00 1.057e-03 1.778e-03 -4.084e-03
237 1 -1.024e-03 7.340e-03 2.104e+00 1.050e+00 -1.654e-03 -1.052e+00
238 1 1.036e-03 -8.199e-04 1.670e-03 -1.055e+00 4.414e-03 1.039e+00
239 1 1.807e+00 -3.557e+00 -7.156e-01 -4.554e-02 2.181e-03 -4.299e-02
240 1 3.560e+00 -1.803e+00 -7.168e-01 -1.042e-02 1.613e-02 -2.589e-02
241 1 -1.809e+00 -3.558e+00 -7.160e-01 4.405e-02 1.049e-03 -4.485e-02
242 1 3.559e+00 1.813e+00 -7.178e-01 -8.948e-03 -1.616e-02 -2.735e-02
243 1 -3.561e+00 1.813e+00 -7.157e-01 1.010e-02 -1.540e-02 -2.889e-02
244 1 -1.808e+00 3.565e+00 -7.170e-01 4.201e-02 1.917e-03 -4.519e-02
245 1 -3.562e+00 -1.802e+00 -7.160e-01 1.242e-02 1.343e-02 -2.762e-02
246 1 1.805e+00 3.567e+00 -7.169e-01 -4.421e-02 1.634e-04 -4.500e-02
247 1 -2.084e-04 -2.029e+00 -8.670e-01 -7.224e-04 3.601e-01 2.368e-01
248 1 2.032e+00 1.998e-03 -8.649e-01 -1.222e-01 9.834e-05 -1.183e-01
249 1 -2.032e+00 5.232e-03 -8.636e-01 1.174e-01 1.333e-04 -1.267e-01
250 1 -1.031e-03 2.034e+00 -8.626e-01 -2.187e-03 -3.545e-01 2.362e-01
251 1 -2.036e+00 5.168e-03 2.961e+00 1.234e-01 6.790e-04 1.145e-01
252 1 -4.236e-04 2.042e+00 2.963e+00 -4.230e-04 -3.625e-01 -2.409e-01
253 1 -1.610e-03 -2.027e+00 2.962e+00 -1.042e-03 3.595e-01 -2.397e-01
254 1 2.032e+00 5.386e-03 2.960e+00 -1.185e-01 6.988e-04 1.200e-01
255 1 -2.064e-04 3.555e+00 1.048e+00 -1.446e-04 2.113e-03 -9.059e-04
256 1 -3.552e+00 3.284e-03 1.049e+00 5.996e-02 1.052e-03 -2.233e-03
257 1 3.549e+00 5.551e-03 1.046e+00 -5.838e-02 -6.712e-04 -1.904e-04
258 1 -1.749e-03 -3.545e+00 1.048e+00 4.063e-05 -2.532e-04 -1.887e-05
259 1 1.791e+00 -1.786e+00 -2.504e+00 -2.634e-02 -1.098e-02 -1.079e-02
260 1 -1.790e+00 -1.786e+00 -2.503e+00 2.863e-02 -1.881e-02 -1.280e-02
261 1 1.790e+00 1.796e+00 -2.504e+00 -2.812e-02 1.511e-02 -1.044e-02
262 1 -1.793e+00 1.797e+00 -2.503e+00 2.685e-02 1.837e-02 -1.275e-02
263 1 -8.475e-05 3.304e-03 -2.441e+00 2.297e-03 6.475e-04 -6.139e-02
264 1 1.672e+00 -1.669e+00 1.050e+00 2.383e-01 -3.579e-01 -6.619e-04
265 1 -1.676e+00 1.679e+00 1.050e+00 -2.401e-01 3.606e-01 -8.783e-04
266 1 1.674e+00 1.678e+00 1.051e+00 2.409e-01 3.596e-01 -2.780e-03
267 1 -1.676e+00 -1.668e+00 1.049e+00 -2.405e-01 -3.578e-01 7.417e-05
ITEM: TIMESTEP
0
ITEM: NUMBER OF ATOMS
89
ITEM: BOX BOUNDS xy xz yz pp pp pp
                     0.00000000000000e+00 1.06200000000000e+01 0.00000000000000e+00
0.00000000000000e+00	1.06200000000000e+01	0.00000000000000e+00
0.00000000000000e+00	1.06200000000000e+01	0.00000000000000e+00
ITEM: ATOMS id type x y z DisplacementX DisplacementY DisplacementZ
268 1 -2.324e-03 5.822e-03 -5.984e+00 -8.558e-04 -9.750e-04 -7.375e-03
269 1 3.540e+00 -3.536e+00 -2.492e+00 -2.155e-03 -5.565e-04 -2.037e-03
270 1 -3.542e+00 3.546e+00 -2.491e+00 2.771e-03 2.098e-04 -4.500e-03
271 1 -3.543e+00 -3.536e+00 -2.491e+00 1.921e-03 -1.841e-05 -3.308e-03
272 1 3.539e+00 3.545e+00 -2.491e+00 -2.406e-03 -1.062e-03 -3.536e-03
273 1 1.774e+00 -3.534e+00 -4.257e+00 -1.376e-02 -3.034e-04 6.845e-03
274 1 3.537e+00 -1.771e+00 -4.258e+00 -2.557e-03 -2.818e-03 3.676e-03
275 1 -1.778e+00 -3.535e+00 -4.258e+00 1.347e-02 2.626e-03 5.318e-03
276 1 3.539e+00 1.779e+00 -4.257e+00 -4.376e-03 2.532e-03 2.309e-03
277 1 -3.541e+00 1.779e+00 -4.259e+00 3.108e-03 1.872e-03 1.994e-03
278 1 -1.777e+00 3.545e+00 -4.258e+00 1.352e-02 4.428e-04 5.589e-03
279 1 -3.542e+00 -1.770e+00 -4.256e+00 3.895e-03 -9.924e-04 3.882e-03
280 1 1.773e+00 3.543e+00 -4.257e+00 -1.409e-02 2.977e-03 6.716e-03
281 1 -2.526e-03 3.622e+00 4.662e+00 -2.169e-03 -9.302e-02 -9.324e-02
282 1 -3.617e+00 4.535e-03 4.660e+00 3.593e-03 -4.858e-04 1.795e-03
283 1 3.611e+00 6.518e-03 4.661e+00 -1.879e-03 2.133e-04 1.772e-04
284 1 -1.560e-03 -3.609e+00 4.661e+00 1.637e-03 9.177e-02 -9.125e-02
285 1 5.296e+00 -1.762e+00 1.048e+00 -2.683e-02 1.556e-03 -1.774e-03
286 1 1.766e+00 -5.293e+00 1.048e+00 3.721e-03 2.284e-02 -1.314e-03
287 1 1.768e+00 5.304e+00 1.049e+00 3.516e-03 -2.147e-02 2.647e-03
288 1 -5.300e+00 -1.762e+00 1.048e+00 2.778e-02 1.588e-03 -5.301e-04
289 1 -1.770e+00 5.304e+00 1.049e+00 -5.410e-03 -2.180e-02 -5.331e-04
290 1 -5.299e+00 1.772e+00 1.050e+00 2.913e-02 -2.762e-03 9.752e-04
291 1 5.298e+00 1.773e+00 1.049e+00 -2.991e-02 -3.156e-03 -4.723e-04
292 1 -1.767e+00 -5.293e+00 1.047e+00 -5.691e-03 2.249e-02 -1.881e-03
293 1 -1.250e-03 -5.272e+00 -7.230e-01 -8.357e-04 -2.132e-02 4.325e-03
294 1 5.274e+00 3.586e-03 -7.232e-01 -6.503e-03 -5.782e-04 8.021e-03
295 1 -5.276e+00 6.175e-03 -7.235e-01 7.196e-03 9.414e-05 6.703e-03
296 1 -1.465e-03 5.283e+00 -7.246e-01 -2.003e-03 2.229e-02 3.990e-03
297 1 -5.277e+00 3.837e-03 2.819e+00 4.980e-03 1.949e-03 -6.507e-03
298 1 -1.560e-03 5.280e+00 2.819e+00 -2.332e-03 2.280e-02 -2.055e-03
299 1 -2.187e-03 -5.272e+00 2.818e+00 -5.283e-04 -2.137e-02 -5.169e-03
300 1 5.277e+00 3.083e-03 2.821e+00 -7.537e-03 3.184e-05 -7.259e-03
301 1 -1.793e+00 1.796e+00 4.601e+00 2.840e-02 1.755e-02 8.976e-03
302 1 1.789e+00 -1.787e+00 4.600e+00 -2.880e-02 -1.520e-02 8.497e-03
303 1 1.791e+00 1.797e+00 4.603e+00 -2.777e-02 1.660e-02 9.802e-03
304 1 -1.793e+00 -1.788e+00 4.601e+00 2.906e-02 -1.573e-02 9.591e-03
305 1 3.519e+00 -3.515e+00 1.047e+00 9.245e-02 -9.371e-02 -1.235e-03
306 1 -3.522e+00 3.525e+00 1.049e+00 -9.083e-02 9.469e-02 1.280e-03
307 1 3.519e+00 3.527e+00 1.047e+00 9.142e-02 9.518e-02 -8.906e-04
308 1 -3.522e+00 -3.515e+00 1.047e+00 -9.089e-02 -9.238e-02 -1.826e-03
309 1 -5.773e-04 6.129e-03 4.542e+00 9.222e-04 -1.157e-03 5.571e-02
310 1 -3.563e+00 1.815e+00 2.811e+00 1.189e-02 -1.698e-02 2.749e-02
311 1 -1.810e+00 3.567e+00 2.812e+00 4.301e-02 -3.873e-04 4.385e-02
312 1 -3.563e+00 -1.803e+00 2.812e+00 1.110e-02 1.613e-02 2.689e-02
313 1 1.808e+00 3.567e+00 2.814e+00 -4.500e-02 -9.581e-04 4.229e-02
314 1 1.804e+00 -3.559e+00 2.811e+00 -4.345e-02 -1.169e-03 4.323e-02
315 1 3.561e+00 -1.804e+00 2.812e+00 -1.124e-02 1.391e-02 2.610e-02
316 1 -1.809e+00 -3.558e+00 2.812e+00 4.357e-02 -2.087e-03 4.200e-02
317 1 3.561e+00 1.813e+00 2.812e+00 -9.444e-03 -1.676e-02 2.771e-02
318 1 1.764e+00 4.152e-03 -4.222e+00 6.198e-03 3.098e-04 -7.680e-03
319 1 -8.387e-04 -1.761e+00 -4.223e+00 -8.370e-04 -2.630e-03 -2.843e-02
320 1 -9.662e-04 1.770e+00 -4.223e+00 4.833e-05 2.602e-03 -2.869e-02
321 1 -1.766e+00 3.683e-03 -4.222e+00 -6.468e-03 -6.678e-04 -7.603e-03
322 1 3.611e+00 5.340e-03 -2.565e+00 -2.913e-03 4.513e-04 -2.874e-03
323 1 -6.280e-04 -3.611e+00 -2.566e+00 -7.864e-04 9.356e-02 9.154e-02
324 1 -3.516e-03 3.617e+00 -2.563e+00 6.955e-04 -8.995e-02 8.641e-02
325 1 -3.615e+00 2.698e-03 -2.562e+00 1.238e-03 -5.415e-05 -3.443e-03
326 1 -5.078e-04 9.004e-03 2.103e+00 -1.049e+00 -4.786e-03 -1.054e+00
327 1 -2.029e-03 1.744e-03 -1.803e-03 1.051e+00 4.118e-03 1.047e+00
328 1 1.806e+00 -3.557e+00 -7.165e-01 -4.372e-02 1.634e-04 -4.512e-02
329 1 3.561e+00 -1.801e+00 -7.162e-01 -9.241e-03 1.583e-02 -2.761e-02
330 1 -1.808e+00 -3.556e+00 -7.173e-01 4.543e-02 -6.119e-04 -4.422e-02
331 1 3.563e+00 1.812e+00 -7.184e-01 -1.129e-02 -1.565e-02 -2.854e-02
332 1 -3.563e+00 1.812e+00 -7.164e-01 9.915e-03 -1.613e-02 -2.826e-02
333 1 -1.807e+00 3.566e+00 -7.141e-01 4.205e-02 2.946e-03 -4.583e-02
334 1 -3.563e+00 -1.803e+00 -7.140e-01 8.938e-03 1.529e-02 -2.697e-02
335 1 1.806e+00 3.566e+00 -7.169e-01 -4.228e-02 1.479e-03 -4.510e-02
336 1 -1.893e-03 -2.031e+00 -8.649e-01 -1.254e-04 3.615e-01 2.391e-01
337 1 2.032e+00 4.765e-03 -8.653e-01 -1.220e-01 2.301e-04 -1.225e-01
338 1 -2.034e+00 3.321e-03 -8.636e-01 1.188e-01 1.767e-04 -1.227e-01
339 1 -1.279e-03 2.035e+00 -8.616e-01 -1.245e-03 -3.541e-01 2.363e-01
340 1 -2.035e+00 5.173e-03 2.961e+00 1.217e-01 3.235e-03 1.191e-01
341 1 1.148e-03 2.040e+00 2.963e+00 4.877e-04 -3.598e-01 -2.422e-01
342 1 1.095e-03 -2.026e+00 2.961e+00 -1.897e-03 3.576e-01 -2.396e-01
343 1 2.033e+00 3.538e-03 2.961e+00 -1.216e-01 -6.192e-04 1.181e-01
344 1 -1.090e-03 3.555e+00 1.048e+00 5.261e-04 3.184e-04 -1.177e-03
345 1 -3.554e+00 4.852e-03 1.048e+00 5.830e-02 1.126e-03 -8.930e-05
346 1 3.549e+00 2.506e-03 1.047e+00 -5.824e-02 1.824e-03 -2.927e-03
347 1 -1.339e-03 -3.546e+00 1.049e+00 -6.866e-04 -9.892e-05 -2.568e-03
348 1 1.790e+00 -1.788e+00 -2.505e+00 -2.855e-02 -1.682e-02 -1.099e-02
349 1 -1.793e+00 -1.787e+00 -2.503e+00 2.728e-02 -1.524e-02 -1.133e-02
350 1 1.792e+00 1.794e+00 -2.504e+00 -2.872e-02 1.642e-02 -1.050e-02
351 1 -1.792e+00 1.797e+00 -2.505e+00 2.781e-02 1.792e-02 -1.126e-02
352 1 -5.775e-04 3.233e-03 -2.444e+00 -9.782e-04 2.071e-03 -6.283e-02
353 1 1.675e+00 -1.669e+00 1.049e+00 2.384e-01 -3.593e-01 -5.512e-04
354 1 -1.674e+00 1.678e+00 1.050e+00 -2.385e-01 3.608e-01 -2.867e-03
355 1 1.671e+00 1.679e+00 1.049e+00 2.395e-01 3.580e-01 -2.801e-03
356 1 -1.673e+00 -1.669e+00 1.048e+00 -2.388e-01 -3.583e-01 -3.702e-03
ITEM: TIMESTEP
0
ITEM: NUMBER OF ATOMS
89
ITEM: BOX BOUNDS xy xz yz pp pp pp
                     0.00000000000000e+00 1.06200000000000e+01 0.00000000000000e+00
0.00000000000000e+00	1.06200000000000e+01	0.00000000000000e+00
0.00000000000000e+00	1.06200000000000e+01	0.00000000000000e+00
ITEM: ATOMS id type x y z DisplacementX DisplacementY DisplacementZ
357 1 -4.306e-05 6.803e-03 -5.985e+00 1.590e-02 -1.606e-03 -3.300e-03
358 1 3.541e+00 -3.536e+00 -2.492e+00 6.271e-03 3.277e-05 7.498e-03
359 1 -3.543e+00 3.546e+00 -2.491e+00 2.030e-02 2.186e-02 -2.648e-02
360 1 -3.543e+00 -3.537e+00 -2.491e+00 2.113e-02 -2.001e-02 -2.587e-02
361 1 3.539e+00 3.545e+00 -2.490e+00 6.383e-03 -2.152e-03 6.929e-03
362 1 1.776e+00 -3.534e+00 -4.258e+00 6.256e-03 -1.947e-03 6.905e-03
363 1 3.538e+00 -1.770e+00 -4.256e+00 8.435e-03 2.545e-03 7.751e-03
364 1 -1.778e+00 -3.536e+00 -4.257e+00 1.991e-02 1.743e-02 2.487e-02
365 1 3.537e+00 1.780e+00 -4.259e+00 7.488e-03 -3.830e-04 6.973e-03
366 1 -3.541e+00 1.781e+00 -4.256e+00 1.849e-02 3.384e-02 -1.397e-02
367 1 -1.777e+00 3.542e+00 -4.254e+00 1.746e-02 -1.896e-02 2.839e-02
368 1 -3.539e+00 -1.771e+00 -4.258e+00 1.889e-02 -3.252e-02 -1.370e-02
369 1 1.774e+00 3.543e+00 -4.257e+00 5.753e-03 3.098e-03 6.764e-03
370 1 -1.173e-03 3.621e+00 4.661e+00 4.720e-03 -7.579e-02 -7.371e-02
371 1 -3.616e+00 3.973e-03 4.662e+00 8.542e-02 9.081e-04 -9.445e-02
372 1 3.613e+00 5.266e-03 4.660e+00 -5.587e-02 -2.790e-03 -5.183e-02
373 1 2.320e-04 -3.610e+00 4.661e+00 4.620e-03 7.342e-02 -7.124e-02
374 1 5.300e+00 -1.762e+00 1.049e+00 -1.844e-02 7.784e-03 1.448e-03
375 1 1.768e+00 -5.293e+00 1.048e+00 9.868e-03 -2.888e-03 1.996e-02
376 1 1.768e+00 5.302e+00 1.046e+00 1.081e-02 3.249e-03 2.033e-02
377 1 -5.299e+00 -1.763e+00 1.048e+00 -1.069e-02 -2.245e-02 3.615e-02
378 1 -1.768e+00 5.304e+00 1.049e+00 1.062e-02 1.336e-03 9.112e-03
379 1 -5.300e+00 1.773e+00 1.050e+00 -1.138e-02 2.457e-02 3.514e-02
380 1 5.297e+00 1.774e+00 1.047e+00 -1.852e-02 -7.401e-03 1.472e-03
381 1 -1.768e+00 -5.292e+00 1.047e+00 1.171e-02 -5.388e-04 1.155e-02
382 1 2.527e-04 -5.271e+00 -7.246e-01 1.552e-02 -4.013e-04 1.513e-02
383 1 5.273e+00 3.780e-03 -7.236e-01 -1.406e-03 -3.332e-04 1.586e-02
384 1 -5.278e+00 5.242e-03 -7.228e-01 2.705e-02 5.314e-05 1.433e-02
385 1 4.087e-05 5.280e+00 -7.257e-01 1.427e-02 4.230e-04 1.379e-02
386 1 -5.277e+00 4.473e-03 2.820e+00 -9.307e-02 -4.788e-04 8.164e-02
387 1 -8.936e-04 5.281e+00 2.820e+00 4.317e-03 2.184e-02 1.224e-02
388 1 -3.094e-03 -5.272e+00 2.819e+00 6.835e-03 -2.016e-02 9.940e-03
389 1 5.273e+00 5.398e-03 2.822e+00 8.188e-03 1.916e-04 -5.529e-03
390 1 -1.794e+00 1.795e+00 4.601e+00 3.594e-02 -2.365e-02 -9.849e-03
391 1 1.790e+00 -1.785e+00 4.599e+00 -1.239e-02 1.388e-02 -8.140e-03
392 1 1.790e+00 1.800e+00 4.601e+00 -1.162e-02 -1.320e-02 -9.305e-03
393 1 -1.793e+00 -1.786e+00 4.602e+00 3.530e-02 2.221e-02 -1.097e-02
394 1 3.519e+00 -3.516e+00 1.049e+00 2.775e-02 -1.844e-02 1.704e-02
395 1 -3.521e+00 3.525e+00 1.047e+00 -9.011e-04 4.212e-02 5.163e-02
396 1 3.517e+00 3.525e+00 1.047e+00 2.741e-02 1.911e-02 1.784e-02
397 1 -3.524e+00 -3.514e+00 1.047e+00 -3.158e-05 -4.118e-02 5.199e-02
398 1 -1.190e-03 6.836e-03 4.542e+00 1.689e-02 -3.816e-04 2.723e-02
399 1 -3.563e+00 1.811e+00 2.812e+00 3.955e-02 -1.101e-03 4.032e-02
400 1 -1.810e+00 3.568e+00 2.812e+00 5.129e-02 -4.207e-02 -7.146e-04
401 1 -3.564e+00 -1.804e+00 2.811e+00 4.199e-02 2.104e-03 4.066e-02
402 1 1.808e+00 3.569e+00 2.811e+00 -2.510e-02 -1.946e-02 2.083e-02
403 1 1.805e+00 -3.557e+00 2.813e+00 -2.620e-02 2.039e-02 1.782e-02
404 1 3.561e+00 -1.801e+00 2.813e+00 -1.405e-02 3.201e-02 1.986e-02
405 1 -1.809e+00 -3.558e+00 2.814e+00 5.027e-02 4.251e-02 -3.589e-04
406 1 3.560e+00 1.814e+00 2.812e+00 -1.429e-02 -3.284e-02 1.724e-02
407 1 1.764e+00 3.784e-03 -4.222e+00 8.914e-02 8.743e-05 -1.014e-01
408 1 -2.822e-03 -1.762e+00 -4.223e+00 7.435e-03 -3.990e-02 -4.881e-02
409 1 -1.513e-03 1.770e+00 -4.220e+00 7.666e-03 4.084e-02 -5.050e-02
410 1 -1.765e+00 4.735e-03 -4.223e+00 6.892e-03 1.206e-03 -3.817e-02
411 1 3.613e+00 4.278e-03 -2.565e+00 -1.017e-01 -1.432e-04 8.993e-02