ITEM: TIMESTEP
0
ITEM: NUMBER OF ATOMS
89
ITEM: BOX BOUNDS xy xz yz pp pp pp
                     0.00000000000000e+00 1.06200000000000e+01 0.00000000000000e+00
0.00000000000000e+00	1.06200000000000e+01	0.00000000000000e+00
0.00000000000000e+00	1.06200000000000e+01	0.00000000000000e+00
ITEM: ATOMS id type x y z DisplacementX DisplacementY DisplacementZ
1 1 -1.099e-03 4.987e-03 -5.984e+00 -1.615e-02 -6.456e-04 -1.862e-03
2 1 3.540e+00 -3.537e+00 -2.492e+00 -2.069e-02 -2.092e-02 -2.652e-02
3 1 -3.541e+00 3.547e+00 -2.491e+00 -8.126e-03 -1.274e-03 6.755e-03
4 1 -3.543e+00 -3.535e+00 -2.490e+00 -6.103e-03 2.675e-03 5.946e-03
5 1 3.540e+00 3.547e+00 -2.493e+00 -2.216e-02 2.178e-02 -2.614e-02
6 1 1.775e+00 -3.535e+00 -4.256e+00 -1.874e-02 1.874e-02 2.687e-02
7 1 3.538e+00 -1.770e+00 -4.257e+00 -1.848e-02 -3.217e-02 -1.456e-02
8 1 -1.777e+00 -3.533e+00 -4.256e+00 -8.425e-03 3.494e-05 7.902e-03
9 1 3.537e+00 1.781e+00 -4.257e+00 -1.863e-02 3.503e-02 -1.509e-02
10 1 -3.540e+00 1.779e+00 -4.256e+00 -8.803e-03 -1.235e-03 8.298e-03
11 1 -1.776e+00 3.543e+00 -4.255e+00 -7.573e-03 1.800e-03 4.626e-03
12 1 -3.542e+00 -1.771e+00 -4.257e+00 -1.026e-02 -3.069e-04 9.804e-03
13 1 1.774e+00 3.544e+00 -4.257e+00 -1.878e-02 -1.864e-02 2.579e-02
14 1 -1.486e-03 3.620e+00 4.661e+00 -5.230e-03 -7.614e-02 -7.304e-02
15 1 -3.616e+00 5.599e-03 4.661e+00 5.339e-02 1.255e-04 -5.213e-02
16 1 3.613e+00 6.204e-03 4.662e+00 -8.392e-02 -1.277e-03 -9.442e-02
17 1 -1.068e-03 -3.609e+00 4.662e+00 -7.005e-03 7.424e-02 -7.202e-02
18 1 5.298e+00 -1.763e+00 1.046e+00 1.015e-02 -2.489e-02 3.347e-02
19 1 1.766e+00 -5.293e+00 1.046e+00 -1.258e-02 -4.022e-04 1.095e-02
20 1 1.767e+00 5.302e+00 1.047e+00 -1.049e-02 -1.061e-03 1.043e-02
21 1 -5.300e+00 -1.763e+00 1.047e+00 1.659e-02 8.160e-03 2.651e-03
22 1 -1.769e+00 5.303e+00 1.047e+00 -1.019e-02 1.968e-03 2.276e-02
23 1 -5.299e+00 1.773e+00 1.049e+00 1.663e-02 -7.619e-03 3.103e-03
24 1 5.297e+00 1.774e+00 1.048e+00 9.444e-03 2.432e-02 3.415e-02
25 1 -1.770e+00 -5.293e+00 1.047e+00 -1.125e-02 -2.794e-03 2.081e-02
26 1 3.378e-04 -5.271e+00 -7.259e-01 -1.478e-02 -1.430e-03 1.520e-02
27 1 5.275e+00 4.614e-03 -7.259e-01 -2.725e-02 -1.247e-03 1.358e-02
28 1 -5.277e+00 3.490e-03 -7.239e-01 1.494e-03 -1.900e-03 1.473e-02
29 1 -1.893e-03 5.281e+00 -7.232e-01 -1.530e-02 -2.590e-04 1.369e-02
30 1 -5.276e+00 5.804e-03 2.820e+00 -7.036e-03 4.806e-04 -5.296e-03
31 1 -1.195e-03 5.282e+00 2.817e+00 -4.105e-03 2.111e-02 9.704e-03
32 1 -4.224e-03 -5.271e+00 2.821e+00 -5.114e-03 -2.364e-02 8.107e-03
33 1 5.274e+00 5.653e-03 2.821e+00 9.326e-02 2.675e-05 8.489e-02
34 1 -1.795e+00 1.796e+00 4.600e+00 1.232e-02 -1.524e-02 -6.086e-03
35 1 1.790e+00 -1.787e+00 4.601e+00 -3.424e-02 2.374e-02 -1.121e-02
36 1 1.791e+00 1.795e+00 4.600e+00 -3.591e-02 -2.593e-02 -9.343e-03
37 1 -1.792e+00 -1.786e+00 4.600e+00 1.370e-02 1.361e-02 -8.396e-03
38 1 3.521e+00 -3.514e+00 1.049e+00 -6.215e-04 -4.075e-02 5.040e-02
39 1 -3.521e+00 3.525e+00 1.046e+00 -2.787e-02 1.949e-02 1.843e-02
40 1 3.520e+00 3.526e+00 1.048e+00 -1.866e-04 4.190e-02 5.153e-02
41 1 -3.522e+00 -3.514e+00 1.049e+00 -2.656e-02 -1.883e-02 1.884e-02
42 1 -1.426e-03 7.374e-03 4.541e+00 -1.573e-02 -1.031e-04 2.445e-02
43 1 -3.562e+00 1.815e+00 2.813e+00 1.419e-02 -3.160e-02 1.816e-02
44 1 -1.811e+00 3.569e+00 2.813e+00 2.753e-02 -2.166e-02 1.958e-02
45 1 -3.565e+00 -1.802e+00 2.812e+00 1.268e-02 3.273e-02 1.733e-02
46 1 1.807e+00 3.568e+00 2.812e+00 -5.256e-02 -4.253e-02 -1.854e-03
47 1 1.806e+00 -3.558e+00 2.812e+00 -5.100e-02 4.293e-02 -1.302e-03
48 1 3.562e+00 -1.803e+00 2.812e+00 -4.242e-02 3.546e-04 3.919e-02
49 1 -1.808e+00 -3.556e+00 2.812e+00 2.511e-02 2.150e-02 2.122e-02
50 1 3.560e+00 1.811e+00 2.811e+00 -4.210e-02 4.205e-04 3.962e-02
51 1 1.765e+00 3.449e-03 -4.221e+00 -9.182e-03 3.997e-04 -3.806e-02
52 1 -9.147e-05 -1.759e+00 -4.222e+00 -9.351e-03 -4.178e-02 -4.864e-02
53 1 -8.053e-04 1.770e+00 -4.222e+00 -6.543e-03 4.249e-02 -4.944e-02
54 1 -1.766e+00 3.173e-03 -4.222e+00 -8.990e-02 9.195e-04 -1.013e-01
55 1 3.616e+00 2.946e-03 -2.566e+00 5.614e-02 -1.162e-03 -1.809e-01
56 1 -4.451e-04 -3.608e+00 -2.566e+00 -7.238e-03 5.159e-02 4.630e-02
57 1 -5.605e-04 3.616e+00 -2.562e+00 -7.873e-03 -4.969e-02 4.619e-02
58 1 -3.612e+00 6.106e-03 -2.564e+00 1.001e-01 7.231e-04 9.015e-02
59 1 -2.035e-03 8.370e-03 2.103e+00 -1.551e-01 -3.665e-03 -7.782e-01
60 1 -1.095e-03 -8.786e-04 -2.129e-04 7.044e-01 4.434e-03 -7.037e-01
61 1 1.807e+00 -3.558e+00 -7.152e-01 -5.232e-02 1.261e-02 6.541e-03
62 1 3.561e+00 -1.802e+00 -7.149e-01 1.053e-01 -2.262e-01 7.104e-03
63 1 -1.809e+00 -3.558e+00 -7.173e-01 -4.866e-02 -4.986e-02 6.251e-03
64 1 3.561e+00 1.812e+00 -7.156e-01 1.069e-01 2.265e-01 6.892e-03
65 1 -3.562e+00 1.812e+00 -7.165e-01 4.773e-02 -4.141e-02 8.432e-03
66 1 -1.807e+00 3.566e+00 -7.166e-01 -5.037e-02 5.415e-02 8.082e-03
67 1 -3.562e+00 -1.801e+00 -7.160e-01 4.878e-02 4.190e-02 7.327e-03
68 1 1.807e+00 3.565e+00 -7.167e-01 -5.092e-02 -9.663e-03 6.571e-03
69 1 -1.967e-03 -2.030e+00 -8.649e-01 -1.571e-01 2.995e-03 1.544e-01
70 1 2.031e+00 3.627e-03 -8.670e-01 7.745e-01 -6.982e-04 1.504e-01
71 1 -2.032e+00 5.940e-03 -8.637e-01 2.942e-01 2.171e-03 1.552e-01
72 1 2.334e-04 2.032e+00 -8.631e-01 -1.570e-01 6.821e-03 1.526e-01
73 1 -2.037e+00 6.454e-03 2.962e+00 1.778e-01 1.488e-03 -5.723e-02
74 1 5.116e-05 2.040e+00 2.964e+00 -8.245e-03 -2.273e-01 -1.082e-01
75 1 -3.007e-03 -2.027e+00 2.961e+00 -7.547e-03 2.238e-01 -1.066e-01
76 1 2.031e+00 5.425e-03 2.962e+00 -2.758e-01 7.702e-04 -1.189e-01
77 1 1.997e-04 3.557e+00 1.049e+00 -8.846e-03 1.239e-02 5.027e-02
78 1 -3.553e+00 3.839e-03 1.048e+00 3.820e-02 2.401e-03 9.434e-03
79 1 3.550e+00 4.491e-03 1.046e+00 1.186e-01 6.862e-04 2.728e-01
80 1 -1.060e-03 -3.546e+00 1.050e+00 -7.939e-03 -1.074e-02 5.077e-02
81 1 1.789e+00 -1.788e+00 -2.504e+00 -3.540e-02 1.186e-01 1.191e-01
82 1 -1.793e+00 -1.787e+00 -2.503e+00 -3.511e-03 1.646e-03 3.049e-03
83 1 1.793e+00 1.795e+00 -2.504e+00 -3.349e-02 -1.165e-01 1.195e-01
84 1 -1.793e+00 1.796e+00 -2.503e+00 -1.995e-03 9.557e-04 2.000e-03
85 1 -2.502e-04 5.458e-03 -2.443e+00 -1.548e-01 -1.165e-04 -2.963e-01
86 1 1.671e+00 -1.671e+00 1.051e+00 8.131e-02 -1.432e-04 -8.484e-02
87 1 -1.674e+00 1.677e+00 1.051e+00 -1.229e-01 1.203e-01 3.336e-02
88 1 1.672e+00 1.676e+00 1.049e+00 8.170e-02 8.831e-05 -8.520e-02
89 1 -1.676e+00 -1.669e+00 1.049e+00 -1.227e-01 -1.195e-01 3.132e-02
ITEM: TIMESTEP
0
ITEM: NUMBER OF ATOMS
89
ITEM: BOX BOUNDS xy xz yz pp pp pp
                     0.00000000000000e+00 1.06200000000000e+01 0.00000000000000e+00
0.00000000000000e+00	1.06200000000000e+01	0.00000000000000e+00
0.00000000000000e+00	1.06200000000000e+01	0.00000000000000e+00
ITEM: ATOMS id type x y z DisplacementX DisplacementY DisplacementZ
90 1 -1.293e-03 4.552e-03 -5.985e+00 6.361e-05 -6.136e-04 -7.288e-03
91 1 3.538e+00 -3.536e+00 -2.490e+00 3.374e-05 1.303e-03 -2.245e-03
92 1 -3.542e+00 3.546e+00 -2.491e+00 8.751e-04 -1.112e-03 -2.693e-03
93 1 -3.544e+00 -3.537e+00 -2.491e+00 -3.574e-04 8.992e-04 -3.167e-03
94 1 3.541e+00 3.546e+00 -2.493e+00 -1.801e-03 -8.823e-04 -3.394e-03
95 1 1.773e+00 -3.535e+00 -4.257e+00 4.111e-03 6.625e-03 4.382e-03
96 1 3.538e+00 -1.772e+00 -4.258e+00 -6.100e-04 1.377e-02 5.682e-03
97 1 -1.778e+00 -3.534e+00 -4.258e+00 -2.465e-03 3.789e-03 3.475e-03
98 1 3.539e+00 1.780e+00 -4.258e+00 -1.057e-03 -1.333e-02 6.920e-03
99 1 -3.542e+00 1.781e+00 -4.256e+00 1.583e-03 -1.283e-02 7.074e-03
100 1 -1.776e+00 3.543e+00 -4.256e+00 -1.056e-03 -3.001e-03 1.639e-03
101 1 -3.540e+00 -1.768e+00 -4.258e+00 -3.193e-04 1.368e-02 6.168e-03
102 1 1.772e+00 3.544e+00 -4.257e+00 2.288e-03 -6.252e-03 6.094e-04
103 1 -8.204e-04 3.620e+00 4.661e+00 2.337e-04 -3.301e-03 -2.803e-04
104 1 -3.616e+00 6.505e-03 4.661e+00 9.290e-02 9.565e-04 -9.325e-02
105 1 3.612e+00 5.762e-03 4.662e+00 -9.511e-02 -1.319e-03 -9.290e-02
106 1 -1.976e-03 -3.608e+00 4.662e+00 7.155e-04 2.508e-03 -4.139e-04
107 1 5.297e+00 -1.761e+00 1.048e+00 -2.370e-02 -3.743e-03 -1.059e-03
108 1 1.767e+00 -5.294e+00 1.048e+00 -1.350e-03 2.728e-02 -5.142e-04
109 1 1.765e+00 5.303e+00 1.049e+00 -2.980e-03 -2.826e-02 -2.478e-04
110 1 -5.299e+00 -1.763e+00 1.049e+00 2.253e-02 -7.059e-03 -1.523e-04
111 1 -1.768e+00 5.303e+00 1.047e+00 3.469e-03 -2.766e-02 -1.095e-03
112 1 -5.299e+00 1.774e+00 1.048e+00 2.350e-02 6.801e-03 7.788e-04
113 1 5.298e+00 1.772e+00 1.047e+00 -2.308e-02 4.826e-03 -1.310e-03
114 1 -1.767e+00 -5.292e+00 1.046e+00 2.205e-03 2.945e-02 7.849e-05
115 1 -3.110e-03 -5.270e+00 -7.230e-01 -1.150e-03 6.331e-03 6.396e-03
116 1 5.275e+00 5.436e-03 -7.229e-01 2.086e-02 8.246e-04 3.652e-03
117 1 -5.278e+00 4.506e-03 -7.243e-01 -2.096e-02 1.419e-03 3.692e-03
118 1 -6.783e-04 5.279e+00 -7.246e-01 -4.646e-04 -6.363e-03 6.961e-03
119 1 -5.278e+00 4.726e-03 2.820e+00 -2.276e-02 9.409e-04 -3.494e-03
120 1 -1.261e-03 5.279e+00 2.821e+00 4.705e-04 -6.839e-03 -7.808e-03
121 1 -1.471e-03 -5.271e+00 2.822e+00 8.506e-04 4.732e-03 -7.834e-03
122 1 5.274e+00 4.464e-03 2.821e+00 2.205e-02 7.956e-04 -4.895e-03
123 1 -1.794e+00 1.797e+00 4.600e+00 -1.583e-02 -2.930e-02 9.915e-03
124 1 1.788e+00 -1.786e+00 4.601e+00 1.855e-02 2.643e-02 8.749e-03
125 1 1.790e+00 1.796e+00 4.599e+00 1.517e-02 -2.822e-02 8.697e-03
126 1 -1.792e+00 -1.787e+00 4.602e+00 -1.642e-02 2.719e-02 1.218e-02
127 1 3.519e+00 -3.515e+00 1.048e+00 9.326e-02 -9.259e-02 6.319e-04
128 1 -3.522e+00 3.526e+00 1.048e+00 -9.204e-02 9.104e-02 6.322e-04
129 1 3.519e+00 3.523e+00 1.047e+00 9.574e-02 9.292e-02 -7.906e-05
130 1 -3.523e+00 -3.516e+00 1.050e+00 -9.359e-02 -9.112e-02 -9.341e-04
131 1 -2.357e-03 5.776e-03 4.540e+00 -1.873e-04 -7.333e-04 5.588e-02
132 1 -3.564e+00 1.812e+00 2.813e+00 1.218e-03 -4.399e-02 4.219e-02
133 1 -1.809e+00 3.568e+00 2.812e+00 1.587e-02 -1.123e-02 2.752e-02
134 1 -3.564e+00 -1.802e+00 2.813e+00 1.288e-03 4.297e-02 4.390e-02
135 1 1.806e+00 3.568e+00 2.813e+00 -1.843e-02 -1.153e-02 2.641e-02
136 1 1.808e+00 -3.556e+00 2.810e+00 -1.742e-02 1.061e-02 2.728e-02
137 1 3.559e+00 -1.803e+00 2.813e+00 -2.200e-03 4.280e-02 4.430e-02
138 1 -1.809e+00 -3.557e+00 2.813e+00 1.437e-02 1.126e-02 2.868e-02
139 1 3.559e+00 1.816e+00 2.814e+00 1.947e-03 -4.333e-02 4.392e-02
140 1 1.762e+00 5.373e-03 -4.222e+00 2.734e-03 4.933e-04 -3.041e-02
141 1 4.800e-04 -1.759e+00 -4.221e+00 -2.827e-04 -6.401e-03 -7.418e-03
142 1 -1.382e-03 1.769e+00 -4.222e+00 -3.545e-04 9.286e-03 -7.384e-03
143 1 -1.766e+00 5.184e-03 -4.222e+00 -3.216e-03 -7.201e-04 -2.946e-02
144 1 3.611e+00 3.996e-03 -2.565e+00 -9.085e-02 -7.688e-04 9.021e-02
145 1 -2.776e-03 -3.610e+00 -2.566e+00 -1.950e-03 1.285e-03 -9.173e-04
146 1 -2.396e-03 3.617e+00 -2.563e+00 1.202e-03 1.238e-03 -4.906e-03
147 1 -3.616e+00 6.330e-03 -2.562e+00 9.169e-02 -5.424e-04 9.025e-02
148 1 -2.973e-03 1.037e-02 2.103e+00 6.272e-04 -1.053e+00 -1.054e+00
149 1 1.015e-03 -2.135e-05 -9.430e-04 3.672e-04 1.059e+00 1.046e+00
150 1 1.807e+00 -3.557e+00 -7.173e-01 -1.775e-02 1.070e-02 -2.799e-02
151 1 3.559e+00 -1.801e+00 -7.163e-01 -4.124e-04 4.319e-02 -4.306e-02
152 1 -1.810e+00 -3.559e+00 -7.154e-01 1.811e-02 1.089e-02 -2.839e-02
153 1 3.559e+00 1.813e+00 -7.157e-01 3.989e-04 -4.366e-02 -4.713e-02
154 1 -3.565e+00 1.813e+00 -7.170e-01 -2.673e-03 -4.454e-02 -4.376e-02
155 1 -1.809e+00 3.564e+00 -7.146e-01 1.430e-02 -1.049e-02 -2.888e-02
156 1 -3.561e+00 -1.802e+00 -7.160e-01 -5.870e-04 4.325e-02 -4.458e-02
157 1 1.804e+00 3.567e+00 -7.165e-01 -1.720e-02 -9.287e-03 -2.778e-02
158 1 -1.293e-03 -2.030e+00 -8.652e-01 -2.244e-04 1.250e-01 -1.201e-01
159 1 2.030e+00 6.128e-03 -8.648e-01 -3.586e-01 1.473e-03 2.386e-01
160 1 -2.032e+00 4.787e-03 -8.625e-01 3.557e-01 6.059e-05 2.364e-01
161 1 -1.209e-03 2.035e+00 -8.634e-01 -3.186e-04 -1.152e-01 -1.226e-01
162 1 -2.035e+00 4.139e-03 2.960e+00 3.606e-01 2.833e-04 -2.408e-01
163 1 -6.275e-05 2.041e+00 2.961e+00 3.048e-04 -1.258e-01 1.145e-01
164 1 -1.461e-03 -2.026e+00 2.958e+00 -1.814e-03 1.199e-01 1.215e-01
165 1 2.032e+00 5.102e-03 2.960e+00 -3.589e-01 -1.935e-03 -2.416e-01
166 1 -1.225e-03 3.555e+00 1.047e+00 -2.666e-03 -5.667e-02 2.378e-04
167 1 -3.551e+00 3.540e-03 1.047e+00 -6.032e-04 7.716e-04 -1.405e-03
168 1 3.550e+00 7.144e-03 1.048e+00 -1.626e-03 1.440e-04 -1.305e-03
169 1 -2.412e-03 -3.545e+00 1.049e+00 2.184e-04 5.767e-02 -3.266e-03
170 1 1.791e+00 -1.788e+00 -2.504e+00 1.662e-02 2.751e-02 -1.200e-02
171 1 -1.794e+00 -1.788e+00 -2.504e+00 -1.549e-02 2.761e-02 -1.116e-02
172 1 1.789e+00 1.795e+00 -2.505e+00 1.714e-02 -2.741e-02 -1.053e-02
173 1 -1.793e+00 1.796e+00 -2.505e+00 -1.514e-02 -2.623e-02 -1.062e-02
174 1 -1.927e-03 1.746e-03 -2.441e+00 -3.940e-04 3.674e-04 -6.045e-02
175 1 1.673e+00 -1.669e+00 1.050e+00 3.593e-01 -2.374e-01 -4.155e-03
176 1 -1.676e+00 1.678e+00 1.048e+00 -3.585e-01 2.397e-01 -5.949e-04
177 1 1.672e+00 1.678e+00 1.049e+00 3.577e-01 2.402e-01 -1.908e-03
178 1 -1.674e+00 -1.670e+00 1.049e+00 -3.603e-01 -2.380e-01 -7.107e-04
ITEM: TIMESTEP
0
ITEM: NUMBER OF ATOMS
89
ITEM: BOX BOUNDS xy xz yz pp pp pp
                     0.00000000000000e+00 1.06200000000000e+01 0.00000000000000e+00
0.00000000000000e+00	1.06200000000000e+01	0.00000000000000e+00
0.00000000000000e+00	1.06200000000000e+01	0.00000000000000e+00
ITEM: ATOMS id type x y z DisplacementX DisplacementY DisplacementZ
179 1 -1.005e-03 5.550e-03 -5.984e+00 1.314e-03 4.157e-04 -6.573e-03
180 1 3.539e+00 -3.537e+00 -2.492e+00 -3.060e-03 -5.857e-04 -8.293e-04
181 1 -3.543e+00 3.546e+00 -2.491e+00 2.493e-04 1.461e-03 -2.793e-03
182 1 -3.542e+00 -3.536e+00 -2.489e+00 1.287e-03 -9.358e-04 -2.171e-03
183 1 3.541e+00 3.546e+00 -2.490e+00 -3.472e-03 -1.062e-03 -2.669e-03
184 1 1.775e+00 -3.535e+00 -4.259e+00 -1.473e-02 1.845e-04 7.617e-03
185 1 3.539e+00 -1.772e+00 -4.256e+00 -2.627e-03 4.851e-04 5.195e-03
186 1 -1.777e+00 -3.535e+00 -4.257e+00 1.298e-02 -3.969e-05 7.185e-03
187 1 3.537e+00 1.779e+00 -4.257e+00 -4.902e-03 1.300e-03 4.537e-03
188 1 -3.540e+00 1.778e+00 -4.256e+00 3.262e-03 2.508e-03 2.589e-03
189 1 -1.776e+00 3.543e+00 -4.256e+00 1.262e-02 1.964e-03 5.095e-03
190 1 -3.540e+00 -1.772e+00 -4.257e+00 3.623e-03 -2.806e-03 2.880e-03
191 1 1.773e+00 3.541e+00 -4.256e+00 -1.383e-02 2.915e-04 7.248e-03
192 1 -1.235e-03 3.620e+00 4.664e+00 -3.059e-04 -9.423e-02 -9.470e-02
193 1 -3.615e+00 5.482e-03 4.663e+00 4.205e-03 -1.591e-04 -1.221e-03
194 1 3.613e+00 6.266e-03 4.662e+00 -2.690e-04 4.795e-04 7.737e-04
195 1 -1.235e-03 -3.608e+00 4.660e+00 -4.565e-05 9.468e-02 -9.102e-02
196 1 5.298e+00 -1.763e+00 1.048e+00 -2.785e-02 2.867e-03 -8.632e-04
197 1 1.765e+00 -5.294e+00 1.047e+00 5.261e-03 2.275e-02 -1.294e-03
198 1 1.766e+00 5.303e+00 1.046e+00 5.564e-03 -2.260e-02 -6.978e-04
199 1 -5.300e+00 -1.762e+00 1.049e+00 2.764e-02 2.579e-03 -1.818e-03
200 1 -1.769e+00 5.305e+00 1.048e+00 -4.878e-03 -2.355e-02 2.534e-04
201 1 -5.299e+00 1.771e+00 1.047e+00 2.800e-02 -3.134e-03 3.421e-04
202 1 5.296e+00 1.772e+00 1.047e+00 -2.792e-02 -3.647e-03 -9.107e-04
203 1 -1.770e+00 -5.295e+00 1.048e+00 -2.284e-03 2.384e-02 -3.939e-04
204 1 -1.522e-03 -5.272e+00 -7.239e-01 -7.473e-04 -2.085e-02 5.104e-03
205 1 5.274e+00 4.216e-03 -7.235e-01 -7.574e-03 -2.252e-03 6.878e-03
206 1 -5.277e+00 7.687e-03 -7.239e-01 7.068e-03 1.013e-03 5.715e-03
207 1 -3.585e-03 5.282e+00 -7.242e-01 -6.804e-04 2.245e-02 4.274e-03
208 1 -5.277e+00 5.416e-03 2.820e+00 8.077e-03 -8.288e-04 -6.724e-03
209 1 -1.033e-03 5.281e+00 2.820e+00 -5.158e-04 2.230e-02 -6.337e-03
210 1 -1.504e-03 -5.270e+00 2.819e+00 3.425e-04 -2.300e-02 -2.966e-03
211 1 5.274e+00 4.949e-03 2.821e+00 -6.531e-03 -9.504e-04 -7.231e-03
212 1 -1.794e+00 1.797e+00 4.598e+00 2.755e-02 1.551e-02 9.553e-03
213 1 1.790e+00 -1.787e+00 4.600e+00 -2.808e-02 -1.668e-02 9.254e-03
214 1 1.790e+00 1.799e+00 4.602e+00 -2.906e-02 1.637e-02 9.600e-03
215 1 -1.792e+00 -1.787e+00 4.601e+00 2.877e-02 -1.471e-02 7.852e-03
216 1 3.520e+00 -3.514e+00 1.049e+00 9.263e-02 -9.255e-02 -1.131e-04
217 1 -3.523e+00 3.525e+00 1.047e+00 -9.373e-02 9.307e-02 2.410e-03
218 1 3.520e+00 3.525e+00 1.049e+00 9.339e-02 9.267e-02 1.238e-03
219 1 -3.521e+00 -3.516e+00 1.048e+00 -9.144e-02 -9.328e-02 -4.606e-04
220 1 -2.019e-03 6.557e-03 4.540e+00 2.051e-04 4.370e-04 5.685e-02
221 1 -3.563e+00 1.814e+00 2.813e+00 8.520e-03 -1.844e-02 2.730e-02
222 1 -1.809e+00 3.566e+00 2.812e+00 4.567e-02 8.074e-05 4.392e-02
223 1 -3.563e+00 -1.803e+00 2.812e+00 1.226e-02 1.625e-02 2.704e-02
224 1 1.806e+00 3.569e+00 2.812e+00 -4.700e-02 -1.780e-03 4.357e-02
225 1 1.806e+00 -3.558e+00 2.811e+00 -4.376e-02 3.156e-04 4.355e-02
226 1 3.560e+00 -1.802e+00 2.813e+00 -1.148e-02 1.747e-02 2.711e-02
227 1 -1.809e+00 -3.558e+00 2.814e+00 4.352e-02 -1.880e-03 4.391e-02
228 1 3.562e+00 1.813e+00 2.812e+00 -1.158e-02 -1.628e-02 2.817e-02
229 1 1.762e+00 5.470e-03 -4.221e+00 6.947e-03 1.656e-03 -5.147e-03
230 1 -6.291e-04 -1.760e+00 -4.222e+00 3.915e-04 -1.644e-03 -2.779e-02
231 1 -2.761e-03 1.768e+00 -4.221e+00 -6.065e-04 3.414e-03 -3.009e-02
232 1 -1.767e+00 5.816e-03 -4.220e+00 -7.304e-03 9.396e-04 -7.808e-03
233 1 3.613e+00 4.185e-03 -2.565e+00 -3.670e-03 -1.026e-03 -5.434e-04
234 1 1.016e-03 -3.609e+00 -2.567e+00 -6.229e-04 9.487e-02 9.302e-02
235 1 -9.608e-04 3.618e+00 -2.564e+00 -1.817e-03 -9.086e-02 8.745e-02
236 1 -3.617e+00 3.686e-03 -2.564e+00 -3.574e-03 2.442e-03 -5.316e-03
237 1 -1.424e-03 7.638e-03 2.103e+00 1.052e+00 -4.159e-03 -1.055e+00
238 1 2.013e-03 1.410e-03 8.373e-04 -1.055e+00 4.494e-03 1.042e+00
239 1 1.808e+00 -3.558e+00 -7.158e-01 -4.222e-02 7.046e-04 -4.232e-02
240 1 3.562e+00 -1.803e+00 -7.162e-01 -9.569e-03 1.591e-02 -2.789e-02
241 1 -1.808e+00 -3.558e+00 -7.157e-01 4.454e-02 1.071e-03 -4.503e-02
242 1 3.561e+00 1.814e+00 -7.171e-01 -1.025e-02 -1.417e-02 -2.670e-02
243 1 -3.563e+00 1.811e+00 -7.151e-01 1.148e-02 -1.378e-02 -2.874e-02
244 1 -1.809e+00 3.566e+00 -7.174e-01 3.973e-02 4.049e-04 -4.394e-02
245 1 -3.563e+00 -1.801e+00 -7.160e-01 1.022e-02 1.525e-02 -2.727e-02
246 1 1.805e+00 3.566e+00 -7.154e-01 -4.261e-02 -4.705e-04 -4.302e-02
247 1 -7.610e-04 -2.030e+00 -8.676e-01 -1.506e-03 3.615e-01 2.379e-01
248 1 2.032e+00 4.955e-03 -8.628e-01 -1.215e-01 3.055e-04 -1.180e-01
249 1 -2.034e+00 4.307e-03 -8.650e-01 1.171e-01 7.594e-05 -1.267e-01
250 1 -2.150e-03 2.034e+00 -8.622e-01 2.249e-04 -3.550e-01 2.368e-01
251 1 -2.037e+00 3.460e-03 2.963e+00 1.226e-01 1.573e-03 1.148e-01
252 1 -2.912e-03 2.040e+00 2.964e+00 -9.146e-04 -3.639e-01 -2.427e-01
253 1 -1.678e-03 -2.025e+00 2.960e+00 -3.594e-04 3.596e-01 -2.407e-01
254 1 2.032e+00 5.499e-03 2.961e+00 -1.202e-01 1.409e-03 1.203e-01
255 1 -7.657e-04 3.555e+00 1.049e+00 1.163e-03 1.699e-03 1.509e-04
256 1 -3.553e+00 4.149e-03 1.048e+00 5.849e-02 6.644e-04 -5.370e-04
257 1 3.548e+00 5.537e-03 1.048e+00 -5.848e-02 -1.606e-03 1.085e-03
258 1 -1.699e-03 -3.544e+00 1.047e+00 2.403e-03 7.355e-04 -1.455e-04
259 1 1.790e+00 -1.790e+00 -2.505e+00 -2.840e-02 -1.476e-02 -1.121e-02
260 1 -1.794e+00 -1.787e+00 -2.506e+00 2.701e-02 -1.718e-02 -1.287e-02
261 1 1.789e+00 1.797e+00 -2.505e+00 -2.735e-02 1.597e-02 -1.272e-02
262 1 -1.791e+00 1.797e+00 -2.505e+00 2.778e-02 1.905e-02 -1.330e-02
263 1 -2.280e-03 2.702e-03 -2.442e+00 -1.212e-03 9.642e-04 -6.116e-02
264 1 1.674e+00 -1.669e+00 1.050e+00 2.385e-01 -3.577e-01 -3.405e-03
265 1 -1.675e+00 1.678e+00 1.051e+00 -2.414e-01 3.613e-01 2.246e-04
266 1 1.674e+00 1.679e+00 1.049e+00 2.383e-01 3.576e-01 -2.388e-03
267 1 -1.675e+00 -1.671e+00 1.049e+00 -2.400e-01 -3.589e-01 -1.201e-03
ITEM: TIMESTEP
0
ITEM: NUMBER OF ATOMS
89
ITEM: BOX BOUNDS xy xz yz pp pp pp
                     0.00000000000000e+00 1.06200000000000e+01 0.00000000000000e+00
0.00000000000000e+00	1.06200000000000e+01	0.00000000000000e+00
0.00000000000000e+00	1.06200000000000e+01	0.00000000000000e+00
ITEM: ATOMS id type x y z DisplacementX DisplacementY DisplacementZ
268 1 -6.559e-04 5.873e-03 -5.985e+00 1.294e-04 2.944e-04 -6.626e-03
269 1 3.540e+00 -3.536e+00 -2.491e+00 -2.738e-03 1.031e-03 -4.330e-03
270 1 -3.540e+00 3.547e+00 -2.491e+00 2.130e-03 2.429e-03 -2.254e-03
271 1 -3.543e+00 -3.536e+00 -2.492e+00 2.116e-03 -7.172e-04 -3.881e-03
272 1 3.540e+00 3.547e+00 -2.490e+00 -3.482e-03 1.309e-03 -2.850e-03
273 1 1.774e+00 -3.535e+00 -4.258e+00 -1.409e-02 6.553e-04 5.565e-03
274 1 3.538e+00 -1.770e+00 -4.254e+00 -2.820e-03 -2.861e-03 4.326e-03
275 1 -1.775e+00 -3.533e+00 -4.257e+00 1.146e-02 -8.939e-04 5.938e-03
276 1 3.538e+00 1.782e+00 -4.258e+00 -3.096e-03 5.193e-03 2.971e-03
277 1 -3.541e+00 1.779e+00 -4.256e+00 3.059e-03 2.480e-03 2.289e-03
278 1 -1.776e+00 3.546e+00 -4.257e+00 1.377e-02 1.690e-03 7.032e-03
279 1 -3.540e+00 -1.771e+00 -4.257e+00 3.246e-03 -2.465e-03 4.025e-03
280 1 1.774e+00 3.543e+00 -4.255e+00 -1.224e-02 -8.234e-05 4.470e-03
281 1 -1.197e-03 3.621e+00 4.661e+00 -1.207e-03 -9.361e-02 -9.419e-02
282 1 -3.615e+00 6.324e-03 4.661e+00 2.423e-03 -2.000e-03 -3.004e-04
283 1 3.613e+00 5.757e-03 4.660e+00 -3.166e-03 -3.305e-04 8.445e-04
284 1 -4.580e-04 -3.609e+00 4.663e+00 8.675e-04 9.118e-02 -9.267e-02
285 1 5.297e+00 -1.764e+00 1.048e+00 -2.762e-02 4.460e-03 -1.522e-03
286 1 1.766e+00 -5.292e+00 1.047e+00 4.866e-03 2.119e-02 -2.055e-04
287 1 1.765e+00 5.304e+00 1.046e+00 3.564e-03 -2.025e-02 5.890e-04
288 1 -5.300e+00 -1.763e+00 1.047e+00 2.974e-02 3.282e-03 7.036e-04
289 1 -1.768e+00 5.302e+00 1.045e+00 -4.835e-03 -2.338e-02 5.971e-04
290 1 -5.299e+00 1.772e+00 1.047e+00 2.843e-02 -1.523e-03 -4.716e-04
291 1 5.297e+00 1.772e+00 1.047e+00 -2.835e-02 -2.597e-03 -9.158e-04
292 1 -1.767e+00 -5.293e+00 1.047e+00 -6.204e-03 2.119e-02 -1.687e-03
293 1 -8.654e-04 -5.270e+00 -7.235e-01 -1.497e-03 -2.243e-02 5.399e-03
294 1 5.276e+00 4.928e-03 -7.258e-01 -6.904e-03 -4.252e-04 8.154e-03
295 1 -5.276e+00 5.074e-03 -7.235e-01 6.621e-03 -8.583e-04 6.271e-03
296 1 -1.961e-03 5.279e+00 -7.240e-01 -1.956e-03 2.214e-02 4.700e-03
297 1 -5.278e+00 5.202e-03 2.820e+00 5.970e-03 -5.303e-04 -7.152e-03
298 1 -3.488e-04 5.280e+00 2.820e+00 4.952e-04 2.413e-02 -4.391e-03
299 1 -1.786e-03 -5.272e+00 2.820e+00 -6.715e-04 -2.257e-02 -4.905e-03
300 1 5.275e+00 5.367e-03 2.820e+00 -5.628e-03 8.641e-04 -7.627e-03
301 1 -1.792e+00 1.797e+00 4.599e+00 2.761e-02 1.425e-02 9.014e-03
302 1 1.791e+00 -1.785e+00 4.602e+00 -2.777e-02 -1.485e-02 8.653e-03
303 1 1.792e+00 1.797e+00 4.603e+00 -2.823e-02 1.353e-02 9.907e-03
304 1 -1.794e+00 -1.786e+00 4.600e+00 2.872e-02 -1.600e-02 9.266e-03
305 1 3.519e+00 -3.514e+00 1.048e+00 8.993e-02 -9.170e-02 -1.478e-04
306 1 -3.523e+00 3.527e+00 1.046e+00 -9.093e-02 9.461e-02 9.468e-04
307 1 3.519e+00 3.525e+00 1.047e+00 9.109e-02 9.341e-02 7.220e-05
308 1 -3.521e+00 -3.516e+00 1.048e+00 -9.260e-02 -9.527e-02 -4.480e-04
309 1 -1.517e-03 6.249e-03 4.542e+00 -1.643e-03 3.329e-04 5.778e-02
310 1 -3.564e+00 1.812e+00 2.813e+00 1.257e-02 -1.551e-02 2.648e-02
311 1 -1.808e+00 3.567e+00 2.812e+00 4.568e-02 1.796e-05 4.434e-02
312 1 -3.566e+00 -1.802e+00 2.812e+00 1.255e-02 1.753e-02 2.677e-02
313 1 1.804e+00 3.568e+00 2.811e+00 -4.315e-02 4.610e-04 4.502e-02
314 1 1.805e+00 -3.558e+00 2.813e+00 -4.486e-02 -9.280e-04 4.200e-02
315 1 3.561e+00 -1.804e+00 2.812e+00 -1.342e-02 1.664e-02 2.663e-02
316 1 -1.808e+00 -3.558e+00 2.814e+00 4.513e-02 -4.980e-04 4.212e-02
317 1 3.561e+00 1.812e+00 2.813e+00 -1.079e-02 -1.691e-02 2.686e-02
318 1 1.762e+00 4.073e-03 -4.222e+00 6.843e-03 1.388e-03 -7.703e-03
319 1 -2.053e-03 -1.761e+00 -4.221e+00 -1.278e-03 -3.194e-03 -2.886e-02
320 1 1.589e-04 1.769e+00 -4.221e+00 -2.146e-03 3.981e-03 -2.994e-02
321 1 -1.766e+00 4.786e-03 -4.221e+00 -7.235e-03 1.575e-03 -9.154e-03
322 1 3.611e+00 4.850e-03 -2.564e+00 -8.460e-04 -1.508e-03 -1.922e-03
323 1 -1.831e-03 -3.609e+00 -2.564e+00 -1.065e-03 9.374e-02 9.150e-02
324 1 -7.037e-04 3.617e+00 -2.563e+00 -8.156e-04 -9.139e-02 9.031e-02
325 1 -3.614e+00 5.223e-03 -2.565e+00 3.259e-05 2.119e-03 -3.414e-03
326 1 -3.824e-04 8.169e-03 2.105e+00 -1.049e+00 -2.856e-03 -1.057e+00
327 1 -4.256e-04 -9.130e-05 -9.502e-04 1.050e+00 5.707e-03 1.049e+00
328 1 1.808e+00 -3.559e+00 -7.161e-01 -4.420e-02 -1.488e-03 -4.320e-02
329 1 3.562e+00 -1.801e+00 -7.152e-01 -8.960e-03 1.609e-02 -2.931e-02
330 1 -1.808e+00 -3.555e+00 -7.150e-01 4.253e-02 5.169e-04 -4.500e-02
331 1 3.562e+00 1.812e+00 -7.170e-01 -1.005e-02 -1.524e-02 -2.662e-02
332 1 -3.564e+00 1.812e+00 -7.162e-01 9.891e-03 -1.481e-02 -2.739e-02
333 1 -1.808e+00 3.567e+00 -7.156e-01 4.217e-02 3.920e-04 -4.478e-02
334 1 -3.561e+00 -1.802e+00 -7.159e-01 8.987e-03 1.840e-02 -2.712e-02
335 1 1.804e+00 3.565e+00 -7.163e-01 -4.303e-02 2.879e-03 -4.346e-02
336 1 -6.010e-04 -2.030e+00 -8.654e-01 5.161e-04 3.621e-01 2.380e-01
337 1 2.032e+00 6.027e-03 -8.638e-01 -1.211e-01 -2.144e-04 -1.233e-01
338 1 -2.033e+00 4.814e-03 -8.622e-01 1.174e-01 -7.151e-04 -1.205e-01
339 1 3.049e-04 2.031e+00 -8.639e-01 8.621e-04 -3.547e-01 2.374e-01
340 1 -2.036e+00 4.066e-03 2.960e+00 1.216e-01 1.484e-03 1.179e-01
341 1 -1.701e-04 2.042e+00 2.962e+00 -9.734e-04 -3.617e-01 -2.412e-01
342 1 -1.350e-03 -2.027e+00 2.960e+00 2.270e-03 3.578e-01 -2.402e-01
343 1 2.033e+00 7.061e-03 2.963e+00 -1.209e-01 -9.435e-04 1.218e-01
344 1 -2.102e-04 3.556e+00 1.049e+00 -4.121e-05 5.328e-04 3.837e-04
345 1 -3.553e+00 3.881e-03 1.049e+00 5.990e-02 3.401e-04 -7.230e-04
346 1 3.551e+00 3.192e-03 1.049e+00 -5.826e-02 8.383e-04 -1.239e-03
347 1 -1.069e-04 -3.545e+00 1.048e+00 -4.676e-04 1.442e-03 6.050e-04
348 1 1.790e+00 -1.787e+00 -2.504e+00 -2.774e-02 -1.527e-02 -1.274e-02
349 1 -1.793e+00 -1.789e+00 -2.505e+00 2.646e-02 -1.651e-02 -1.106e-02
350 1 1.790e+00 1.797e+00 -2.504e+00 -2.926e-02 1.783e-02 -1.163e-02
351 1 -1.791e+00 1.794e+00 -2.506e+00 2.714e-02 1.698e-02 -1.057e-02
352 1 -1.010e-04 4.120e-03 -2.444e+00 -1.545e-03 1.971e-03 -6.221e-02
353 1 1.673e+00 -1.670e+00 1.049e+00 2.379e-01 -3.589e-01 -1.394e-03
354 1 -1.673e+00 1.679e+00 1.051e+00 -2.391e-01 3.608e-01 -9.553e-04
355 1 1.673e+00 1.679e+00 1.049e+00 2.368e-01 3.575e-01 -2.957e-03
356 1 -1.675e+00 -1.667e+00 1.048e+00 -2.406e-01 -3.580e-01 -1.285e-03
ITEM: TIMESTEP
0
ITEM: NUMBER OF ATOMS
89
ITEM: BOX BOUNDS xy xz yz pp pp pp
                     0.00000000000000e+00 1.06200000000000e+01 0.00000000000000e+00
0.00000000000000e+00	1.06200000000000e+01	0.00000000000000e+00
0.00000000000000e+00	1.06200000000000e+01	0.00000000000000e+00
ITEM: ATOMS id type x y z DisplacementX DisplacementY DisplacementZ
357 1 -2.839e-04 6.313e-03 -5.985e+00 1.659e-02 1.139e-03 -2.435e-03
358 1 3.539e+00 -3.536e+00 -2.491e+00 6.340e-03 3.001e-03 5.806e-03
359 1 -3.541e+00 3.545e+00 -2.490e+00 2.057e-02 2.143e-02 -2.658e-02
360 1 -3.544e+00 -3.536e+00 -2.491e+00 2.061e-02 -2.225e-02 -2.559e-02
361 1 3.540e+00 3.546e+00 -2.493e+00 7.144e-03 -2.769e-03 4.652e-03
362 1 1.774e+00 -3.536e+00 -4.256e+00 7.020e-03 -2.810e-03 6.848e-03
363 1 3.538e+00 -1.768e+00 -4.255e+00 8.630e-03 6.192e-04 1.042e-02
364 1 -1.776e+00 -3.532e+00 -4.258e+00 1.750e-02 1.805e-02 2.943e-02
365 1 3.538e+00 1.782e+00 -4.258e+00 8.537e-03 1.785e-03 7.874e-03
366 1 -3.543e+00 1.780e+00 -4.257e+00 1.821e-02 3.468e-02 -1.592e-02
367 1 -1.775e+00 3.543e+00 -4.255e+00 1.710e-02 -1.800e-02 2.666e-02
368 1 -3.542e+00 -1.771e+00 -4.259e+00 2.027e-02 -3.105e-02 -1.695e-02
369 1 1.774e+00 3.544e+00 -4.257e+00 6.049e-03 4.481e-03 4.909e-03
370 1 -8.766e-04 3.620e+00 4.661e+00 5.759e-03 -7.495e-02 -7.253e-02
371 1 -3.616e+00 6.047e-03 4.662e+00 8.609e-02 4.025e-04 -9.503e-02
372 1 3.612e+00 4.782e-03 4.662e+00 -5.198e-02 -3.217e-04 -5.191e-02
373 1 -9.872e-04 -3.609e+00 4.661e+00 5.718e-03 7.243e-02 -7.114e-02
374 1 5.298e+00 -1.762e+00 1.049e+00 -1.807e-02 7.516e-03 1.074e-03
375 1 1.768e+00 -5.295e+00 1.046e+00 1.139e-02 -2.168e-03 2.182e-02
376 1 1.764e+00 5.303e+00 1.045e+00 1.107e-02 2.875e-03 2.116e-02
377 1 -5.300e+00 -1.763e+00 1.049e+00 -8.635e-03 -2.244e-02 3.373e-02
378 1 -1.769e+00 5.303e+00 1.047e+00 1.063e-02 2.119e-04 1.217e-02
379 1 -5.301e+00 1.775e+00 1.048e+00 -8.864e-03 2.359e-02 3.369e-02
380 1 5.298e+00 1.773e+00 1.049e+00 -1.814e-02 -6.683e-03 2.299e-03
381 1 -1.768e+00 -5.295e+00 1.047e+00 1.280e-02 1.051e-03 1.024e-02
382 1 -2.751e-04 -5.271e+00 -7.241e-01 1.592e-02 -1.080e-04 1.586e-02
383 1 5.276e+00 4.601e-03 -7.241e-01 3.874e-04 -2.347e-04 1.716e-02
384 1 -5.277e+00 5.137e-03 -7.235e-01 2.729e-02 1.249e-03 1.489e-02
385 1 -1.267e-03 5.281e+00 -7.249e-01 1.572e-02 3.945e-05 1.645e-02
386 1 -5.277e+00 3.185e-03 2.820e+00 -9.138e-02 -1.637e-03 8.269e-02
387 1 -2.208e-03 5.281e+00 2.820e+00 4.490e-03 2.230e-02 1.174e-02
388 1 -3.096e-03 -5.272e+00 2.820e+00 4.727e-03 -2.127e-02 8.978e-03
389 1 5.275e+00 5.649e-03 2.821e+00 8.076e-03 -5.943e-04 -5.072e-03
390 1 -1.794e+00 1.796e+00 4.600e+00 3.529e-02 -2.513e-02 -1.105e-02
391 1 1.789e+00 -1.786e+00 4.600e+00 -1.201e-02 1.414e-02 -7.510e-03
392 1 1.792e+00 1.796e+00 4.601e+00 -1.381e-02 -1.404e-02 -7.939e-03
393 1 -1.795e+00 -1.787e+00 4.601e+00 3.737e-02 2.429e-02 -1.187e-02
394 1 3.521e+00 -3.515e+00 1.050e+00 2.736e-02 -1.955e-02 1.849e-02
395 1 -3.522e+00 3.524e+00 1.047e+00 -1.282e-04 4.355e-02 5.164e-02
396 1 3.518e+00 3.526e+00 1.048e+00 2.709e-02 1.878e-02 2.069e-02
397 1 -3.522e+00 -3.517e+00 1.048e+00 5.740e-05 -4.131e-02 5.049e-02
398 1 3.692e-04 5.314e-03 4.540e+00 1.483e-02 -6.828e-04 2.429e-02
399 1 -3.563e+00 1.812e+00 2.811e+00 4.185e-02 -1.841e-03 4.095e-02
400 1 -1.809e+00 3.567e+00 2.812e+00 5.241e-02 -4.192e-02 1.312e-03
401 1 -3.564e+00 -1.805e+00 2.811e+00 4.114e-02 8.889e-04 3.964e-02
402 1 1.807e+00 3.569e+00 2.812e+00 -2.737e-02 -2.140e-02 2.204e-02
403 1 1.807e+00 -3.558e+00 2.811e+00 -2.562e-02 2.076e-02 1.982e-02
404 1 3.560e+00 -1.803e+00 2.812e+00 -1.632e-02 3.217e-02 1.903e-02
405 1 -1.809e+00 -3.557e+00 2.813e+00 5.166e-02 3.993e-02 -5.664e-04
406 1 3.561e+00 1.814e+00 2.812e+00 -1.410e-02 -3.247e-02 1.803e-02
407 1 1.765e+00 4.714e-03 -4.221e+00 9.024e-02 2.099e-04 -9.991e-02
408 1 -3.039e-03 -1.761e+00 -4.220e+00 7.102e-03 -4.067e-02 -4.982e-02
409 1 -2.029e-03 1.769e+00 -4.221e+00 8.497e-03 4.283e-02 -4.927e-02
410 1 -1.765e+00 5.970e-03 -4.222e+00 7.221e-03 -9.431e-04 -3.766e-02
411 1 3.614e+00 4.819e-03 -2.567e+00 -1.019e-01 -8.715e-05 9.036e-02