ITEM: TIMESTEP
0
ITEM: NUMBER OF ATOMS
89
ITEM: BOX BOUNDS xy xz yz pp pp pp
                     0.00000000000000e+00 1.06200000000000e+01 0.00000000000000e+00
0.00000000000000e+00	1.06200000000000e+01	0.00000000000000e+00
0.00000000000000e+00	1.06200000000000e+01	0.00000000000000e+00
ITEM: ATOMS id type x y z DisplacementX DisplacementY DisplacementZ
1 1 -2.191e-03 4.079e-03 -5.985e+00 -1.768e-02 -1.386e-03 -3.838e-03
2 1 3.541e+00 -3.537e+00 -2.492e+00 -1.948e-02 -2.063e-02 -2.411e-02
3 1 -3.542e+00 3.546e+00 -2.492e+00 -8.078e-03 -1.157e-03 6.524e-03
4 1 -3.543e+00 -3.536e+00 -2.490e+00 -5.676e-03 1.759e-03 7.292e-03
5 1 3.541e+00 3.546e+00 -2.490e+00 -2.000e-02 1.955e-02 -2.668e-02
6 1 1.773e+00 -3.533e+00 -4.258e+00 -1.855e-02 1.992e-02 2.801e-02
7 1 3.538e+00 -1.772e+00 -4.256e+00 -1.755e-02 -3.304e-02 -1.566e-02
8 1 -1.778e+00 -3.534e+00 -4.256e+00 -6.281e-03 -2.532e-03 8.123e-03
9 1 3.538e+00 1.781e+00 -4.258e+00 -1.764e-02 3.257e-02 -1.730e-02
10 1 -3.540e+00 1.779e+00 -4.257e+00 -8.571e-03 -6.117e-04 8.316e-03
11 1 -1.777e+00 3.545e+00 -4.255e+00 -6.658e-03 2.889e-03 5.752e-03
12 1 -3.540e+00 -1.771e+00 -4.257e+00 -7.806e-03 1.213e-03 9.380e-03
13 1 1.774e+00 3.544e+00 -4.258e+00 -1.926e-02 -1.952e-02 2.748e-02
14 1 1.383e-03 3.620e+00 4.662e+00 -5.893e-03 -7.596e-02 -7.546e-02
15 1 -3.617e+00 4.547e-03 4.660e+00 5.423e-02 -2.545e-04 -5.180e-02
16 1 3.613e+00 6.159e-03 4.660e+00 -8.682e-02 -1.008e-03 -9.400e-02
17 1 -2.000e-03 -3.607e+00 4.660e+00 -5.638e-03 7.575e-02 -7.219e-02
18 1 5.297e+00 -1.763e+00 1.047e+00 8.740e-03 -2.427e-02 3.496e-02
19 1 1.766e+00 -5.294e+00 1.047e+00 -1.224e-02 -1.044e-03 1.048e-02
20 1 1.766e+00 5.303e+00 1.049e+00 -1.246e-02 -5.027e-04 1.243e-02
21 1 -5.302e+00 -1.762e+00 1.047e+00 1.590e-02 9.066e-03 3.677e-03
22 1 -1.770e+00 5.304e+00 1.046e+00 -9.883e-03 3.928e-03 2.265e-02
23 1 -5.300e+00 1.774e+00 1.046e+00 1.664e-02 -6.020e-03 4.570e-03
24 1 5.296e+00 1.772e+00 1.048e+00 1.097e-02 2.608e-02 3.452e-02
25 1 -1.771e+00 -5.292e+00 1.049e+00 -1.279e-02 -3.821e-03 2.077e-02
26 1 -1.002e-03 -5.270e+00 -7.262e-01 -1.586e-02 -1.260e-03 1.590e-02
27 1 5.274e+00 4.854e-03 -7.253e-01 -2.773e-02 1.546e-03 1.629e-02
28 1 -5.277e+00 5.514e-03 -7.235e-01 2.587e-03 -1.867e-04 1.548e-02
29 1 -1.019e-03 5.283e+00 -7.240e-01 -1.489e-02 1.862e-03 1.488e-02
30 1 -5.277e+00 5.678e-03 2.821e+00 -5.780e-03 2.941e-03 -5.025e-03
31 1 -1.060e-03 5.282e+00 2.820e+00 -5.750e-03 2.191e-02 1.053e-02
32 1 8.443e-04 -5.272e+00 2.820e+00 -5.145e-03 -2.194e-02 1.093e-02
33 1 5.276e+00 6.739e-03 2.820e+00 9.138e-02 -6.362e-04 8.315e-02
34 1 -1.795e+00 1.797e+00 4.600e+00 1.327e-02 -1.335e-02 -8.607e-03
35 1 1.791e+00 -1.786e+00 4.601e+00 -3.542e-02 2.399e-02 -1.035e-02
36 1 1.790e+00 1.798e+00 4.600e+00 -3.488e-02 -2.451e-02 -1.173e-02
37 1 -1.793e+00 -1.787e+00 4.600e+00 1.229e-02 1.379e-02 -9.389e-03
38 1 3.520e+00 -3.517e+00 1.048e+00 -1.738e-04 -4.305e-02 4.936e-02
39 1 -3.521e+00 3.525e+00 1.046e+00 -2.652e-02 1.914e-02 2.091e-02
40 1 3.519e+00 3.526e+00 1.048e+00 -4.200e-04 4.331e-02 5.140e-02
41 1 -3.522e+00 -3.516e+00 1.048e+00 -2.593e-02 -1.922e-02 1.993e-02
42 1 -7.522e-04 6.280e-03 4.540e+00 -1.592e-02 5.417e-04 2.615e-02
43 1 -3.563e+00 1.811e+00 2.811e+00 1.650e-02 -3.155e-02 1.922e-02
44 1 -1.809e+00 3.567e+00 2.811e+00 2.563e-02 -2.141e-02 2.258e-02
45 1 -3.563e+00 -1.803e+00 2.812e+00 1.436e-02 3.331e-02 1.961e-02
46 1 1.807e+00 3.568e+00 2.811e+00 -5.359e-02 -4.296e-02 7.037e-04
47 1 1.806e+00 -3.557e+00 2.810e+00 -4.938e-02 4.317e-02 -1.772e-03
48 1 3.561e+00 -1.801e+00 2.814e+00 -4.199e-02 2.300e-03 3.818e-02
49 1 -1.809e+00 -3.556e+00 2.812e+00 2.458e-02 2.097e-02 2.078e-02
50 1 3.560e+00 1.813e+00 2.812e+00 -4.192e-02 -1.158e-04 3.813e-02
51 1 1.764e+00 5.530e-03 -4.223e+00 -7.821e-03 1.182e-03 -3.839e-02
52 1 -1.175e-03 -1.760e+00 -4.223e+00 -7.881e-03 -3.875e-02 -4.657e-02
53 1 -1.686e-03 1.767e+00 -4.223e+00 -8.639e-03 4.386e-02 -4.891e-02
54 1 -1.765e+00 4.228e-03 -4.222e+00 -8.909e-02 -1.060e-03 -9.971e-02
55 1 3.612e+00 4.759e-03 -2.565e+00 5.445e-02 1.470e-03 -1.790e-01
56 1 -2.569e-03 -3.610e+00 -2.566e+00 -7.367e-03 5.388e-02 4.703e-02
57 1 -1.229e-03 3.619e+00 -2.564e+00 -7.835e-03 -5.121e-02 4.481e-02
58 1 -3.613e+00 5.500e-03 -2.563e+00 1.012e-01 7.964e-04 8.933e-02
59 1 -1.641e-03 9.426e-03 2.102e+00 -1.570e-01 -2.371e-03 -7.774e-01
60 1 2.372e-03 -5.017e-04 -2.144e-03 7.051e-01 5.421e-03 -7.040e-01
61 1 1.807e+00 -3.556e+00 -7.153e-01 -5.376e-02 1.306e-02 6.257e-03
62 1 3.561e+00 -1.803e+00 -7.170e-01 1.066e-01 -2.265e-01 7.709e-03
63 1 -1.810e+00 -3.559e+00 -7.154e-01 -4.761e-02 -5.108e-02 6.441e-03
64 1 3.562e+00 1.811e+00 -7.153e-01 1.039e-01 2.250e-01 6.488e-03
65 1 -3.563e+00 1.809e+00 -7.166e-01 4.732e-02 -3.943e-02 7.488e-03
66 1 -1.809e+00 3.564e+00 -7.160e-01 -4.895e-02 5.611e-02 7.025e-03
67 1 -3.563e+00 -1.804e+00 -7.158e-01 4.763e-02 4.313e-02 6.204e-03
68 1 1.806e+00 3.567e+00 -7.166e-01 -5.009e-02 -9.215e-03 6.509e-03
69 1 -2.038e-03 -2.031e+00 -8.657e-01 -1.559e-01 1.559e-03 1.558e-01
70 1 2.032e+00 5.260e-03 -8.645e-01 7.752e-01 -1.253e-03 1.515e-01
71 1 -2.033e+00 6.904e-03 -8.654e-01 2.959e-01 -1.245e-03 1.548e-01
72 1 -7.396e-04 2.033e+00 -8.623e-01 -1.559e-01 5.801e-03 1.549e-01
73 1 -2.036e+00 5.653e-03 2.961e+00 1.765e-01 -4.953e-05 -5.609e-02
74 1 -2.497e-03 2.042e+00 2.961e+00 -7.682e-03 -2.279e-01 -1.086e-01
75 1 -2.086e-03 -2.029e+00 2.961e+00 -6.770e-03 2.230e-01 -1.085e-01
76 1 2.033e+00 4.909e-03 2.960e+00 -2.779e-01 1.290e-03 -1.178e-01
77 1 -5.064e-04 3.554e+00 1.048e+00 -7.628e-03 1.410e-02 4.911e-02
78 1 -3.552e+00 5.780e-03 1.047e+00 3.776e-02 -5.019e-04 7.562e-03
79 1 3.551e+00 5.935e-03 1.047e+00 1.179e-01 8.175e-04 2.721e-01
80 1 -1.658e-03 -3.547e+00 1.048e+00 -7.450e-03 -1.145e-02 5.061e-02
81 1 1.789e+00 -1.789e+00 -2.503e+00 -3.300e-02 1.190e-01 1.222e-01
82 1 -1.794e+00 -1.787e+00 -2.504e+00 -2.955e-03 -1.114e-05 2.373e-03
83 1 1.790e+00 1.797e+00 -2.504e+00 -3.753e-02 -1.176e-01 1.213e-01
84 1 -1.793e+00 1.796e+00 -2.505e+00 -4.350e-03 1.087e-03 2.764e-03
85 1 9.933e-04 5.328e-03 -2.444e+00 -1.563e-01 1.295e-03 -2.959e-01
86 1 1.672e+00 -1.668e+00 1.050e+00 8.373e-02 -1.131e-05 -8.518e-02
87 1 -1.675e+00 1.677e+00 1.050e+00 -1.220e-01 1.201e-01 3.460e-02
88 1 1.673e+00 1.678e+00 1.049e+00 8.304e-02 2.186e-04 -8.523e-02
89 1 -1.674e+00 -1.668e+00 1.048e+00 -1.209e-01 -1.173e-01 3.400e-02
