ITEM: TIMESTEP
0
ITEM: NUMBER OF ATOMS
89
ITEM: BOX BOUNDS xy xz yz pp pp pp
                     0.00000000000000e+00 1.06200000000000e+01 0.00000000000000e+00
0.00000000000000e+00	1.06200000000000e+01	0.00000000000000e+00
0.00000000000000e+00	1.06200000000000e+01	0.00000000000000e+00
ITEM: ATOMS id type x y z DisplacementX DisplacementY DisplacementZ
1 1 -3.235e-04 6.468e-03 -5.984e+00 -1.559e-02 1.887e-03 -8.391e-04
2 1 3.541e+00 -3.538e+00 -2.492e+00 -2.084e-02 -2.042e-02 -2.528e-02
3 1 -3.542e+00 3.546e+00 -2.491e+00 -6.817e-03 -7.322e-04 5.413e-03
4 1 -3.544e+00 -3.536e+00 -2.490e+00 -6.322e-03 2.332e-03 7.616e-03
5 1 3.541e+00 3.546e+00 -2.490e+00 -2.011e-02 2.206e-02 -2.527e-02
6 1 1.773e+00 -3.535e+00 -4.257e+00 -1.944e-02 1.769e-02 2.767e-02
7 1 3.536e+00 -1.772e+00 -4.256e+00 -1.875e-02 -3.150e-02 -1.661e-02
8 1 -1.776e+00 -3.534e+00 -4.259e+00 -6.698e-03 -1.535e-03 6.485e-03
9 1 3.539e+00 1.780e+00 -4.257e+00 -1.871e-02 3.147e-02 -1.654e-02
10 1 -3.541e+00 1.780e+00 -4.255e+00 -7.498e-03 -2.013e-04 7.125e-03
11 1 -1.776e+00 3.543e+00 -4.258e+00 -6.081e-03 3.897e-03 5.563e-03
12 1 -3.542e+00 -1.768e+00 -4.258e+00 -9.238e-03 9.185e-04 8.560e-03
13 1 1.774e+00 3.545e+00 -4.257e+00 -2.020e-02 -1.644e-02 2.643e-02
14 1 -2.474e-03 3.622e+00 4.662e+00 -5.704e-03 -7.615e-02 -7.233e-02
15 1 -3.618e+00 4.635e-03 4.663e+00 5.325e-02 -1.877e-03 -5.315e-02
16 1 3.614e+00 5.862e-03 4.662e+00 -8.651e-02 -2.308e-04 -9.454e-02
17 1 -6.340e-04 -3.610e+00 4.660e+00 -5.771e-03 7.428e-02 -7.065e-02
18 1 5.297e+00 -1.763e+00 1.048e+00 9.707e-03 -2.330e-02 3.298e-02
19 1 1.766e+00 -5.295e+00 1.048e+00 -1.255e-02 -6.846e-04 1.082e-02
20 1 1.766e+00 5.303e+00 1.047e+00 -1.318e-02 1.908e-03 1.182e-02
21 1 -5.300e+00 -1.763e+00 1.048e+00 1.696e-02 6.465e-03 5.172e-03
22 1 -1.769e+00 5.303e+00 1.048e+00 -1.233e-02 4.299e-03 1.979e-02
23 1 -5.299e+00 1.771e+00 1.047e+00 1.483e-02 -6.425e-03 2.966e-03
24 1 5.299e+00 1.773e+00 1.047e+00 1.164e-02 2.450e-02 3.497e-02
25 1 -1.768e+00 -5.294e+00 1.050e+00 -1.071e-02 -1.860e-03 1.993e-02
26 1 -7.943e-04 -5.271e+00 -7.240e-01 -1.613e-02 1.377e-03 1.333e-02
27 1 5.274e+00 5.860e-03 -7.226e-01 -2.857e-02 3.361e-04 1.416e-02
28 1 -5.278e+00 3.575e-03 -7.234e-01 1.266e-03 2.456e-04 1.385e-02
29 1 -1.079e-04 5.281e+00 -7.243e-01 -1.752e-02 7.555e-04 1.474e-02
30 1 -5.278e+00 5.119e-03 2.820e+00 -6.984e-03 -9.393e-04 -5.571e-03
31 1 -2.017e-03 5.282e+00 2.821e+00 -7.288e-03 2.019e-02 1.103e-02
32 1 -6.175e-04 -5.271e+00 2.819e+00 -7.016e-03 -2.272e-02 1.036e-02
33 1 5.275e+00 5.225e-03 2.820e+00 9.232e-02 7.993e-04 8.346e-02
34 1 -1.792e+00 1.798e+00 4.601e+00 1.342e-02 -1.404e-02 -1.011e-02
35 1 1.788e+00 -1.788e+00 4.601e+00 -3.457e-02 2.435e-02 -1.116e-02
36 1 1.791e+00 1.797e+00 4.601e+00 -3.634e-02 -2.538e-02 -1.081e-02
37 1 -1.792e+00 -1.785e+00 4.599e+00 1.060e-02 1.532e-02 -8.797e-03
38 1 3.519e+00 -3.514e+00 1.050e+00 -7.258e-04 -4.269e-02 5.062e-02
39 1 -3.522e+00 3.524e+00 1.048e+00 -2.686e-02 1.898e-02 1.954e-02
40 1 3.520e+00 3.525e+00 1.047e+00 6.914e-04 4.171e-02 5.142e-02
41 1 -3.523e+00 -3.516e+00 1.048e+00 -2.700e-02 -1.787e-02 2.039e-02
42 1 -1.458e-03 5.935e-03 4.543e+00 -1.635e-02 -4.521e-04 2.698e-02
43 1 -3.562e+00 1.812e+00 2.813e+00 1.321e-02 -3.143e-02 1.646e-02
44 1 -1.808e+00 3.567e+00 2.815e+00 2.598e-02 -1.990e-02 1.963e-02
45 1 -3.564e+00 -1.804e+00 2.813e+00 1.478e-02 3.112e-02 1.703e-02
46 1 1.806e+00 3.568e+00 2.812e+00 -5.187e-02 -4.312e-02 -1.454e-03
47 1 1.806e+00 -3.557e+00 2.812e+00 -5.234e-02 4.254e-02 -1.434e-03
48 1 3.561e+00 -1.801e+00 2.813e+00 -4.383e-02 1.365e-03 3.919e-02
49 1 -1.809e+00 -3.556e+00 2.813e+00 2.613e-02 2.043e-02 2.065e-02
50 1 3.561e+00 1.811e+00 2.813e+00 -4.185e-02 -4.180e-04 3.901e-02
51 1 1.764e+00 4.433e-03 -4.221e+00 -1.039e-02 2.159e-05 -3.658e-02
52 1 -5.123e-04 -1.761e+00 -4.222e+00 -7.080e-03 -4.288e-02 -4.941e-02
53 1 -1.210e-03 1.771e+00 -4.221e+00 -8.453e-03 4.115e-02 -4.937e-02
54 1 -1.765e+00 3.989e-03 -4.223e+00 -9.000e-02 1.398e-03 -1.005e-01
55 1 3.612e+00 4.961e-03 -2.564e+00 5.537e-02 1.420e-03 -1.812e-01
56 1 -7.063e-04 -3.611e+00 -2.567e+00 -7.212e-03 5.149e-02 4.733e-02
57 1 2.984e-04 3.619e+00 -2.564e+00 -9.429e-03 -4.894e-02 4.434e-02
58 1 -3.615e+00 5.764e-03 -2.564e+00 9.997e-02 -8.461e-04 8.886e-02
59 1 -1.675e-03 9.960e-03 2.102e+00 -1.569e-01 -3.515e-03 -7.748e-01
60 1 8.632e-04 5.675e-04 2.426e-04 7.041e-01 5.515e-03 -7.051e-01
61 1 1.807e+00 -3.557e+00 -7.156e-01 -5.139e-02 1.277e-02 5.372e-03
62 1 3.562e+00 -1.801e+00 -7.147e-01 1.070e-01 -2.245e-01 7.097e-03
63 1 -1.810e+00 -3.558e+00 -7.173e-01 -4.710e-02 -5.172e-02 7.441e-03
64 1 3.560e+00 1.813e+00 -7.140e-01 1.060e-01 2.265e-01 6.218e-03
65 1 -3.563e+00 1.811e+00 -7.172e-01 4.640e-02 -4.017e-02 7.730e-03
66 1 -1.807e+00 3.565e+00 -7.160e-01 -4.982e-02 5.436e-02 5.517e-03
67 1 -3.562e+00 -1.802e+00 -7.178e-01 4.848e-02 4.391e-02 8.261e-03
68 1 1.804e+00 3.567e+00 -7.173e-01 -5.133e-02 -9.741e-03 4.994e-03
69 1 -1.537e-03 -2.031e+00 -8.648e-01 -1.595e-01 1.136e-03 1.572e-01
70 1 2.031e+00 5.045e-03 -8.649e-01 7.755e-01 -2.035e-03 1.516e-01
71 1 -2.034e+00 4.947e-03 -8.644e-01 2.971e-01 -1.013e-03 1.563e-01
72 1 -2.708e-03 2.034e+00 -8.614e-01 -1.568e-01 4.523e-03 1.525e-01
73 1 -2.036e+00 5.650e-03 2.960e+00 1.759e-01 8.377e-04 -5.570e-02
74 1 -2.572e-03 2.040e+00 2.962e+00 -7.668e-03 -2.273e-01 -1.100e-01
75 1 -6.741e-04 -2.029e+00 2.961e+00 -1.135e-02 2.228e-01 -1.080e-01
76 1 2.031e+00 4.039e-03 2.961e+00 -2.776e-01 -3.236e-04 -1.191e-01
77 1 -1.337e-03 3.556e+00 1.047e+00 -7.332e-03 1.226e-02 4.922e-02
78 1 -3.551e+00 4.577e-03 1.049e+00 3.726e-02 9.081e-05 8.794e-03
79 1 3.549e+00 4.420e-03 1.048e+00 1.142e-01 4.959e-04 2.741e-01
80 1 -7.522e-04 -3.546e+00 1.049e+00 -1.058e-02 -1.281e-02 5.014e-02
81 1 1.791e+00 -1.787e+00 -2.504e+00 -3.554e-02 1.185e-01 1.207e-01
82 1 -1.793e+00 -1.787e+00 -2.503e+00 -3.937e-03 -4.709e-04 -8.369e-04
83 1 1.792e+00 1.795e+00 -2.503e+00 -3.434e-02 -1.178e-01 1.203e-01
84 1 -1.792e+00 1.797e+00 -2.504e+00 -2.772e-03 1.972e-03 4.592e-03
85 1 -2.742e-03 3.786e-03 -2.443e+00 -1.562e-01 1.671e-03 -2.971e-01
86 1 1.673e+00 -1.669e+00 1.049e+00 8.262e-02 1.255e-04 -8.523e-02
87 1 -1.675e+00 1.677e+00 1.049e+00 -1.225e-01 1.194e-01 3.289e-02
88 1 1.672e+00 1.677e+00 1.049e+00 8.225e-02 -7.920e-04 -8.463e-02
89 1 -1.675e+00 -1.670e+00 1.050e+00 -1.202e-01 -1.166e-01 3.389e-02
ITEM: TIMESTEP
0
ITEM: NUMBER OF ATOMS
89
ITEM: BOX BOUNDS xy xz yz pp pp pp
                     0.00000000000000e+00 1.06200000000000e+01 0.00000000000000e+00
0.00000000000000e+00	1.06200000000000e+01	0.00000000000000e+00
0.00000000000000e+00	1.06200000000000e+01	0.00000000000000e+00
ITEM: ATOMS id type x y z DisplacementX DisplacementY DisplacementZ
90 1 -1.467e-03 5.801e-03 -5.984e+00 -6.030e-04 1.621e-03 -7.213e-03
91 1 3.540e+00 -3.536e+00 -2.491e+00 -6.522e-04 2.812e-03 -3.972e-03
92 1 -3.541e+00 3.545e+00 -2.492e+00 -2.475e-03 -3.105e-03 -3.206e-03
93 1 -3.542e+00 -3.536e+00 -2.491e+00 1.251e-03 3.197e-03 -2.422e-03
94 1 3.537e+00 3.547e+00 -2.491e+00 6.242e-04 -6.175e-04 -3.585e-03
95 1 1.774e+00 -3.534e+00 -4.258e+00 3.598e-03 6.075e-03 4.511e-03
96 1 3.538e+00 -1.770e+00 -4.258e+00 7.144e-04 1.215e-02 6.781e-03
97 1 -1.778e+00 -3.535e+00 -4.257e+00 -3.573e-03 4.253e-03 5.020e-03
98 1 3.537e+00 1.781e+00 -4.258e+00 2.567e-03 -1.377e-02 5.805e-03
99 1 -3.541e+00 1.778e+00 -4.257e+00 -6.399e-04 -1.296e-02 4.642e-03
100 1 -1.777e+00 3.545e+00 -4.255e+00 -9.692e-04 -3.186e-03 2.196e-03
101 1 -3.542e+00 -1.769e+00 -4.257e+00 -2.117e-04 1.224e-02 6.698e-03
102 1 1.774e+00 3.542e+00 -4.257e+00 1.153e-03 -3.904e-03 1.747e-03
103 1 -2.680e-03 3.622e+00 4.661e+00 -8.089e-04 -3.272e-03 -1.081e-03
104 1 -3.616e+00 5.185e-03 4.662e+00 9.236e-02 2.675e-04 -9.238e-02
105 1 3.612e+00 4.016e-03 4.662e+00 -9.343e-02 -4.956e-04 -9.333e-02
106 1 -6.207e-04 -3.611e+00 4.659e+00 1.720e-03 1.017e-03 2.511e-03
107 1 5.299e+00 -1.763e+00 1.048e+00 -2.342e-02 -5.001e-03 -6.030e-04
108 1 1.764e+00 -5.294e+00 1.048e+00 -2.786e-03 2.818e-02 -6.568e-04
109 1 1.767e+00 5.302e+00 1.046e+00 -2.033e-03 -2.730e-02 -5.268e-04
110 1 -5.299e+00 -1.763e+00 1.046e+00 2.234e-02 -6.417e-03 -3.418e-04
111 1 -1.769e+00 5.302e+00 1.047e+00 4.589e-03 -2.891e-02 -1.397e-03
112 1 -5.299e+00 1.772e+00 1.048e+00 2.127e-02 5.325e-03 7.462e-04
113 1 5.298e+00 1.774e+00 1.045e+00 -2.202e-02 6.177e-03 -7.884e-04
114 1 -1.770e+00 -5.295e+00 1.050e+00 1.035e-03 3.027e-02 -7.360e-04
115 1 -2.691e-03 -5.272e+00 -7.243e-01 -3.106e-04 5.321e-03 5.125e-03
116 1 5.275e+00 3.831e-03 -7.269e-01 2.278e-02 -7.254e-04 4.300e-03
117 1 -5.277e+00 6.231e-03 -7.243e-01 -2.107e-02 -9.311e-04 2.766e-03
118 1 1.946e-04 5.280e+00 -7.253e-01 4.506e-04 -6.912e-03 7.169e-03
119 1 -5.279e+00 5.263e-03 2.821e+00 -2.338e-02 -5.490e-04 -4.814e-03
120 1 -2.650e-03 5.281e+00 2.819e+00 -7.039e-04 -5.240e-03 -5.396e-03
121 1 -1.696e-03 -5.271e+00 2.821e+00 -7.084e-04 8.544e-03 -8.113e-03
122 1 5.275e+00 4.599e-03 2.822e+00 2.272e-02 -4.113e-04 -5.525e-03
123 1 -1.792e+00 1.796e+00 4.599e+00 -1.721e-02 -2.791e-02 8.208e-03
124 1 1.791e+00 -1.786e+00 4.600e+00 1.637e-02 2.791e-02 1.007e-02
125 1 1.789e+00 1.797e+00 4.600e+00 1.566e-02 -2.837e-02 1.033e-02
126 1 -1.793e+00 -1.788e+00 4.601e+00 -1.621e-02 2.754e-02 8.854e-03
127 1 3.520e+00 -3.514e+00 1.049e+00 9.159e-02 -9.212e-02 -1.325e-03
128 1 -3.521e+00 3.525e+00 1.047e+00 -9.241e-02 9.162e-02 6.598e-04
129 1 3.520e+00 3.525e+00 1.047e+00 9.453e-02 9.177e-02 -1.575e-03
130 1 -3.521e+00 -3.516e+00 1.049e+00 -9.433e-02 -9.144e-02 -4.550e-04
131 1 -5.351e-04 4.905e-03 4.541e+00 -7.284e-04 -2.539e-03 5.734e-02
132 1 -3.565e+00 1.814e+00 2.811e+00 -1.515e-03 -4.456e-02 4.349e-02
133 1 -1.808e+00 3.568e+00 2.813e+00 1.622e-02 -1.128e-02 2.671e-02
134 1 -3.563e+00 -1.805e+00 2.813e+00 2.022e-03 4.425e-02 4.048e-02
135 1 1.809e+00 3.568e+00 2.815e+00 -1.739e-02 -1.334e-02 2.625e-02
136 1 1.806e+00 -3.556e+00 2.813e+00 -1.616e-02 1.092e-02 2.659e-02
137 1 3.562e+00 -1.800e+00 2.814e+00 -4.285e-04 4.246e-02 4.427e-02
138 1 -1.808e+00 -3.558e+00 2.812e+00 1.624e-02 1.160e-02 2.866e-02
139 1 3.562e+00 1.813e+00 2.814e+00 9.075e-04 -4.437e-02 4.301e-02
140 1 1.762e+00 5.189e-03 -4.221e+00 5.420e-03 -1.185e-03 -2.734e-02
141 1 -1.382e-03 -1.759e+00 -4.223e+00 -2.341e-04 -7.217e-03 -6.168e-03
142 1 -1.025e-03 1.770e+00 -4.221e+00 8.920e-04 7.735e-03 -4.971e-03
143 1 -1.766e+00 3.650e-03 -4.222e+00 -1.938e-03 -6.794e-04 -2.987e-02
144 1 3.615e+00 4.493e-03 -2.563e+00 -9.178e-02 9.755e-04 9.144e-02
145 1 -3.101e-03 -3.611e+00 -2.566e+00 1.308e-03 3.785e-03 2.798e-04
146 1 -1.417e-03 3.616e+00 -2.563e+00 5.901e-04 5.797e-04 -2.525e-03
147 1 -3.614e+00 4.735e-03 -2.566e+00 9.018e-02 7.237e-04 9.145e-02
148 1 -3.523e-03 8.648e-03 2.103e+00 -5.089e-05 -1.054e+00 -1.056e+00
149 1 -8.901e-04 -1.166e-03 1.293e-03 -6.323e-04 1.058e+00 1.046e+00
150 1 1.807e+00 -3.559e+00 -7.161e-01 -1.646e-02 1.053e-02 -2.881e-02
151 1 3.561e+00 -1.804e+00 -7.153e-01 3.065e-04 4.554e-02 -4.389e-02
152 1 -1.809e+00 -3.560e+00 -7.170e-01 1.675e-02 1.052e-02 -2.739e-02
153 1 3.560e+00 1.813e+00 -7.166e-01 -1.231e-03 -4.215e-02 -4.430e-02
154 1 -3.562e+00 1.811e+00 -7.161e-01 -6.043e-04 -4.440e-02 -4.354e-02
155 1 -1.808e+00 3.563e+00 -7.154e-01 1.585e-02 -8.845e-03 -2.869e-02
156 1 -3.563e+00 -1.801e+00 -7.165e-01 -2.091e-03 4.441e-02 -4.283e-02
157 1 1.808e+00 3.565e+00 -7.157e-01 -1.506e-02 -9.595e-03 -2.792e-02
158 1 -1.014e-03 -2.030e+00 -8.657e-01 -1.099e-03 1.238e-01 -1.198e-01
159 1 2.031e+00 7.274e-03 -8.630e-01 -3.601e-01 -7.746e-04 2.368e-01
160 1 -2.032e+00 4.755e-03 -8.638e-01 3.579e-01 4.796e-04 2.369e-01
161 1 -2.256e-03 2.034e+00 -8.641e-01 -1.012e-03 -1.170e-01 -1.253e-01
162 1 -2.036e+00 5.375e-03 2.961e+00 3.587e-01 1.653e-03 -2.404e-01
163 1 -9.230e-04 2.040e+00 2.961e+00 -1.219e-03 -1.246e-01 1.162e-01
164 1 -1.542e-03 -2.026e+00 2.961e+00 -1.394e-03 1.202e-01 1.214e-01
165 1 2.031e+00 5.742e-03 2.963e+00 -3.581e-01 3.021e-03 -2.407e-01
166 1 -9.952e-04 3.556e+00 1.048e+00 -5.843e-04 -5.927e-02 -3.130e-03
167 1 -3.550e+00 4.371e-03 1.049e+00 -3.508e-04 5.324e-04 -1.560e-03
168 1 3.549e+00 3.591e-03 1.048e+00 7.549e-04 6.083e-05 -1.360e-03
169 1 1.635e-05 -3.545e+00 1.049e+00 2.701e-04 5.928e-02 -1.981e-03
170 1 1.789e+00 -1.785e+00 -2.506e+00 1.513e-02 2.674e-02 -1.202e-02
171 1 -1.794e+00 -1.787e+00 -2.505e+00 -1.683e-02 2.868e-02 -1.066e-02
172 1 1.788e+00 1.796e+00 -2.503e+00 1.631e-02 -2.861e-02 -1.295e-02
173 1 -1.795e+00 1.797e+00 -2.505e+00 -1.671e-02 -2.634e-02 -1.240e-02
174 1 -2.753e-03 3.534e-03 -2.443e+00 -2.290e-03 -2.964e-04 -6.154e-02
175 1 1.673e+00 -1.668e+00 1.050e+00 3.590e-01 -2.368e-01 -2.944e-03
176 1 -1.673e+00 1.678e+00 1.048e+00 -3.602e-01 2.390e-01 -2.569e-04
177 1 1.673e+00 1.679e+00 1.048e+00 3.591e-01 2.387e-01 -1.203e-03
178 1 -1.675e+00 -1.669e+00 1.047e+00 -3.588e-01 -2.384e-01 -2.117e-03
ITEM: TIMESTEP
0
ITEM: NUMBER OF ATOMS
89
ITEM: BOX BOUNDS xy xz yz pp pp pp
                     0.00000000000000e+00 1.06200000000000e+01 0.00000000000000e+00
0.00000000000000e+00	1.06200000000000e+01	0.00000000000000e+00
0.00000000000000e+00	1.06200000000000e+01	0.00000000000000e+00
ITEM: ATOMS id type x y z DisplacementX DisplacementY DisplacementZ
179 1 3.232e-04 5.674e-03 -5.983e+00 4.146e-04 6.848e-06 -5.723e-03
180 1 3.539e+00 -3.535e+00 -2.492e+00 -3.772e-03 2.093e-03 -3.256e-03
181 1 -3.543e+00 3.546e+00 -2.490e+00 1.434e-03 1.750e-03 -3.175e-03
182 1 -3.543e+00 -3.536e+00 -2.490e+00 1.695e-03 -1.133e-03 -5.852e-04
183 1 3.540e+00 3.546e+00 -2.492e+00 -2.121e-03 -1.807e-04 -4.527e-03
184 1 1.773e+00 -3.535e+00 -4.257e+00 -1.498e-02 -2.598e-04 6.058e-03
185 1 3.537e+00 -1.772e+00 -4.257e+00 -3.835e-03 -1.038e-03 3.525e-03
186 1 -1.779e+00 -3.535e+00 -4.256e+00 1.241e-02 -1.462e-03 7.810e-03
187 1 3.538e+00 1.779e+00 -4.257e+00 -3.060e-03 2.248e-03 4.634e-03
188 1 -3.542e+00 1.779e+00 -4.256e+00 5.135e-03 1.699e-03 9.265e-04
189 1 -1.776e+00 3.543e+00 -4.255e+00 1.416e-02 2.508e-03 5.072e-03
190 1 -3.541e+00 -1.770e+00 -4.257e+00 3.309e-03 -7.318e-04 2.815e-03
191 1 1.774e+00 3.546e+00 -4.258e+00 -1.283e-02 -4.196e-04 5.789e-03
192 1 -1.212e-03 3.620e+00 4.663e+00 1.166e-03 -9.632e-02 -9.477e-02
193 1 -3.617e+00 8.653e-03 4.662e+00 3.207e-03 -1.793e-03 -2.038e-03
194 1 3.613e+00 5.339e-03 4.662e+00 3.160e-05 -1.455e-03 -3.551e-04
195 1 -9.944e-04 -3.609e+00 4.659e+00 5.286e-04 9.578e-02 -9.149e-02
196 1 5.296e+00 -1.763e+00 1.050e+00 -2.775e-02 2.985e-03 -1.773e-03
197 1 1.766e+00 -5.295e+00 1.047e+00 4.668e-03 2.152e-02 2.117e-03
198 1 1.765e+00 5.303e+00 1.049e+00 5.018e-03 -2.274e-02 -1.198e-03
199 1 -5.300e+00 -1.761e+00 1.048e+00 2.649e-02 3.402e-03 4.560e-04
200 1 -1.770e+00 5.304e+00 1.048e+00 -5.969e-03 -2.293e-02 1.536e-03
201 1 -5.299e+00 1.771e+00 1.048e+00 2.974e-02 -2.980e-03 -1.046e-03
202 1 5.297e+00 1.772e+00 1.049e+00 -2.899e-02 -8.031e-04 3.574e-04
203 1 -1.769e+00 -5.294e+00 1.046e+00 -4.415e-03 2.237e-02 -7.843e-05
204 1 -7.593e-04 -5.272e+00 -7.262e-01 -8.997e-04 -2.145e-02 4.598e-03
205 1 5.274e+00 4.831e-03 -7.244e-01 -4.293e-03 2.407e-04 8.361e-03
206 1 -5.279e+00 4.720e-03 -7.261e-01 6.144e-03 -1.926e-03 5.075e-03
207 1 -9.372e-04 5.281e+00 -7.233e-01 -1.002e-03 2.234e-02 3.839e-03
208 1 -5.278e+00 6.868e-03 2.820e+00 7.239e-03 -3.610e-04 -7.089e-03
209 1 9.403e-06 5.279e+00 2.819e+00 -1.218e-03 2.211e-02 -4.419e-03
210 1 3.549e-04 -5.272e+00 2.819e+00 3.461e-04 -2.208e-02 -5.861e-03
211 1 5.276e+00 4.257e-03 2.820e+00 -6.143e-03 -1.205e-03 -6.481e-03
212 1 -1.793e+00 1.796e+00 4.599e+00 2.734e-02 1.546e-02 7.929e-03
213 1 1.790e+00 -1.786e+00 4.601e+00 -2.889e-02 -1.666e-02 1.051e-02
214 1 1.790e+00 1.798e+00 4.601e+00 -2.784e-02 1.530e-02 1.008e-02
215 1 -1.794e+00 -1.787e+00 4.599e+00 2.682e-02 -1.567e-02 9.684e-03
216 1 3.519e+00 -3.517e+00 1.048e+00 9.266e-02 -9.464e-02 -2.617e-04
217 1 -3.522e+00 3.526e+00 1.047e+00 -9.159e-02 9.393e-02 -2.403e-03
218 1 3.518e+00 3.525e+00 1.044e+00 9.128e-02 9.398e-02 -7.106e-04
219 1 -3.522e+00 -3.517e+00 1.046e+00 -9.244e-02 -9.486e-02 8.512e-04
220 1 -6.533e-04 4.603e-03 4.541e+00 5.970e-05 1.231e-03 5.738e-02
221 1 -3.565e+00 1.814e+00 2.813e+00 8.889e-03 -1.533e-02 2.722e-02
222 1 -1.810e+00 3.568e+00 2.812e+00 4.290e-02 1.383e-03 4.412e-02
223 1 -3.565e+00 -1.804e+00 2.813e+00 1.036e-02 1.667e-02 2.703e-02
224 1 1.808e+00 3.569e+00 2.813e+00 -4.300e-02 -7.484e-04 4.361e-02
225 1 1.807e+00 -3.557e+00 2.811e+00 -4.383e-02 1.153e-03 4.318e-02
226 1 3.562e+00 -1.803e+00 2.812e+00 -1.144e-02 1.531e-02 2.545e-02
227 1 -1.809e+00 -3.557e+00 2.811e+00 4.245e-02 -1.283e-03 4.360e-02
228 1 3.561e+00 1.813e+00 2.813e+00 -1.155e-02 -1.668e-02 2.709e-02
229 1 1.764e+00 3.331e-03 -4.221e+00 7.210e-03 -1.196e-04 -7.465e-03
230 1 -2.748e-03 -1.762e+00 -4.222e+00 -3.747e-04 -2.693e-03 -2.708e-02
231 1 9.706e-04 1.768e+00 -4.222e+00 1.123e-03 3.101e-03 -2.886e-02
232 1 -1.767e+00 2.244e-03 -4.221e+00 -6.974e-03 1.559e-03 -7.087e-03
233 1 3.613e+00 6.291e-03 -2.564e+00 -2.820e-03 -1.322e-03 1.154e-04
234 1 -2.326e-03 -3.610e+00 -2.566e+00 6.730e-04 9.492e-02 9.065e-02
235 1 -1.452e-03 3.617e+00 -2.567e+00 4.459e-04 -9.188e-02 8.925e-02
236 1 -3.615e+00 4.239e-03 -2.563e+00 -8.856e-04 1.150e-03 -5.209e-03
237 1 -1.773e-03 9.481e-03 2.104e+00 1.049e+00 -3.998e-03 -1.052e+00
238 1 4.147e-04 1.427e-03 -1.952e-03 -1.055e+00 5.583e-03 1.041e+00
239 1 1.806e+00 -3.558e+00 -7.148e-01 -4.369e-02 2.713e-04 -4.473e-02
240 1 3.560e+00 -1.801e+00 -7.179e-01 -1.017e-02 1.500e-02 -2.675e-02
241 1 -1.809e+00 -3.558e+00 -7.157e-01 4.268e-02 3.265e-04 -4.453e-02
242 1 3.560e+00 1.811e+00 -7.170e-01 -1.147e-02 -1.580e-02 -2.957e-02
243 1 -3.562e+00 1.811e+00 -7.161e-01 9.956e-03 -1.446e-02 -2.948e-02
244 1 -1.808e+00 3.567e+00 -7.176e-01 4.186e-02 1.945e-03 -4.613e-02
245 1 -3.564e+00 -1.804e+00 -7.185e-01 1.190e-02 1.555e-02 -2.621e-02
246 1 1.805e+00 3.568e+00 -7.154e-01 -4.346e-02 9.248e-04 -4.423e-02
247 1 -2.155e-03 -2.030e+00 -8.661e-01 -8.836e-04 3.584e-01 2.375e-01
248 1 2.031e+00 5.725e-03 -8.628e-01 -1.208e-01 8.713e-04 -1.195e-01
249 1 -2.032e+00 4.899e-03 -8.628e-01 1.183e-01 6.371e-04 -1.265e-01
250 1 -1.286e-03 2.031e+00 -8.608e-01 4.646e-05 -3.553e-01 2.364e-01
251 1 -2.035e+00 4.512e-03 2.962e+00 1.233e-01 2.148e-03 1.169e-01
252 1 -2.076e-03 2.040e+00 2.964e+00 -2.506e-03 -3.628e-01 -2.407e-01
253 1 -3.414e-04 -2.026e+00 2.961e+00 -7.733e-04 3.582e-01 -2.395e-01
254 1 2.032e+00 6.835e-03 2.959e+00 -1.202e-01 -1.209e-04 1.200e-01
255 1 2.864e-04 3.554e+00 1.047e+00 5.777e-05 1.318e-03 4.982e-05
256 1 -3.552e+00 6.805e-03 1.049e+00 5.918e-02 1.212e-04 -1.843e-04
257 1 3.547e+00 3.561e-03 1.050e+00 -5.907e-02 4.692e-04 -4.200e-04
258 1 -1.959e-03 -3.546e+00 1.048e+00 9.929e-04 -5.122e-04 -7.139e-04
259 1 1.792e+00 -1.788e+00 -2.504e+00 -2.897e-02 -1.425e-02 -1.061e-02
260 1 -1.793e+00 -1.787e+00 -2.503e+00 2.604e-02 -1.672e-02 -1.223e-02
261 1 1.790e+00 1.794e+00 -2.505e+00 -2.793e-02 1.600e-02 -1.187e-02
262 1 -1.793e+00 1.794e+00 -2.504e+00 2.628e-02 1.855e-02 -1.066e-02
263 1 -3.702e-03 2.955e-03 -2.442e+00 3.293e-03 -1.245e-03 -6.261e-02
264 1 1.674e+00 -1.668e+00 1.049e+00 2.390e-01 -3.576e-01 -2.572e-03
265 1 -1.675e+00 1.678e+00 1.050e+00 -2.397e-01 3.602e-01 3.297e-04
266 1 1.673e+00 1.678e+00 1.051e+00 2.378e-01 3.588e-01 -2.910e-03
267 1 -1.675e+00 -1.668e+00 1.048e+00 -2.396e-01 -3.591e-01 -8.284e-04
ITEM: TIMESTEP
0
ITEM: NUMBER OF ATOMS
89
ITEM: BOX BOUNDS xy xz yz pp pp pp
                     0.00000000000000e+00 1.06200000000000e+01 0.00000000000000e+00
0.00000000000000e+00	1.06200000000000e+01	0.00000000000000e+00
0.00000000000000e+00	1.06200000000000e+01	0.00000000000000e+00
ITEM: ATOMS id type x y z DisplacementX DisplacementY DisplacementZ
268 1 -3.224e-03 5.435e-03 -5.985e+00 -4.409e-04 2.190e-04 -7.066e-03
269 1 3.540e+00 -3.536e+00 -2.492e+00 -3.348e-03 1.189e-03 -2.697e-03
270 1 -3.543e+00 3.546e+00 -2.490e+00 3.996e-03 -8.757e-04 -3.294e-03
271 1 -3.543e+00 -3.536e+00 -2.493e+00 4.079e-03 -6.242e-04 -2.760e-03
272 1 3.538e+00 3.545e+00 -2.492e+00 -3.412e-03 -6.281e-04 -3.599e-03
273 1 1.775e+00 -3.535e+00 -4.258e+00 -1.600e-02 3.060e-04 7.477e-03
274 1 3.538e+00 -1.770e+00 -4.257e+00 -3.641e-03 -2.048e-03 3.908e-03
275 1 -1.778e+00 -3.535e+00 -4.259e+00 1.238e-02 -1.657e-04 6.649e-03
276 1 3.537e+00 1.780e+00 -4.257e+00 -5.393e-03 2.321e-03 3.076e-03
277 1 -3.542e+00 1.780e+00 -4.256e+00 2.862e-03 2.078e-03 2.808e-03
278 1 -1.776e+00 3.543e+00 -4.255e+00 1.255e-02 -1.497e-03 5.453e-03
279 1 -3.539e+00 -1.771e+00 -4.257e+00 4.390e-03 -1.690e-03 3.881e-03
280 1 1.774e+00 3.544e+00 -4.257e+00 -1.309e-02 2.885e-04 4.139e-03
281 1 -1.523e-03 3.621e+00 4.661e+00 2.548e-04 -9.460e-02 -9.407e-02
282 1 -3.616e+00 5.639e-03 4.660e+00 2.220e-03 -6.177e-04 2.187e-04
283 1 3.614e+00 5.706e-03 4.660e+00 -1.857e-03 6.235e-04 -9.781e-04
284 1 -2.585e-03 -3.609e+00 4.659e+00 4.457e-04 9.288e-02 -9.153e-02
285 1 5.299e+00 -1.763e+00 1.046e+00 -2.857e-02 1.656e-03 -1.274e-03
286 1 1.765e+00 -5.293e+00 1.047e+00 4.039e-03 2.365e-02 7.906e-04
287 1 1.766e+00 5.305e+00 1.047e+00 4.163e-03 -2.124e-02 6.499e-05
288 1 -5.301e+00 -1.761e+00 1.046e+00 2.832e-02 3.712e-03 -3.080e-04
289 1 -1.770e+00 5.302e+00 1.048e+00 -5.828e-03 -1.927e-02 -1.140e-03
290 1 -5.299e+00 1.774e+00 1.048e+00 2.664e-02 -5.309e-04 -6.659e-04
291 1 5.296e+00 1.772e+00 1.049e+00 -2.912e-02 -3.442e-03 -9.188e-04
292 1 -1.768e+00 -5.293e+00 1.048e+00 -5.284e-03 2.043e-02 -2.170e-04
293 1 -2.050e-03 -5.272e+00 -7.248e-01 -1.844e-03 -2.151e-02 5.812e-03
294 1 5.275e+00 6.068e-03 -7.226e-01 -6.547e-03 1.133e-03 5.370e-03
295 1 -5.277e+00 4.780e-03 -7.257e-01 6.151e-03 -3.242e-04 6.969e-03
296 1 -1.252e-03 5.282e+00 -7.241e-01 -2.522e-05 2.205e-02 4.093e-03
297 1 -5.278e+00 4.900e-03 2.819e+00 4.388e-03 1.133e-04 -7.075e-03
298 1 1.409e-04 5.280e+00 2.820e+00 -2.680e-04 2.249e-02 -5.184e-03
299 1 -1.457e-03 -5.273e+00 2.819e+00 3.234e-04 -2.128e-02 -6.414e-03
300 1 5.277e+00 3.470e-03 2.821e+00 -8.112e-03 3.213e-04 -7.175e-03
301 1 -1.793e+00 1.797e+00 4.600e+00 2.695e-02 1.710e-02 9.759e-03
302 1 1.790e+00 -1.788e+00 4.599e+00 -2.709e-02 -1.633e-02 1.046e-02
303 1 1.792e+00 1.796e+00 4.600e+00 -2.911e-02 1.378e-02 8.916e-03
304 1 -1.793e+00 -1.787e+00 4.601e+00 2.822e-02 -1.702e-02 1.012e-02
305 1 3.520e+00 -3.516e+00 1.048e+00 9.142e-02 -9.443e-02 1.089e-03
306 1 -3.522e+00 3.526e+00 1.047e+00 -9.345e-02 9.528e-02 -9.269e-04
307 1 3.519e+00 3.526e+00 1.048e+00 9.171e-02 9.301e-02 4.107e-04
308 1 -3.522e+00 -3.516e+00 1.049e+00 -9.120e-02 -9.372e-02 -2.093e-03
309 1 -1.335e-03 4.872e-03 4.540e+00 2.076e-03 -9.433e-04 5.785e-02
310 1 -3.565e+00 1.813e+00 2.810e+00 1.309e-02 -1.785e-02 2.564e-02
311 1 -1.811e+00 3.568e+00 2.814e+00 4.377e-02 5.986e-04 4.106e-02
312 1 -3.565e+00 -1.804e+00 2.813e+00 1.057e-02 1.491e-02 2.623e-02
313 1 1.808e+00 3.569e+00 2.811e+00 -4.404e-02 3.385e-04 4.250e-02
314 1 1.804e+00 -3.556e+00 2.812e+00 -4.431e-02 2.391e-04 4.402e-02
315 1 3.562e+00 -1.804e+00 2.812e+00 -1.002e-02 1.503e-02 2.641e-02
316 1 -1.809e+00 -3.557e+00 2.811e+00 4.445e-02 3.662e-04 4.189e-02
317 1 3.561e+00 1.813e+00 2.811e+00 -1.085e-02 -1.584e-02 2.687e-02
318 1 1.765e+00 3.616e-03 -4.222e+00 5.480e-03 9.430e-04 -7.241e-03
319 1 -2.622e-03 -1.760e+00 -4.222e+00 -2.126e-03 -2.964e-03 -2.734e-02
320 1 -1.339e-03 1.769e+00 -4.223e+00 1.042e-05 2.060e-03 -2.923e-02
321 1 -1.764e+00 4.426e-03 -4.222e+00 -7.896e-03 2.347e-04 -6.088e-03
322 1 3.613e+00 2.510e-03 -2.566e+00 -9.129e-04 6.262e-04 -1.373e-03
323 1 -1.336e-03 -3.610e+00 -2.564e+00 -5.409e-05 9.607e-02 9.168e-02
324 1 -1.585e-03 3.618e+00 -2.562e+00 5.506e-05 -9.112e-02 8.888e-02
325 1 -3.615e+00 3.724e-03 -2.564e+00 1.132e-03 2.133e-03 -3.925e-03
326 1 -2.736e-03 9.209e-03 2.102e+00 -1.051e+00 -4.312e-03 -1.057e+00
327 1 1.123e-03 -2.001e-04 1.264e-03 1.049e+00 4.717e-03 1.047e+00
328 1 1.805e+00 -3.557e+00 -7.176e-01 -4.412e-02 7.221e-04 -4.482e-02
329 1 3.561e+00 -1.803e+00 -7.170e-01 -1.160e-02 1.579e-02 -2.826e-02
330 1 -1.810e+00 -3.560e+00 -7.170e-01 4.357e-02 4.524e-04 -4.463e-02
331 1 3.562e+00 1.814e+00 -7.154e-01 -1.012e-02 -1.603e-02 -2.864e-02
332 1 -3.565e+00 1.811e+00 -7.171e-01 9.283e-03 -1.402e-02 -2.836e-02
333 1 -1.807e+00 3.565e+00 -7.167e-01 4.168e-02 2.589e-03 -4.620e-02
334 1 -3.562e+00 -1.804e+00 -7.157e-01 1.010e-02 1.706e-02 -2.890e-02
335 1 1.805e+00 3.566e+00 -7.169e-01 -4.125e-02 4.289e-03 -4.459e-02
336 1 -1.922e-03 -2.030e+00 -8.665e-01 1.463e-03 3.615e-01 2.395e-01
337 1 2.033e+00 4.844e-03 -8.650e-01 -1.224e-01 3.539e-04 -1.239e-01
338 1 -2.033e+00 4.360e-03 -8.648e-01 1.204e-01 5.156e-04 -1.216e-01
339 1 -1.348e-03 2.033e+00 -8.623e-01 2.613e-04 -3.535e-01 2.365e-01
340 1 -2.034e+00 2.188e-03 2.963e+00 1.218e-01 1.421e-03 1.192e-01
341 1 -3.208e-03 2.040e+00 2.963e+00 4.714e-04 -3.599e-01 -2.403e-01
342 1 -1.880e-03 -2.025e+00 2.961e+00 -1.562e-03 3.573e-01 -2.388e-01
343 1 2.032e+00 4.819e-03 2.960e+00 -1.214e-01 -9.030e-04 1.202e-01
344 1 4.090e-05 3.553e+00 1.048e+00 -1.456e-03 1.513e-03 -2.523e-03
345 1 -3.553e+00 4.319e-03 1.047e+00 5.941e-02 -5.994e-04 -5.637e-04
346 1 3.550e+00 4.624e-03 1.049e+00 -5.960e-02 -6.213e-04 -1.792e-03
347 1 -6.725e-04 -3.545e+00 1.049e+00 -1.604e-03 -7.931e-04 -1.028e-04
348 1 1.791e+00 -1.788e+00 -2.502e+00 -2.808e-02 -1.611e-02 -9.142e-03
349 1 -1.793e+00 -1.786e+00 -2.505e+00 2.817e-02 -1.390e-02 -1.193e-02
350 1 1.790e+00 1.798e+00 -2.504e+00 -2.806e-02 1.656e-02 -1.295e-02
351 1 -1.793e+00 1.795e+00 -2.505e+00 2.714e-02 1.570e-02 -1.187e-02
352 1 2.967e-04 3.979e-03 -2.442e+00 -7.022e-04 9.658e-04 -6.120e-02
353 1 1.673e+00 -1.669e+00 1.050e+00 2.379e-01 -3.580e-01 -2.589e-03
354 1 -1.673e+00 1.677e+00 1.049e+00 -2.393e-01 3.614e-01 -3.217e-03
355 1 1.672e+00 1.678e+00 1.051e+00 2.382e-01 3.604e-01 -2.085e-03
356 1 -1.676e+00 -1.669e+00 1.050e+00 -2.376e-01 -3.590e-01 -3.322e-03
ITEM: TIMESTEP
0
ITEM: NUMBER OF ATOMS
89
ITEM: BOX BOUNDS xy xz yz pp pp pp
                     0.00000000000000e+00 1.06200000000000e+01 0.00000000000000e+00
0.00000000000000e+00	1.06200000000000e+01	0.00000000000000e+00
0.00000000000000e+00	1.06200000000000e+01	0.00000000000000e+00
ITEM: ATOMS id type x y z DisplacementX DisplacementY DisplacementZ
357 1 -2.992e-03 4.058e-03 -5.983e+00 1.523e-02 -7.120e-04 -1.543e-03
358 1 3.540e+00 -3.536e+00 -2.491e+00 6.657e-03 1.407e-03 3.015e-03
359 1 -3.541e+00 3.545e+00 -2.489e+00 2.127e-02 2.155e-02 -2.685e-02
360 1 -3.542e+00 -3.536e+00 -2.491e+00 1.970e-02 -2.107e-02 -2.498e-02
361 1 3.540e+00 3.545e+00 -2.490e+00 7.038e-03 -1.836e-03 5.676e-03
362 1 1.775e+00 -3.536e+00 -4.258e+00 6.256e-03 -2.276e-03 6.495e-03
363 1 3.538e+00 -1.770e+00 -4.258e+00 9.455e-03 3.854e-05 8.522e-03
364 1 -1.776e+00 -3.534e+00 -4.257e+00 1.921e-02 2.031e-02 2.593e-02
365 1 3.537e+00 1.779e+00 -4.258e+00 7.662e-03 -5.301e-05 8.804e-03
366 1 -3.541e+00 1.779e+00 -4.256e+00 1.795e-02 3.147e-02 -1.630e-02
367 1 -1.777e+00 3.544e+00 -4.256e+00 1.826e-02 -1.777e-02 2.674e-02
368 1 -3.541e+00 -1.772e+00 -4.258e+00 1.843e-02 -3.287e-02 -1.522e-02
369 1 1.773e+00 3.543e+00 -4.259e+00 6.723e-03 9.278e-04 6.323e-03
370 1 2.980e-04 3.622e+00 4.662e+00 6.931e-03 -7.721e-02 -7.409e-02
371 1 -3.616e+00 4.237e-03 4.661e+00 8.674e-02 -1.340e-03 -9.330e-02
372 1 3.612e+00 5.454e-03 4.660e+00 -5.214e-02 -9.570e-04 -5.307e-02
373 1 -2.919e-03 -3.610e+00 4.661e+00 7.221e-03 7.467e-02 -7.259e-02
374 1 5.297e+00 -1.762e+00 1.049e+00 -1.663e-02 7.453e-03 2.544e-03
375 1 1.767e+00 -5.293e+00 1.048e+00 1.088e-02 -1.982e-03 2.056e-02
376 1 1.767e+00 5.302e+00 1.046e+00 9.815e-03 1.610e-03 2.119e-02
377 1 -5.300e+00 -1.763e+00 1.048e+00 -9.859e-03 -2.267e-02 3.504e-02
378 1 -1.769e+00 5.304e+00 1.046e+00 1.043e-02 5.116e-04 1.076e-02
379 1 -5.300e+00 1.773e+00 1.047e+00 -9.230e-03 2.423e-02 3.382e-02
380 1 5.299e+00 1.772e+00 1.048e+00 -1.831e-02 -8.684e-03 3.066e-03
381 1 -1.769e+00 -5.294e+00 1.047e+00 1.097e-02 -7.633e-05 1.222e-02
382 1 -2.058e-03 -5.270e+00 -7.254e-01 1.723e-02 -8.922e-04 1.558e-02
383 1 5.276e+00 4.299e-03 -7.235e-01 -8.204e-04 1.203e-03 1.564e-02
384 1 -5.278e+00 3.149e-03 -7.254e-01 2.799e-02 5.624e-04 1.375e-02
385 1 -1.588e-03 5.281e+00 -7.222e-01 1.460e-02 9.642e-04 1.712e-02
386 1 -5.277e+00 5.327e-03 2.820e+00 -9.112e-02 -1.201e-03 8.403e-02
387 1 -2.359e-03 5.281e+00 2.820e+00 5.283e-03 2.089e-02 1.238e-02
388 1 -3.065e-04 -5.272e+00 2.820e+00 6.939e-03 -2.106e-02 9.743e-03
389 1 5.275e+00 5.430e-03 2.820e+00 1.050e-02 -8.575e-04 -5.162e-03
390 1 -1.794e+00 1.798e+00 4.600e+00 3.527e-02 -2.396e-02 -1.117e-02
391 1 1.791e+00 -1.785e+00 4.599e+00 -1.241e-02 1.336e-02 -6.726e-03
392 1 1.792e+00 1.796e+00 4.601e+00 -1.455e-02 -1.364e-02 -8.442e-03
393 1 -1.794e+00 -1.785e+00 4.601e+00 3.561e-02 2.249e-02 -1.011e-02
394 1 3.519e+00 -3.517e+00 1.049e+00 2.797e-02 -1.649e-02 1.981e-02
395 1 -3.520e+00 3.524e+00 1.046e+00 -6.061e-04 4.199e-02 5.210e-02
396 1 3.517e+00 3.525e+00 1.047e+00 2.858e-02 1.965e-02 2.009e-02
397 1 -3.522e+00 -3.516e+00 1.048e+00 2.272e-03 -4.174e-02 4.967e-02
398 1 -2.639e-03 6.015e-03 4.542e+00 1.477e-02 3.650e-05 2.443e-02
399 1 -3.565e+00 1.814e+00 2.813e+00 4.188e-02 -1.061e-03 4.104e-02
400 1 -1.808e+00 3.570e+00 2.810e+00 5.236e-02 -4.237e-02 -6.826e-04
401 1 -3.565e+00 -1.801e+00 2.814e+00 4.272e-02 2.702e-05 3.987e-02
402 1 1.808e+00 3.567e+00 2.812e+00 -2.624e-02 -2.103e-02 1.884e-02
403 1 1.806e+00 -3.557e+00 2.813e+00 -2.336e-02 1.898e-02 1.984e-02
404 1 3.560e+00 -1.804e+00 2.816e+00 -1.380e-02 3.054e-02 1.760e-02
405 1 -1.809e+00 -3.558e+00 2.813e+00 5.006e-02 4.101e-02 -1.239e-03
406 1 3.560e+00 1.813e+00 2.812e+00 -1.296e-02 -3.120e-02 1.748e-02
407 1 1.766e+00 5.345e-03 -4.223e+00 8.886e-02 9.285e-04 -1.010e-01
408 1 -1.393e-03 -1.762e+00 -4.223e+00 7.895e-03 -3.971e-02 -4.907e-02
409 1 3.303e-04 1.768e+00 -4.222e+00 8.379e-03 4.170e-02 -4.879e-02
410 1 -1.766e+00 4.519e-03 -4.223e+00 8.958e-03 1.683e-03 -3.758e-02
411 1 3.613e+00 4.617e-03 -2.564e+00 -1.013e-01 1.751e-03 8.902e-02