ITEM: TIMESTEP
0
ITEM: NUMBER OF ATOMS
89
ITEM: BOX BOUNDS xy xz yz pp pp pp
                     0.00000000000000e+00 1.06200000000000e+01 0.00000000000000e+00
0.00000000000000e+00	1.06200000000000e+01	0.00000000000000e+00
0.00000000000000e+00	1.06200000000000e+01	0.00000000000000e+00
ITEM: ATOMS id type x y z DisplacementX DisplacementY DisplacementZ
1 1 -1.537e-03 5.925e-03 -5.983e+00 -4.277e-01 -5.409e-03 5.409e-02
2 1 3.540e+00 -3.536e+00 -2.491e+00 -5.379e-01 -1.332e-01 8.359e-03
3 1 -3.543e+00 3.545e+00 -2.491e+00 -3.972e-01 3.427e-02 5.490e-02
4 1 -3.544e+00 -3.537e+00 -2.490e+00 -4.869e-01 2.863e-02 7.356e-02
5 1 3.539e+00 3.546e+00 -2.491e+00 -4.911e-01 -5.814e-02 2.346e-02
6 1 1.775e+00 -3.534e+00 -4.257e+00 -5.206e-01 -1.045e-01 2.441e-02
7 1 3.538e+00 -1.771e+00 -4.258e+00 -4.989e-01 -1.099e-01 1.170e-02
8 1 -1.777e+00 -3.533e+00 -4.258e+00 -4.904e-01 1.422e-02 7.205e-02
9 1 3.537e+00 1.781e+00 -4.257e+00 -4.996e-01 -6.327e-02 3.495e-02
10 1 -3.542e+00 1.781e+00 -4.258e+00 -4.147e-01 4.075e-02 6.967e-02
11 1 -1.778e+00 3.543e+00 -4.256e+00 -4.214e-01 2.261e-02 6.632e-02
12 1 -3.541e+00 -1.772e+00 -4.256e+00 -4.536e-01 4.815e-02 7.708e-02
13 1 1.773e+00 3.543e+00 -4.257e+00 -4.912e-01 -4.203e-02 4.934e-02
14 1 -1.270e-03 3.621e+00 4.662e+00 -5.057e-01 -5.846e-03 3.861e-02
15 1 -3.615e+00 6.519e-03 4.661e+00 -4.708e-01 -2.129e-02 7.032e-02
16 1 3.615e+00 4.974e-03 4.661e+00 -4.849e-01 -8.715e-02 6.255e-03
17 1 -2.545e-03 -3.608e+00 4.659e+00 -5.887e-01 -9.311e-02 3.136e-02
18 1 5.298e+00 -1.763e+00 1.047e+00 -5.243e-01 -1.422e-01 -2.050e-02
19 1 1.765e+00 -5.293e+00 1.047e+00 -7.247e-01 -1.878e-01 2.560e-02
20 1 1.766e+00 5.304e+00 1.048e+00 -4.901e-01 -1.357e-02 -1.770e-02
21 1 -5.299e+00 -1.761e+00 1.048e+00 -4.789e-01 -3.298e-03 5.092e-02
22 1 -1.770e+00 5.304e+00 1.048e+00 -4.723e-01 2.092e-02 2.690e-04
23 1 -5.299e+00 1.773e+00 1.048e+00 -4.293e-01 9.999e-03 3.087e-02
24 1 5.297e+00 1.774e+00 1.047e+00 -4.387e-01 -1.153e-01 -3.888e-02
25 1 -1.768e+00 -5.292e+00 1.046e+00 -6.750e-01 -1.264e-01 4.889e-02
26 1 -2.805e-03 -5.271e+00 -7.242e-01 -7.117e-01 -1.548e-01 4.325e-02
27 1 5.275e+00 2.676e-03 -7.239e-01 -4.747e-01 -1.290e-01 -3.235e-02
28 1 -5.277e+00 3.761e-03 -7.238e-01 -4.483e-01 2.271e-02 4.207e-02
29 1 -2.761e-03 5.282e+00 -7.245e-01 -4.678e-01 -4.018e-03 5.699e-04
30 1 -5.278e+00 4.776e-03 2.818e+00 -4.576e-01 -1.128e-02 4.996e-02
31 1 -9.453e-04 5.280e+00 2.819e+00 -5.102e-01 1.490e-02 2.924e-04
32 1 -2.559e-03 -5.271e+00 2.820e+00 -6.835e-01 -1.568e-01 3.329e-02
33 1 5.275e+00 5.398e-03 2.819e+00 -4.653e-01 -1.252e-01 -2.253e-02
34 1 -1.793e+00 1.796e+00 4.602e+00 -5.284e-01 -1.042e-02 7.182e-02
35 1 1.793e+00 -1.787e+00 4.602e+00 -5.823e-01 -8.372e-02 2.500e-02
36 1 1.791e+00 1.798e+00 4.602e+00 -5.204e-01 -4.287e-02 3.336e-02
37 1 -1.795e+00 -1.786e+00 4.601e+00 -5.522e-01 -4.254e-02 6.377e-02
38 1 3.520e+00 -3.515e+00 1.047e+00 -6.852e-01 -1.668e-01 1.009e-03
39 1 -3.521e+00 3.524e+00 1.047e+00 -4.744e-01 2.484e-02 1.965e-02
40 1 3.516e+00 3.525e+00 1.048e+00 -4.963e-01 -6.508e-02 -3.145e-02
41 1 -3.523e+00 -3.516e+00 1.048e+00 -6.058e-01 -4.268e-02 5.793e-02
42 1 -2.308e-03 5.464e-03 4.542e+00 -5.852e-01 -4.543e-02 6.268e-02
43 1 -3.564e+00 1.812e+00 2.811e+00 -5.492e-01 -8.785e-04 5.531e-02
44 1 -1.809e+00 3.569e+00 2.813e+00 -5.805e-01 1.738e-02 3.340e-02
45 1 -3.566e+00 -1.804e+00 2.812e+00 -5.960e-01 -2.589e-02 6.669e-02
46 1 1.807e+00 3.566e+00 2.812e+00 -5.831e-01 -2.494e-02 1.330e-03
47 1 1.807e+00 -3.558e+00 2.812e+00 -7.684e-01 -1.589e-01 1.898e-02
48 1 3.563e+00 -1.804e+00 2.812e+00 -6.538e-01 -1.361e-01 -5.226e-03
49 1 -1.808e+00 -3.557e+00 2.813e+00 -7.112e-01 -9.485e-02 5.324e-02
50 1 3.562e+00 1.813e+00 2.812e+00 -5.505e-01 -9.348e-02 -1.696e-02
51 1 1.764e+00 5.635e-03 -4.223e+00 -6.278e-01 -6.234e-02 4.151e-02
52 1 3.481e-04 -1.760e+00 -4.220e+00 -6.334e-01 -3.245e-02 6.130e-02
53 1 -1.858e-03 1.770e+00 -4.223e+00 -5.926e-01 -3.438e-03 6.905e-02
54 1 -1.767e+00 3.787e-03 -4.224e+00 -5.828e-01 3.707e-02 8.201e-02
55 1 3.613e+00 2.889e-03 -2.566e+00 -6.219e-01 -1.087e-01 1.020e-04
56 1 -2.068e-03 -3.612e+00 -2.565e+00 -7.201e-01 -8.756e-02 5.337e-02
57 1 -3.811e-04 3.617e+00 -2.563e+00 -5.720e-01 -5.726e-03 4.503e-02
58 1 -3.616e+00 4.596e-03 -2.563e+00 -5.555e-01 5.676e-02 7.373e-02
59 1 -2.698e-03 8.937e-03 2.104e+00 -6.285e-01 -3.024e-02 3.449e-02
60 1 -4.551e-04 -4.159e-04 3.779e-04 -6.422e-01 -9.366e-03 6.625e-03
61 1 1.807e+00 -3.558e+00 -7.178e-01 -8.261e-01 -1.782e-01 2.112e-02
62 1 3.560e+00 -1.803e+00 -7.173e-01 -7.038e-01 -1.601e-01 -1.394e-02
63 1 -1.811e+00 -3.559e+00 -7.159e-01 -7.676e-01 -6.763e-02 6.598e-02
64 1 3.561e+00 1.811e+00 -7.158e-01 -6.029e-01 -1.008e-01 -2.592e-02
65 1 -3.565e+00 1.813e+00 -7.146e-01 -5.417e-01 3.876e-02 4.289e-02
66 1 -1.808e+00 3.566e+00 -7.154e-01 -5.563e-01 2.811e-02 2.631e-02
67 1 -3.563e+00 -1.803e+00 -7.158e-01 -6.367e-01 1.911e-02 6.632e-02
68 1 1.806e+00 3.565e+00 -7.169e-01 -6.107e-01 -3.883e-02 -4.662e-03
69 1 -1.564e-03 -2.030e+00 -8.651e-01 -7.936e-01 -6.184e-02 2.838e-02
70 1 2.033e+00 5.908e-03 -8.643e-01 -7.144e-01 -6.991e-02 -1.151e-02
71 1 -2.034e+00 4.206e-03 -8.633e-01 -6.630e-01 3.545e-02 4.272e-02
72 1 -7.386e-04 2.034e+00 -8.625e-01 -6.562e-01 8.732e-03 1.517e-02
73 1 -2.037e+00 4.045e-03 2.963e+00 -6.606e-01 -1.995e-02 7.716e-02
74 1 -1.122e-04 2.040e+00 2.964e+00 -6.702e-01 -1.552e-02 5.121e-02
75 1 -7.370e-05 -2.028e+00 2.961e+00 -7.543e-01 -8.498e-02 4.744e-02
76 1 2.030e+00 4.797e-03 2.962e+00 -6.814e-01 -8.372e-02 2.139e-02
77 1 -2.272e-03 3.556e+00 1.048e+00 -6.543e-01 5.638e-03 1.746e-03
78 1 -3.552e+00 3.601e-03 1.048e+00 -6.265e-01 1.072e-02 5.660e-02
79 1 3.551e+00 5.254e-03 1.050e+00 -6.664e-01 -1.427e-01 -3.230e-02
80 1 -1.507e-03 -3.546e+00 1.048e+00 -9.054e-01 -1.666e-01 4.099e-02
81 1 1.790e+00 -1.786e+00 -2.503e+00 -7.676e-01 -1.234e-01 2.063e-02
82 1 -1.791e+00 -1.787e+00 -2.503e+00 -7.175e-01 2.262e-02 8.192e-02
83 1 1.790e+00 1.796e+00 -2.504e+00 -7.014e-01 -5.584e-02 3.122e-02
84 1 -1.792e+00 1.796e+00 -2.503e+00 -6.221e-01 4.297e-02 6.957e-02
85 1 -6.439e-04 5.309e-03 -2.443e+00 -7.245e-01 -5.361e-03 4.193e-02
86 1 1.674e+00 -1.669e+00 1.050e+00 -8.230e-01 -1.251e-01 7.127e-03
87 1 -1.675e+00 1.677e+00 1.050e+00 -6.567e-01 2.667e-02 3.624e-02
88 1 1.673e+00 1.678e+00 1.050e+00 -6.841e-01 -4.474e-02 -1.076e-02
89 1 -1.675e+00 -1.669e+00 1.048e+00 -7.647e-01 -3.157e-02 5.580e-02
ITEM: TIMESTEP
0
ITEM: NUMBER OF ATOMS
89
ITEM: BOX BOUNDS xy xz yz pp pp pp
                     0.00000000000000e+00 1.06200000000000e+01 0.00000000000000e+00
0.00000000000000e+00	1.06200000000000e+01	0.00000000000000e+00
0.00000000000000e+00	1.06200000000000e+01	0.00000000000000e+00
ITEM: ATOMS id type x y z DisplacementX DisplacementY DisplacementZ
90 1 -2.744e-03 6.203e-03 -5.983e+00 -5.370e-01 -5.564e-02 4.447e-02
91 1 3.539e+00 -3.537e+00 -2.491e+00 -3.583e-01 -1.025e-01 -4.032e-03
92 1 -3.545e+00 3.545e+00 -2.491e+00 -6.543e-01 -6.567e-02 7.488e-02
93 1 -3.542e+00 -3.538e+00 -2.490e+00 -7.908e-01 -8.275e-03 7.972e-02
94 1 3.538e+00 3.544e+00 -2.489e+00 -4.416e-01 -7.938e-02 -7.328e-03
95 1 1.776e+00 -3.534e+00 -4.256e+00 -4.199e-01 -8.563e-02 1.697e-02
96 1 3.538e+00 -1.769e+00 -4.257e+00 -3.605e-01 -1.009e-01 -1.835e-03
97 1 -1.776e+00 -3.534e+00 -4.257e+00 -7.404e-01 -1.935e-02 7.908e-02
98 1 3.536e+00 1.780e+00 -4.258e+00 -4.299e-01 -9.234e-02 1.459e-03
99 1 -3.540e+00 1.781e+00 -4.256e+00 -7.157e-01 -5.040e-02 8.221e-02
100 1 -1.776e+00 3.544e+00 -4.255e+00 -6.598e-01 -7.082e-02 7.127e-02
101 1 -3.540e+00 -1.770e+00 -4.255e+00 -7.865e-01 -9.859e-03 8.692e-02
102 1 1.774e+00 3.545e+00 -4.258e+00 -4.795e-01 -8.804e-02 1.717e-02
103 1 3.681e-04 3.621e+00 4.661e+00 -6.536e-01 6.545e-03 1.654e-02
104 1 -3.617e+00 6.177e-03 4.661e+00 -5.758e-01 -2.379e-03 3.043e-02
105 1 3.613e+00 4.992e-03 4.661e+00 -4.868e-01 -4.785e-02 -5.317e-02
106 1 -1.795e-03 -3.610e+00 4.662e+00 -5.879e-01 -4.178e-02 -1.285e-02
107 1 5.298e+00 -1.762e+00 1.048e+00 -3.657e-01 -1.284e-01 -5.132e-02
108 1 1.768e+00 -5.294e+00 1.047e+00 -5.793e-01 -9.022e-02 1.375e-02
109 1 1.766e+00 5.305e+00 1.048e+00 -5.930e-01 -5.759e-02 -1.097e-03
110 1 -5.301e+00 -1.763e+00 1.046e+00 -6.877e-01 -1.034e-02 3.909e-02
111 1 -1.768e+00 5.301e+00 1.049e+00 -5.951e-01 -7.670e-02 4.246e-02
112 1 -5.299e+00 1.773e+00 1.046e+00 -5.934e-01 -3.387e-02 4.064e-02
113 1 5.297e+00 1.773e+00 1.046e+00 -4.078e-01 -1.083e-01 -5.113e-02
114 1 -1.767e+00 -5.293e+00 1.049e+00 -7.371e-01 -6.966e-02 4.282e-02
115 1 -1.634e-03 -5.271e+00 -7.241e-01 -6.748e-01 -7.955e-02 4.165e-02
116 1 5.276e+00 4.945e-03 -7.242e-01 -3.634e-01 -1.328e-01 -4.890e-02
117 1 -5.277e+00 6.601e-03 -7.238e-01 -6.785e-01 -1.648e-02 4.436e-02
118 1 -4.519e-05 5.281e+00 -7.238e-01 -5.697e-01 -8.648e-02 2.372e-02
119 1 -5.278e+00 4.863e-03 2.819e+00 -5.977e-01 -1.536e-02 3.502e-02
120 1 -7.866e-04 5.279e+00 2.820e+00 -6.483e-01 -2.950e-02 2.135e-02
121 1 -3.196e-03 -5.270e+00 2.819e+00 -6.459e-01 -7.706e-02 1.493e-02
122 1 5.276e+00 5.293e-03 2.821e+00 -4.010e-01 -1.048e-01 -5.669e-02
123 1 -1.794e+00 1.798e+00 4.599e+00 -6.432e-01 1.058e-02 2.622e-02
124 1 1.792e+00 -1.785e+00 4.600e+00 -5.623e-01 -3.509e-02 -4.563e-02
125 1 1.788e+00 1.797e+00 4.599e+00 -6.343e-01 -3.680e-03 -2.612e-02
126 1 -1.792e+00 -1.787e+00 4.602e+00 -6.340e-01 -1.186e-02 3.972e-03
127 1 3.520e+00 -3.516e+00 1.047e+00 -4.800e-01 -1.054e-01 -2.803e-02
128 1 -3.522e+00 3.527e+00 1.049e+00 -6.109e-01 -5.904e-02 5.000e-02
129 1 3.519e+00 3.529e+00 1.049e+00 -5.466e-01 -6.480e-02 -3.264e-02
130 1 -3.521e+00 -3.514e+00 1.049e+00 -7.886e-01 -3.042e-02 4.275e-02
131 1 -4.831e-04 7.271e-03 4.541e+00 -6.889e-01 1.899e-03 -2.200e-02
132 1 -3.563e+00 1.813e+00 2.813e+00 -6.848e-01 -2.108e-02 4.338e-02
133 1 -1.811e+00 3.567e+00 2.813e+00 -7.285e-01 -2.887e-02 4.104e-02
134 1 -3.565e+00 -1.802e+00 2.813e+00 -7.621e-01 -1.124e-02 3.046e-02
135 1 1.808e+00 3.569e+00 2.812e+00 -7.271e-01 -2.462e-02 -9.329e-03
136 1 1.807e+00 -3.559e+00 2.812e+00 -6.478e-01 -7.574e-02 -2.395e-02
137 1 3.561e+00 -1.802e+00 2.812e+00 -5.300e-01 -9.177e-02 -6.187e-02
138 1 -1.809e+00 -3.556e+00 2.812e+00 -7.968e-01 -4.877e-02 1.873e-02
139 1 3.561e+00 1.813e+00 2.812e+00 -5.894e-01 -7.029e-02 -5.132e-02
140 1 1.765e+00 4.103e-03 -4.221e+00 -5.998e-01 -9.826e-02 1.712e-02
141 1 -2.459e-03 -1.757e+00 -4.222e+00 -7.466e-01 -6.275e-02 5.678e-02
142 1 -1.481e-03 1.770e+00 -4.222e+00 -7.361e-01 -8.916e-02 5.124e-02
143 1 -1.766e+00 5.604e-03 -4.221e+00 -8.722e-01 -4.472e-02 8.272e-02
144 1 3.613e+00 5.153e-03 -2.564e+00 -4.902e-01 -1.232e-01 -2.510e-02
145 1 -4.311e-04 -3.610e+00 -2.566e+00 -7.636e-01 -6.458e-02 5.154e-02
146 1 -4.512e-04 3.618e+00 -2.564e+00 -6.923e-01 -1.034e-01 3.869e-02
147 1 -3.614e+00 5.566e-03 -2.566e+00 -9.017e-01 -2.148e-02 8.105e-02
148 1 -2.233e-03 1.116e-02 2.101e+00 -7.113e-01 -8.768e-03 -2.938e-02
149 1 6.419e-04 -8.729e-04 -1.830e-03 -6.954e-01 -2.405e-02 -2.075e-02
150 1 1.808e+00 -3.558e+00 -7.162e-01 -6.516e-01 -1.032e-01 4.365e-03
151 1 3.561e+00 -1.804e+00 -7.153e-01 -4.987e-01 -1.369e-01 -4.042e-02
152 1 -1.811e+00 -3.558e+00 -7.155e-01 -9.370e-01 -4.529e-02 6.076e-02
153 1 3.559e+00 1.811e+00 -7.141e-01 -5.494e-01 -1.137e-01 -4.275e-02
154 1 -3.563e+00 1.810e+00 -7.159e-01 -7.962e-01 -4.943e-02 6.193e-02
155 1 -1.811e+00 3.565e+00 -7.161e-01 -7.419e-01 -9.216e-02 5.714e-02
156 1 -3.562e+00 -1.803e+00 -7.167e-01 -9.349e-01 -9.723e-03 6.099e-02
157 1 1.806e+00 3.566e+00 -7.150e-01 -6.561e-01 -8.724e-02 -7.597e-03
158 1 -5.590e-05 -2.030e+00 -8.654e-01 -8.180e-01 -4.534e-02 8.755e-03
159 1 2.033e+00 7.546e-03 -8.651e-01 -6.492e-01 -7.951e-02 -3.636e-02
160 1 -2.032e+00 7.146e-03 -8.637e-01 -8.712e-01 -1.798e-02 3.350e-02
161 1 -1.869e-03 2.033e+00 -8.628e-01 -7.518e-01 -5.993e-02 8.787e-03
162 1 -2.035e+00 4.209e-03 2.960e+00 -8.001e-01 7.134e-05 1.213e-02
163 1 5.781e-05 2.042e+00 2.964e+00 -8.196e-01 3.044e-05 -1.763e-03
164 1 1.032e-03 -2.025e+00 2.960e+00 -7.910e-01 -3.054e-02 -2.787e-02
165 1 2.032e+00 4.856e-03 2.959e+00 -7.210e-01 -3.582e-02 -5.753e-02
166 1 -1.513e-03 3.556e+00 1.048e+00 -7.986e-01 -6.558e-02 1.784e-02
167 1 -3.554e+00 4.768e-03 1.048e+00 -8.524e-01 -1.597e-02 4.069e-02
168 1 3.549e+00 4.000e-03 1.048e+00 -5.683e-01 -1.296e-01 -6.857e-02
169 1 -3.226e-04 -3.547e+00 1.048e+00 -8.746e-01 -8.207e-02 1.668e-02
170 1 1.791e+00 -1.787e+00 -2.504e+00 -6.374e-01 -1.123e-01 3.181e-03
171 1 -1.794e+00 -1.787e+00 -2.503e+00 -1.023e+00 -2.353e-02 8.316e-02
172 1 1.791e+00 1.798e+00 -2.506e+00 -6.777e-01 -1.063e-01 -7.455e-04
173 1 -1.793e+00 1.797e+00 -2.503e+00 -9.135e-01 -7.221e-02 7.818e-02
174 1 4.061e-04 2.741e-03 -2.442e+00 -8.314e-01 -5.761e-02 2.550e-02
175 1 1.672e+00 -1.668e+00 1.048e+00 -7.143e-01 -7.567e-02 -4.455e-02
176 1 -1.676e+00 1.677e+00 1.049e+00 -8.179e-01 -2.899e-02 2.575e-02
177 1 1.673e+00 1.677e+00 1.049e+00 -7.462e-01 -4.879e-02 -4.112e-02
178 1 -1.676e+00 -1.668e+00 1.048e+00 -9.229e-01 -1.647e-02 1.563e-02
ITEM: TIMESTEP
0
ITEM: NUMBER OF ATOMS
89
ITEM: BOX BOUNDS xy xz yz pp pp pp
                     0.00000000000000e+00 1.06200000000000e+01 0.00000000000000e+00
0.00000000000000e+00	1.06200000000000e+01	0.00000000000000e+00
0.00000000000000e+00	1.06200000000000e+01	0.00000000000000e+00
ITEM: ATOMS id type x y z DisplacementX DisplacementY DisplacementZ
179 1 -1.768e-03 5.799e-03 -5.983e+00 -4.089e-01 -2.593e-02 2.403e-02
180 1 3.539e+00 -3.537e+00 -2.491e+00 -3.378e-01 -9.358e-02 -4.773e-03
181 1 -3.541e+00 3.544e+00 -2.489e+00 -4.300e-01 6.282e-03 3.538e-02
182 1 -3.544e+00 -3.536e+00 -2.491e+00 -4.576e-01 9.901e-03 5.791e-02
183 1 3.538e+00 3.545e+00 -2.491e+00 -3.651e-01 -2.234e-02 -2.898e-03
184 1 1.775e+00 -3.535e+00 -4.258e+00 -3.619e-01 -8.105e-02 1.097e-02
185 1 3.539e+00 -1.770e+00 -4.258e+00 -3.322e-01 -9.122e-02 -1.168e-02
186 1 -1.776e+00 -3.533e+00 -4.257e+00 -4.469e-01 -3.706e-03 5.599e-02
187 1 3.539e+00 1.780e+00 -4.257e+00 -3.648e-01 -4.672e-02 -4.572e-03
188 1 -3.541e+00 1.780e+00 -4.256e+00 -4.667e-01 9.918e-04 3.892e-02
189 1 -1.777e+00 3.543e+00 -4.257e+00 -4.560e-01 -6.472e-03 3.966e-02
190 1 -3.539e+00 -1.771e+00 -4.257e+00 -4.512e-01 1.116e-02 5.124e-02
191 1 1.774e+00 3.543e+00 -4.257e+00 -3.883e-01 -2.915e-02 1.406e-02
192 1 -2.199e-03 3.620e+00 4.660e+00 -4.879e-01 2.373e-02 2.770e-02
193 1 -3.615e+00 5.792e-03 4.662e+00 -4.034e-01 -5.622e-02 6.580e-02
194 1 3.613e+00 5.828e-03 4.661e+00 -3.530e-01 -4.548e-02 -2.797e-02
195 1 -4.499e-04 -3.608e+00 4.660e+00 -4.394e-01 -3.139e-02 3.755e-02
196 1 5.298e+00 -1.763e+00 1.049e+00 -3.092e-01 -8.727e-02 -2.785e-02
197 1 1.766e+00 -5.293e+00 1.048e+00 -4.804e-01 -7.188e-02 5.693e-02
198 1 1.766e+00 5.302e+00 1.048e+00 -4.864e-01 8.328e-02 -3.576e-03
199 1 -5.301e+00 -1.764e+00 1.047e+00 -4.743e-01 -1.692e-02 3.594e-02
200 1 -1.769e+00 5.302e+00 1.047e+00 -4.531e-01 9.263e-02 2.386e-02
201 1 -5.300e+00 1.772e+00 1.047e+00 -4.008e-01 -1.508e-02 2.434e-02
202 1 5.298e+00 1.774e+00 1.047e+00 -3.030e-01 -7.905e-02 -2.027e-02
203 1 -1.768e+00 -5.292e+00 1.047e+00 -5.417e-01 -4.058e-02 8.112e-02
204 1 -6.054e-04 -5.272e+00 -7.252e-01 -5.205e-01 -6.225e-02 7.744e-02
205 1 5.275e+00 5.010e-03 -7.231e-01 -3.013e-01 -9.220e-02 -2.836e-02
206 1 -5.277e+00 4.005e-03 -7.246e-01 -4.414e-01 -5.474e-03 2.099e-02
207 1 -6.244e-04 5.281e+00 -7.240e-01 -4.523e-01 8.357e-02 1.344e-02
208 1 -5.276e+00 6.188e-03 2.822e+00 -4.290e-01 -4.268e-02 4.207e-02
209 1 -8.123e-04 5.279e+00 2.820e+00 -5.124e-01 8.907e-02 1.546e-02
210 1 -3.245e-04 -5.271e+00 2.822e+00 -5.031e-01 -5.109e-02 6.487e-02
211 1 5.274e+00 4.438e-03 2.820e+00 -2.997e-01 -7.955e-02 -3.062e-02
212 1 -1.792e+00 1.797e+00 4.599e+00 -4.483e-01 -3.246e-02 5.961e-02
213 1 1.790e+00 -1.788e+00 4.601e+00 -4.145e-01 -3.366e-02 -3.970e-03
214 1 1.791e+00 1.800e+00 4.599e+00 -4.581e-01 -1.808e-02 -3.687e-03
215 1 -1.792e+00 -1.788e+00 4.601e+00 -4.503e-01 -4.494e-02 5.649e-02
216 1 3.518e+00 -3.514e+00 1.048e+00 -4.259e-01 -7.103e-02 -1.228e-03
217 1 -3.521e+00 3.524e+00 1.047e+00 -4.241e-01 3.424e-02 2.942e-02
218 1 3.520e+00 3.525e+00 1.047e+00 -4.306e-01 4.297e-04 -1.730e-02
219 1 -3.522e+00 -3.517e+00 1.048e+00 -5.534e-01 -1.326e-02 6.083e-02
220 1 -1.782e-03 5.498e-03 4.541e+00 -4.754e-01 -3.932e-02 2.634e-02
221 1 -3.566e+00 1.812e+00 2.815e+00 -4.779e-01 -2.673e-02 5.293e-02
222 1 -1.810e+00 3.568e+00 2.812e+00 -5.331e-01 5.175e-02 4.122e-02
223 1 -3.564e+00 -1.801e+00 2.811e+00 -5.438e-01 -3.765e-02 6.050e-02
224 1 1.807e+00 3.567e+00 2.812e+00 -5.618e-01 4.170e-02 -7.990e-04
225 1 1.808e+00 -3.558e+00 2.812e+00 -5.224e-01 -5.113e-02 2.521e-02
226 1 3.561e+00 -1.803e+00 2.811e+00 -4.189e-01 -6.372e-02 -2.808e-02
227 1 -1.809e+00 -3.558e+00 2.810e+00 -5.854e-01 -3.255e-02 6.874e-02
228 1 3.561e+00 1.814e+00 2.812e+00 -4.352e-01 -4.907e-02 -2.670e-02
229 1 1.764e+00 4.326e-03 -4.222e+00 -5.034e-01 -5.997e-02 1.309e-03
230 1 -1.599e-03 -1.762e+00 -4.223e+00 -5.516e-01 -3.897e-02 3.555e-02
231 1 -1.079e-03 1.771e+00 -4.219e+00 -5.573e-01 -2.260e-02 3.058e-02
232 1 -1.766e+00 3.634e-03 -4.222e+00 -5.870e-01 -3.360e-04 4.342e-02
233 1 3.611e+00 5.065e-03 -2.564e+00 -4.289e-01 -8.424e-02 -2.165e-02
234 1 -2.299e-04 -3.609e+00 -2.565e+00 -5.657e-01 -4.909e-02 5.521e-02
235 1 -1.273e-04 3.617e+00 -2.564e+00 -5.285e-01 1.954e-02 2.584e-02
236 1 -3.614e+00 2.872e-03 -2.563e+00 -5.610e-01 1.592e-02 3.952e-02
237 1 -1.024e-03 7.340e-03 2.104e+00 -5.095e-01 -1.119e-02 8.063e-03
238 1 1.036e-03 -8.199e-04 1.670e-03 -5.327e-01 1.620e-02 -5.614e-03
239 1 1.807e+00 -3.557e+00 -7.156e-01 -5.599e-01 -8.159e-02 3.164e-02
240 1 3.560e+00 -1.803e+00 -7.168e-01 -4.445e-01 -9.914e-02 -2.177e-02
241 1 -1.809e+00 -3.558e+00 -7.160e-01 -6.488e-01 -1.714e-02 7.701e-02
242 1 3.559e+00 1.813e+00 -7.178e-01 -4.415e-01 -5.595e-02 -2.092e-02
243 1 -3.561e+00 1.813e+00 -7.157e-01 -5.263e-01 1.907e-02 2.657e-02
244 1 -1.808e+00 3.565e+00 -7.170e-01 -5.342e-01 6.409e-02 2.917e-02
245 1 -3.562e+00 -1.802e+00 -7.160e-01 -6.061e-01 9.856e-03 4.658e-02
246 1 1.805e+00 3.567e+00 -7.169e-01 -5.311e-01 3.819e-02 -2.453e-03
247 1 -2.084e-04 -2.029e+00 -8.670e-01 -6.339e-01 -1.221e-02 2.568e-02
248 1 2.032e+00 1.998e-03 -8.649e-01 -5.383e-01 -3.278e-02 -2.210e-02
249 1 -2.032e+00 5.232e-03 -8.636e-01 -6.075e-01 2.800e-02 2.102e-02
250 1 -1.031e-03 2.034e+00 -8.626e-01 -5.753e-01 3.818e-02 4.859e-03
251 1 -2.036e+00 5.168e-03 2.961e+00 -5.538e-01 -4.046e-02 5.696e-02
252 1 -4.236e-04 2.042e+00 2.963e+00 -5.897e-01 3.984e-03 2.428e-02
253 1 -1.610e-03 -2.027e+00 2.962e+00 -5.808e-01 -3.332e-02 3.100e-02
254 1 2.032e+00 5.386e-03 2.960e+00 -5.205e-01 -4.176e-02 -1.765e-02
255 1 -2.064e-04 3.555e+00 1.048e+00 -6.194e-01 9.419e-02 1.242e-02
256 1 -3.552e+00 3.284e-03 1.049e+00 -5.830e-01 -1.433e-02 3.807e-02
257 1 3.549e+00 5.551e-03 1.046e+00 -4.485e-01 -8.681e-02 -3.500e-02
258 1 -1.749e-03 -3.545e+00 1.048e+00 -6.773e-01 -5.271e-02 6.861e-02
259 1 1.791e+00 -1.786e+00 -2.504e+00 -5.513e-01 -8.620e-02 1.483e-03
260 1 -1.790e+00 -1.786e+00 -2.503e+00 -6.625e-01 8.979e-03 5.771e-02
261 1 1.790e+00 1.796e+00 -2.504e+00 -5.565e-01 -2.954e-02 -1.280e-03
262 1 -1.793e+00 1.797e+00 -2.503e+00 -6.305e-01 1.478e-02 3.837e-02
263 1 -8.475e-05 3.304e-03 -2.441e+00 -6.361e-01 -5.193e-03 1.445e-02
264 1 1.672e+00 -1.669e+00 1.050e+00 -5.768e-01 -4.707e-02 -4.410e-03
265 1 -1.676e+00 1.679e+00 1.050e+00 -5.747e-01 3.046e-02 2.656e-02
266 1 1.674e+00 1.678e+00 1.051e+00 -5.681e-01 4.820e-03 -1.797e-02
267 1 -1.676e+00 -1.668e+00 1.049e+00 -6.596e-01 -5.248e-03 4.727e-02
ITEM: TIMESTEP
0
ITEM: NUMBER OF ATOMS
89
ITEM: BOX BOUNDS xy xz yz pp pp pp
                     0.00000000000000e+00 1.06200000000000e+01 0.00000000000000e+00
0.00000000000000e+00	1.06200000000000e+01	0.00000000000000e+00
0.00000000000000e+00	1.06200000000000e+01	0.00000000000000e+00
ITEM: ATOMS id type x y z DisplacementX DisplacementY DisplacementZ
268 1 -2.324e-03 5.822e-03 -5.984e+00 -3.869e-01 -6.360e-02 2.506e-02
269 1 3.540e+00 -3.536e+00 -2.492e+00 -4.268e-01 -8.082e-02 -6.525e-03
270 1 -3.542e+00 3.546e+00 -2.491e+00 -3.919e-01 -2.240e-02 1.186e-02
271 1 -3.543e+00 -3.536e+00 -2.491e+00 -3.733e-01 -1.231e-01 -1.352e-02
272 1 3.539e+00 3.545e+00 -2.491e+00 -3.711e-01 -5.503e-02 -7.641e-04
273 1 1.774e+00 -3.534e+00 -4.257e+00 -4.283e-01 -1.058e-01 2.278e-03
274 1 3.537e+00 -1.771e+00 -4.258e+00 -4.104e-01 -8.156e-02 6.416e-04
275 1 -1.778e+00 -3.535e+00 -4.258e+00 -3.890e-01 -1.425e-01 -8.533e-03
276 1 3.539e+00 1.779e+00 -4.257e+00 -3.757e-01 -6.847e-02 8.770e-03
277 1 -3.541e+00 1.779e+00 -4.259e+00 -4.048e-01 -4.295e-02 1.726e-02
278 1 -1.777e+00 3.545e+00 -4.258e+00 -4.208e-01 -3.588e-02 2.720e-02
279 1 -3.542e+00 -1.770e+00 -4.256e+00 -3.620e-01 -1.176e-01 -7.938e-03
280 1 1.773e+00 3.543e+00 -4.257e+00 -3.825e-01 -6.079e-02 2.094e-02
281 1 -2.526e-03 3.622e+00 4.662e+00 -4.559e-01 1.342e-01 -6.607e-02
282 1 -3.617e+00 4.535e-03 4.660e+00 -3.874e-01 5.069e-02 -3.283e-02
283 1 3.611e+00 6.518e-03 4.661e+00 -3.958e-01 1.511e-02 -9.666e-02
284 1 -1.560e-03 -3.609e+00 4.661e+00 -4.093e-01 -2.713e-02 -4.709e-02
285 1 5.296e+00 -1.762e+00 1.048e+00 -4.253e-01 -1.387e-02 -7.153e-02
286 1 1.766e+00 -5.293e+00 1.048e+00 -5.180e-01 -7.964e-02 -1.053e-02
287 1 1.768e+00 5.304e+00 1.049e+00 -4.761e-01 8.832e-02 -5.075e-02
288 1 -5.300e+00 -1.762e+00 1.048e+00 -3.831e-01 8.217e-03 -2.519e-02
289 1 -1.770e+00 5.304e+00 1.049e+00 -4.531e-01 1.033e-01 -3.076e-02
290 1 -5.299e+00 1.772e+00 1.050e+00 -3.669e-01 3.625e-02 -2.708e-02
291 1 5.298e+00 1.773e+00 1.049e+00 -4.398e-01 1.921e-03 -8.428e-02
292 1 -1.767e+00 -5.293e+00 1.047e+00 -5.206e-01 -9.108e-02 -1.029e-02
293 1 -1.250e-03 -5.272e+00 -7.230e-01 -5.434e-01 -1.169e-01 -1.108e-03
294 1 5.274e+00 3.586e-03 -7.232e-01 -4.247e-01 -2.021e-02 -6.319e-02
295 1 -5.276e+00 6.175e-03 -7.235e-01 -3.510e-01 1.306e-03 -2.259e-02
296 1 -1.465e-03 5.283e+00 -7.246e-01 -4.454e-01 5.626e-02 -1.799e-02
297 1 -5.277e+00 3.837e-03 2.819e+00 -3.872e-01 3.908e-02 -2.818e-02
298 1 -1.560e-03 5.280e+00 2.819e+00 -4.893e-01 1.422e-01 -5.801e-02
299 1 -2.187e-03 -5.272e+00 2.818e+00 -4.977e-01 -7.236e-02 -1.920e-02
300 1 5.277e+00 3.083e-03 2.821e+00 -4.216e-01 2.119e-03 -9.395e-02
301 1 -1.793e+00 1.796e+00 4.601e+00 -4.342e-01 1.015e-01 -5.189e-02
302 1 1.789e+00 -1.787e+00 4.600e+00 -4.059e-01 -3.055e-03 -8.195e-02
303 1 1.791e+00 1.797e+00 4.603e+00 -4.491e-01 8.210e-02 -9.517e-02
304 1 -1.793e+00 -1.788e+00 4.601e+00 -4.124e-01 1.478e-02 -4.969e-02
305 1 3.519e+00 -3.515e+00 1.047e+00 -4.897e-01 -4.453e-02 -4.641e-02
306 1 -3.522e+00 3.525e+00 1.049e+00 -4.242e-01 6.891e-02 -3.084e-02
307 1 3.519e+00 3.527e+00 1.047e+00 -4.828e-01 3.716e-02 -7.414e-02
308 1 -3.522e+00 -3.515e+00 1.047e+00 -4.775e-01 -4.417e-02 -2.655e-02
309 1 -5.773e-04 6.129e-03 4.542e+00 -4.382e-01 4.714e-02 -7.953e-02
310 1 -3.563e+00 1.815e+00 2.811e+00 -4.669e-01 7.724e-02 -4.065e-02
311 1 -1.810e+00 3.567e+00 2.812e+00 -5.209e-01 1.380e-01 -5.382e-02
312 1 -3.563e+00 -1.803e+00 2.812e+00 -4.788e-01 1.783e-02 -4.189e-02
313 1 1.808e+00 3.567e+00 2.814e+00 -5.520e-01 1.167e-01 -8.792e-02
314 1 1.804e+00 -3.559e+00 2.811e+00 -5.296e-01 -4.995e-02 -5.454e-02
315 1 3.561e+00 -1.804e+00 2.812e+00 -4.878e-01 -1.111e-02 -9.592e-02
316 1 -1.809e+00 -3.558e+00 2.812e+00 -5.370e-01 -4.487e-02 -4.117e-02
317 1 3.561e+00 1.813e+00 2.812e+00 -5.178e-01 4.000e-02 -1.119e-01
318 1 1.764e+00 4.152e-03 -4.222e+00 -5.226e-01 -8.811e-02 9.799e-03
319 1 -8.387e-04 -1.761e+00 -4.223e+00 -5.348e-01 -1.281e-01 4.807e-03
320 1 -9.662e-04 1.770e+00 -4.223e+00 -5.278e-01 -6.443e-02 2.796e-02
321 1 -1.766e+00 3.683e-03 -4.222e+00 -5.100e-01 -8.965e-02 1.212e-02
322 1 3.611e+00 5.340e-03 -2.565e+00 -5.034e-01 -7.177e-02 -2.445e-02
323 1 -6.280e-04 -3.611e+00 -2.566e+00 -5.739e-01 -1.477e-01 -9.852e-03
324 1 -3.516e-03 3.617e+00 -2.563e+00 -5.090e-01 -2.683e-02 1.317e-02
325 1 -3.615e+00 2.698e-03 -2.562e+00 -4.522e-01 -6.429e-02 -8.072e-03
326 1 -5.078e-04 9.004e-03 2.103e+00 -4.735e-01 2.035e-02 -8.165e-02
327 1 -2.029e-03 1.744e-03 -1.803e-03 -4.918e-01 -2.846e-02 -6.362e-02
328 1 1.806e+00 -3.557e+00 -7.165e-01 -6.194e-01 -1.015e-01 -2.639e-02
329 1 3.561e+00 -1.801e+00 -7.162e-01 -5.511e-01 -5.186e-02 -5.626e-02
330 1 -1.808e+00 -3.556e+00 -7.173e-01 -5.970e-01 -1.219e-01 -2.372e-02
331 1 3.563e+00 1.812e+00 -7.184e-01 -5.291e-01 -2.584e-02 -6.166e-02
332 1 -3.563e+00 1.812e+00 -7.164e-01 -4.644e-01 6.848e-03 -2.284e-02
333 1 -1.807e+00 3.566e+00 -7.141e-01 -5.130e-01 3.601e-02 -1.462e-02
334 1 -3.563e+00 -1.803e+00 -7.140e-01 -4.917e-01 -5.603e-02 -3.173e-02
335 1 1.806e+00 3.566e+00 -7.169e-01 -5.376e-01 1.202e-02 -3.493e-02
336 1 -1.893e-03 -2.031e+00 -8.649e-01 -6.085e-01 -9.730e-02 -4.629e-02
337 1 2.032e+00 4.765e-03 -8.653e-01 -5.672e-01 -5.230e-02 -6.074e-02
338 1 -2.034e+00 3.321e-03 -8.636e-01 -5.196e-01 -4.035e-02 -4.032e-02
339 1 -1.279e-03 2.035e+00 -8.616e-01 -5.416e-01 -1.221e-02 -3.474e-02
340 1 -2.035e+00 5.173e-03 2.961e+00 -5.106e-01 5.330e-02 -6.383e-02
341 1 1.148e-03 2.040e+00 2.963e+00 -5.553e-01 1.081e-01 -8.837e-02
342 1 1.095e-03 -2.026e+00 2.961e+00 -5.399e-01 -1.291e-02 -8.087e-02
343 1 2.033e+00 3.538e-03 2.961e+00 -5.302e-01 2.613e-02 -1.137e-01
344 1 -1.090e-03 3.555e+00 1.048e+00 -5.962e-01 1.070e-01 -5.830e-02
345 1 -3.554e+00 4.852e-03 1.048e+00 -5.020e-01 2.334e-02 -4.360e-02
346 1 3.549e+00 2.506e-03 1.047e+00 -5.717e-01 -1.350e-02 -1.052e-01
347 1 -1.339e-03 -3.546e+00 1.049e+00 -6.752e-01 -9.824e-02 -3.723e-02
348 1 1.790e+00 -1.788e+00 -2.505e+00 -6.164e-01 -1.162e-01 -1.782e-02
349 1 -1.793e+00 -1.787e+00 -2.503e+00 -5.691e-01 -1.420e-01 -2.008e-02
350 1 1.792e+00 1.794e+00 -2.504e+00 -5.587e-01 -7.175e-02 -3.607e-03
351 1 -1.792e+00 1.797e+00 -2.505e+00 -5.618e-01 -4.666e-02 7.460e-03
352 1 -5.775e-04 3.233e-03 -2.444e+00 -5.954e-01 -8.731e-02 -1.731e-02
353 1 1.675e+00 -1.669e+00 1.049e+00 -6.008e-01 -4.574e-02 -7.904e-02
354 1 -1.674e+00 1.678e+00 1.050e+00 -5.324e-01 5.387e-02 -5.356e-02
355 1 1.671e+00 1.679e+00 1.049e+00 -5.801e-01 2.945e-02 -8.995e-02
356 1 -1.673e+00 -1.669e+00 1.048e+00 -5.801e-01 -3.801e-02 -5.573e-02
ITEM: TIMESTEP
0
ITEM: NUMBER OF ATOMS
89
ITEM: BOX BOUNDS xy xz yz pp pp pp
                     0.00000000000000e+00 1.06200000000000e+01 0.00000000000000e+00
0.00000000000000e+00	1.06200000000000e+01	0.00000000000000e+00
0.00000000000000e+00	1.06200000000000e+01	0.00000000000000e+00
ITEM: ATOMS id type x y z DisplacementX DisplacementY DisplacementZ
357 1 -4.306e-05 6.803e-03 -5.985e+00 -4.292e-01 -1.243e-02 3.666e-02
358 1 3.541e+00 -3.536e+00 -2.492e+00 -5.409e-01 -1.170e-01 4.139e-03
359 1 -3.543e+00 3.546e+00 -2.491e+00 -4.447e-01 -3.865e-02 5.742e-02
360 1 -3.543e+00 -3.537e+00 -2.491e+00 -4.778e-01 7.436e-03 6.659e-02
361 1 3.539e+00 3.545e+00 -2.490e+00 -4.638e-01 -5.208e-02 1.476e-02
362 1 1.776e+00 -3.534e+00 -4.258e+00 -5.305e-01 -9.101e-02 1.317e-02
363 1 3.538e+00 -1.770e+00 -4.256e+00 -5.103e-01 -9.849e-02 -1.931e-04
364 1 -1.778e+00 -3.536e+00 -4.257e+00 -4.852e-01 -1.419e-03 5.973e-02
365 1 3.537e+00 1.780e+00 -4.259e+00 -4.570e-01 -4.768e-02 1.565e-02
366 1 -3.541e+00 1.781e+00 -4.256e+00 -4.550e-01 -2.320e-02 6.058e-02
367 1 -1.777e+00 3.542e+00 -4.254e+00 -4.749e-01 -3.839e-02 5.900e-02
368 1 -3.539e+00 -1.771e+00 -4.258e+00 -4.521e-01 1.211e-02 6.485e-02
369 1 1.774e+00 3.543e+00 -4.257e+00 -4.640e-01 -4.186e-02 3.256e-02
370 1 -1.173e-03 3.621e+00 4.661e+00 -5.844e-01 -2.413e-02 5.233e-02
371 1 -3.616e+00 3.973e-03 4.662e+00 -4.354e-01 -1.374e-03 6.598e-02
372 1 3.613e+00 5.266e-03 4.660e+00 -4.460e-01 -4.137e-02 -2.252e-02
373 1 2.320e-04 -3.610e+00 4.661e+00 -4.808e-01 -2.378e-02 1.805e-02
374 1 5.300e+00 -1.762e+00 1.049e+00 -4.835e-01 -1.097e-01 -1.609e-02
375 1 1.768e+00 -5.293e+00 1.048e+00 -6.016e-01 -9.523e-02 4.569e-02
376 1 1.768e+00 5.302e+00 1.046e+00 -6.021e-01 -9.870e-02 2.519e-02
377 1 -5.299e+00 -1.763e+00 1.048e+00 -4.518e-01 -1.391e-02 5.992e-02
378 1 -1.768e+00 5.304e+00 1.049e+00 -5.478e-01 -6.886e-02 5.130e-02
379 1 -5.300e+00 1.773e+00 1.050e+00 -3.873e-01 -2.140e-02 5.478e-02
380 1 5.297e+00 1.774e+00 1.047e+00 -4.801e-01 -8.334e-02 -3.201e-02
381 1 -1.768e+00 -5.292e+00 1.047e+00 -5.880e-01 -5.197e-02 6.229e-02
382 1 2.527e-04 -5.271e+00 -7.246e-01 -6.259e-01 -7.878e-02 6.194e-02
383 1 5.273e+00 3.780e-03 -7.236e-01 -4.861e-01 -1.015e-01 -2.240e-02
384 1 -5.278e+00 5.242e-03 -7.228e-01 -4.146e-01 -1.489e-02 5.654e-02
385 1 4.087e-05 5.280e+00 -7.257e-01 -5.556e-01 -9.418e-02 4.072e-02
386 1 -5.277e+00 4.473e-03 2.820e+00 -4.110e-01 -1.532e-02 6.180e-02
387 1 -8.936e-04 5.281e+00 2.820e+00 -6.164e-01 -6.823e-02 4.737e-02
388 1 -3.094e-03 -5.272e+00 2.819e+00 -5.584e-01 -6.198e-02 4.425e-02
389 1 5.273e+00 5.398e-03 2.822e+00 -4.501e-01 -7.951e-02 -3.160e-02
390 1 -1.794e+00 1.795e+00 4.601e+00 -5.287e-01 -1.691e-03 7.417e-02
391 1 1.790e+00 -1.785e+00 4.599e+00 -4.812e-01 -2.924e-02 -1.149e-03
392 1 1.790e+00 1.800e+00 4.601e+00 -5.525e-01 -2.353e-02 1.556e-02
393 1 -1.793e+00 -1.786e+00 4.602e+00 -4.889e-01 -3.344e-03 4.577e-02
394 1 3.519e+00 -3.516e+00 1.049e+00 -5.927e-01 -1.069e-01 1.260e-02
395 1 -3.521e+00 3.525e+00 1.047e+00 -4.815e-01 -2.957e-02 5.926e-02
396 1 3.517e+00 3.525e+00 1.047e+00 -5.881e-01 -8.043e-02 -9.829e-03
397 1 -3.524e+00 -3.514e+00 1.047e+00 -5.695e-01 -1.589e-02 6.330e-02
398 1 -1.190e-03 6.836e-03 4.542e+00 -5.573e-01 -6.770e-03 3.589e-02
399 1 -3.563e+00 1.811e+00 2.812e+00 -5.191e-01 -1.117e-02 7.683e-02
400 1 -1.810e+00 3.568e+00 2.812e+00 -6.429e-01 -3.001e-02 7.330e-02
401 1 -3.564e+00 -1.804e+00 2.811e+00 -5.555e-01 -8.222e-03 6.545e-02
402 1 1.808e+00 3.569e+00 2.811e+00 -7.009e-01 -6.419e-02 2.483e-02
403 1 1.805e+00 -3.557e+00 2.813e+00 -6.307e-01 -6.758e-02 1.937e-02
404 1 3.561e+00 -1.801e+00 2.813e+00 -5.653e-01 -7.938e-02 -1.770e-02
405 1 -1.809e+00 -3.558e+00 2.814e+00 -6.283e-01 -2.433e-02 5.038e-02
406 1 3.560e+00 1.814e+00 2.812e+00 -5.966e-01 -6.315e-02 -2.457e-02
407 1 1.764e+00 3.784e-03 -4.222e+00 -6.212e-01 -5.350e-02 2.217e-02