ITEM: TIMESTEP
0
ITEM: NUMBER OF ATOMS
89
ITEM: BOX BOUNDS xy xz yz pp pp pp
                     0.00000000000000e+00 1.06200000000000e+01 0.00000000000000e+00
0.00000000000000e+00	1.06200000000000e+01	0.00000000000000e+00
0.00000000000000e+00	1.06200000000000e+01	0.00000000000000e+00
ITEM: ATOMS id type x y z DisplacementX DisplacementY DisplacementZ
1 1 -8.664e-04 -5.978e+00 -1.126e-05 -1.081e-01 -4.914e-02 -5.435e-02
2 1 3.545e+00 -2.487e+00 3.547e+00 -5.530e-02 1.967e-02 1.459e-02
3 1 -3.547e+00 -2.490e+00 -3.545e+00 -1.226e-02 5.574e-02 -2.632e-03
4 1 -3.546e+00 -2.490e+00 3.546e+00 -3.693e-02 -8.545e-03 2.911e-02
5 1 3.547e+00 -2.489e+00 -3.547e+00 4.966e-04 5.071e-02 -3.742e-02
6 1 1.779e+00 -4.254e+00 3.544e+00 -7.633e-02 -2.793e-02 -8.550e-03
7 1 3.545e+00 -4.255e+00 1.779e+00 -6.092e-02 -5.882e-02 4.624e-02
8 1 -1.780e+00 -4.257e+00 3.544e+00 -3.111e-02 -2.073e-02 -2.615e-02
9 1 3.546e+00 -4.256e+00 -1.779e+00 -3.465e-02 -5.365e-02 6.809e-02
10 1 -3.545e+00 -4.255e+00 -1.778e+00 1.047e-02 -3.035e-02 7.176e-02
11 1 -1.779e+00 -4.256e+00 -3.543e+00 -6.720e-02 -8.884e-03 4.028e-02
12 1 -3.544e+00 -4.256e+00 1.777e+00 1.208e-03 -4.127e-02 2.214e-02
13 1 1.779e+00 -4.256e+00 -3.546e+00 -9.540e-02 -2.184e-02 3.011e-02
14 1 1.001e-04 4.668e+00 -3.619e+00 -1.992e-02 3.980e-02 7.522e-02
15 1 -3.618e+00 4.669e+00 -9.205e-04 8.604e-02 2.156e-02 -5.587e-03
16 1 3.620e+00 4.669e+00 -5.250e-04 -8.494e-02 9.928e-02 1.800e-02
17 1 1.079e-03 4.667e+00 3.617e+00 -3.812e-02 8.693e-02 -5.960e-02
18 1 5.302e+00 1.051e+00 1.770e+00 3.236e-02 6.793e-02 3.256e-02
19 1 1.771e+00 1.053e+00 5.302e+00 -4.407e-02 1.011e-01 1.889e-02
20 1 1.768e+00 1.052e+00 -5.302e+00 -4.296e-02 1.099e-01 1.538e-02
21 1 -5.301e+00 1.055e+00 1.770e+00 7.235e-03 7.521e-02 4.041e-02
22 1 -1.772e+00 1.053e+00 -5.301e+00 -6.253e-02 1.039e-01 2.159e-02
23 1 -5.302e+00 1.054e+00 -1.771e+00 2.527e-02 9.913e-02 -1.294e-02
24 1 5.302e+00 1.054e+00 -1.770e+00 5.712e-02 1.043e-01 -4.651e-02
25 1 -1.770e+00 1.053e+00 5.302e+00 -8.803e-02 8.668e-02 3.363e-02
26 1 -2.332e-04 -7.211e-01 5.281e+00 -1.287e-01 1.181e-01 -5.183e-03
27 1 5.281e+00 -7.194e-01 7.304e-04 7.213e-02 8.990e-02 -3.472e-02
28 1 -5.279e+00 -7.209e-01 6.865e-04 3.008e-02 9.450e-02 -9.161e-03
29 1 -1.332e-04 -7.211e-01 -5.280e+00 -1.692e-01 1.297e-01 4.439e-03
30 1 -5.281e+00 2.826e+00 -9.764e-04 2.419e-03 7.984e-02 3.663e-02
31 1 -8.287e-04 2.825e+00 -5.280e+00 -3.934e-06 7.868e-02 4.043e-02
32 1 -8.398e-04 2.827e+00 5.282e+00 -3.410e-02 9.156e-02 2.672e-02
33 1 5.279e+00 2.826e+00 -9.539e-04 1.591e-02 8.372e-02 1.965e-02
34 1 -1.794e+00 4.607e+00 -1.795e+00 -6.892e-02 3.954e-02 4.244e-02
35 1 1.795e+00 4.606e+00 1.795e+00 -1.380e-01 5.277e-02 2.308e-02
36 1 1.795e+00 4.608e+00 -1.796e+00 -9.789e-02 5.169e-02 6.057e-02
37 1 -1.794e+00 4.605e+00 1.795e+00 -6.844e-03 7.682e-03 -2.156e-02
38 1 3.525e+00 1.054e+00 3.524e+00 7.207e-02 -3.023e-02 4.564e-02
39 1 -3.523e+00 1.052e+00 -3.525e+00 4.138e-02 -1.577e-02 3.482e-03
40 1 3.524e+00 1.052e+00 -3.525e+00 2.854e-02 2.388e-02 -1.095e-03
41 1 -3.524e+00 1.052e+00 3.524e+00 2.958e-02 -3.218e-02 3.070e-02
42 1 6.036e-04 4.547e+00 -2.167e-04 -7.655e-02 -6.757e-02 -6.866e-03
43 1 -3.565e+00 2.819e+00 -1.810e+00 2.854e-02 -3.712e-02 2.760e-02
44 1 -1.810e+00 2.818e+00 -3.567e+00 -1.979e-02 -5.184e-03 3.615e-02
45 1 -3.566e+00 2.819e+00 1.811e+00 8.032e-02 -5.475e-04 -6.698e-02
46 1 1.808e+00 2.819e+00 -3.566e+00 -6.300e-02 2.415e-02 5.113e-02
47 1 1.810e+00 2.818e+00 3.564e+00 -6.340e-02 5.388e-03 -7.537e-03
48 1 3.567e+00 2.819e+00 1.811e+00 -1.477e-02 2.335e-02 -7.938e-03
49 1 -1.810e+00 2.819e+00 3.563e+00 3.653e-02 -2.307e-02 -4.930e-02
50 1 3.566e+00 2.820e+00 -1.810e+00 -9.843e-03 -1.234e-02 5.986e-02
51 1 1.767e+00 -4.216e+00 -3.075e-04 -1.876e-02 -1.086e-01 6.283e-03
52 1 1.421e-04 -4.219e+00 1.767e+00 -6.036e-02 -7.406e-02 -4.859e-02
53 1 -1.136e-04 -4.219e+00 -1.767e+00 -6.796e-02 -6.088e-02 1.980e-02
54 1 -1.767e+00 -4.220e+00 -3.984e-04 2.328e-02 -5.816e-02 -2.643e-02
55 1 3.618e+00 -2.563e+00 -8.887e-04 8.071e-02 -1.074e-02 -1.401e-02
56 1 1.010e-04 -2.563e+00 3.618e+00 -8.418e-02 5.401e-02 1.170e-03
57 1 -3.659e-04 -2.562e+00 -3.618e+00 -8.033e-02 4.997e-02 -3.886e-03
58 1 -3.618e+00 -2.561e+00 1.591e-03 -1.805e-02 3.470e-02 -2.987e-03
59 1 2.144e-03 2.105e+00 -1.707e-03 2.280e-02 -5.390e-01 1.664e-02
60 1 -8.206e-04 1.212e-03 1.010e-03 4.206e-01 -2.398e-01 7.043e-02
61 1 1.809e+00 -7.112e-01 3.566e+00 6.837e-03 5.639e-02 2.434e-02
62 1 3.567e+00 -7.142e-01 1.810e+00 9.183e-02 3.579e-02 -3.208e-02
63 1 -1.810e+00 -7.136e-01 3.566e+00 6.517e-03 5.762e-02 5.789e-04
64 1 3.568e+00 -7.125e-01 -1.811e+00 9.736e-02 6.344e-02 -3.755e-02
65 1 -3.565e+00 -7.129e-01 -1.810e+00 -3.254e-02 6.242e-02 -8.703e-03
66 1 -1.810e+00 -7.121e-01 -3.566e+00 3.540e-02 2.153e-02 -5.626e-03
67 1 -3.565e+00 -7.119e-01 1.810e+00 -4.698e-02 3.800e-02 -2.020e-02
68 1 1.808e+00 -7.137e-01 -3.566e+00 2.681e-02 2.352e-02 1.163e-03
69 1 9.062e-04 -8.615e-01 2.037e+00 5.505e-02 -2.371e-02 -7.821e-02
70 1 2.034e+00 -8.624e-01 -1.022e-03 2.841e-01 -9.783e-02 -1.405e-02
71 1 -2.036e+00 -8.621e-01 -2.145e-03 1.969e-01 -6.914e-02 -3.575e-02
72 1 9.596e-04 -8.625e-01 -2.035e+00 3.971e-02 -6.074e-02 -4.026e-03
73 1 -2.034e+00 2.966e+00 -1.483e-03 5.918e-02 -1.943e-01 -2.765e-02
74 1 3.370e-04 2.967e+00 -2.036e+00 -1.997e-02 -1.800e-01 7.607e-02
75 1 -6.695e-04 2.968e+00 2.035e+00 9.498e-03 -1.494e-01 -7.060e-02
76 1 2.035e+00 2.969e+00 6.109e-04 -7.615e-02 -1.342e-01 2.626e-02
77 1 9.226e-04 1.053e+00 -3.555e+00 -1.291e-02 8.549e-03 2.387e-02
78 1 -3.553e+00 1.053e+00 2.043e-03 4.659e-02 -1.146e-02 -3.309e-02
79 1 3.552e+00 1.053e+00 1.969e-04 1.375e-01 5.585e-03 -2.063e-02
80 1 2.506e-04 1.053e+00 3.554e+00 2.082e-02 -1.063e-02 3.660e-02
81 1 1.793e+00 -2.503e+00 1.793e+00 1.028e-01 1.041e-01 5.240e-02
82 1 -1.794e+00 -2.503e+00 1.794e+00 1.678e-02 8.856e-02 8.405e-02
83 1 1.794e+00 -2.501e+00 -1.795e+00 1.365e-01 8.618e-02 -1.539e-02
84 1 -1.794e+00 -2.501e+00 -1.795e+00 2.926e-02 9.320e-02 3.002e-02
85 1 -3.185e-04 -2.442e+00 2.209e-04 9.299e-02 -8.857e-02 -9.992e-04
86 1 1.676e+00 1.053e+00 1.675e+00 8.175e-02 -8.550e-02 8.244e-03
87 1 -1.674e+00 1.054e+00 -1.675e+00 -2.981e-02 -6.622e-02 -6.299e-02
88 1 1.675e+00 1.052e+00 -1.674e+00 7.058e-02 -3.679e-02 -7.709e-02
89 1 -1.676e+00 1.053e+00 1.677e+00 -6.047e-02 -8.643e-02 7.583e-03
ITEM: TIMESTEP
0
ITEM: NUMBER OF ATOMS
89
ITEM: BOX BOUNDS xy xz yz pp pp pp
                     0.00000000000000e+00 1.06200000000000e+01 0.00000000000000e+00
0.00000000000000e+00	1.06200000000000e+01	0.00000000000000e+00
0.00000000000000e+00	1.06200000000000e+01	0.00000000000000e+00
ITEM: ATOMS id type x y z DisplacementX DisplacementY DisplacementZ
90 1 8.827e-04 -5.979e+00 -2.927e-04 -7.175e-02 -9.782e-02 -8.604e-02
91 1 3.545e+00 -2.490e+00 3.545e+00 -1.218e-03 -3.365e-02 -6.157e-02
92 1 -3.545e+00 -2.488e+00 -3.546e+00 -3.538e-02 -2.066e-02 -4.320e-02
93 1 -3.546e+00 -2.488e+00 3.546e+00 -7.207e-02 -4.926e-02 -2.679e-02
94 1 3.547e+00 -2.488e+00 -3.544e+00 1.316e-02 -3.502e-02 -7.580e-02
95 1 1.779e+00 -4.255e+00 3.544e+00 -1.321e-02 -7.871e-02 -7.115e-02
96 1 3.544e+00 -4.255e+00 1.778e+00 -3.035e-02 -4.330e-02 -6.233e-02
97 1 -1.778e+00 -4.256e+00 3.545e+00 6.089e-02 -6.298e-02 -8.366e-02
98 1 3.544e+00 -4.253e+00 -1.777e+00 -7.258e-02 -4.777e-02 -5.708e-03
99 1 -3.543e+00 -4.255e+00 -1.777e+00 6.076e-02 -1.259e-02 -3.085e-02
100 1 -1.780e+00 -4.256e+00 -3.544e+00 5.256e-02 -4.371e-02 -1.128e-02
101 1 -3.544e+00 -4.255e+00 1.777e+00 5.621e-02 -4.728e-02 -9.991e-02
102 1 1.779e+00 -4.254e+00 -3.543e+00 -6.831e-02 -9.859e-02 -1.121e-02
103 1 1.007e-03 4.670e+00 -3.620e+00 -4.219e-03 4.712e-03 -5.214e-02
104 1 -3.619e+00 4.669e+00 -7.786e-04 2.780e-03 -3.449e-02 4.225e-02
105 1 3.620e+00 4.669e+00 5.103e-04 -4.187e-02 6.210e-02 -5.311e-02
106 1 -8.679e-04 4.669e+00 3.617e+00 -7.351e-02 6.200e-02 -7.660e-02
107 1 5.301e+00 1.052e+00 1.769e+00 -2.382e-02 1.105e-02 4.752e-02
108 1 1.769e+00 1.053e+00 5.302e+00 8.009e-02 -3.744e-02 -5.739e-03
109 1 1.770e+00 1.052e+00 -5.302e+00 1.031e-01 -4.026e-02 -1.254e-03
110 1 -5.302e+00 1.054e+00 1.770e+00 8.707e-03 -2.341e-03 4.396e-02
111 1 -1.771e+00 1.052e+00 -5.302e+00 -1.208e-01 2.010e-02 -2.132e-02
112 1 -5.303e+00 1.053e+00 -1.769e+00 -2.369e-02 4.343e-02 -5.429e-02
113 1 5.303e+00 1.053e+00 -1.769e+00 5.325e-02 9.756e-03 -2.983e-02
114 1 -1.770e+00 1.054e+00 5.301e+00 -1.352e-01 1.656e-02 -6.851e-03
115 1 -6.740e-05 -7.217e-01 5.281e+00 -1.122e-02 -1.043e-01 -3.368e-02
116 1 5.280e+00 -7.223e-01 -7.244e-05 -3.960e-02 6.671e-03 -3.926e-02
117 1 -5.281e+00 -7.218e-01 5.575e-04 8.764e-03 -5.194e-02 -5.978e-02
118 1 -3.128e-04 -7.211e-01 -5.279e+00 -3.168e-03 -1.534e-01 1.056e-02
119 1 -5.279e+00 2.824e+00 -1.183e-03 3.338e-02 3.007e-02 3.965e-02
120 1 -1.106e-03 2.827e+00 -5.280e+00 -2.880e-02 5.892e-02 -6.187e-03
121 1 1.830e-05 2.827e+00 5.280e+00 -1.771e-02 4.296e-02 -7.604e-03
122 1 5.281e+00 2.827e+00 8.145e-04 2.972e-03 3.039e-02 3.573e-02
123 1 -1.794e+00 4.607e+00 -1.795e+00 -4.593e-02 -1.145e-01 -9.648e-02
124 1 1.793e+00 4.606e+00 1.794e+00 -4.832e-03 -1.104e-01 -9.579e-02
125 1 1.793e+00 4.607e+00 -1.795e+00 3.000e-02 -1.350e-01 -9.675e-02
126 1 -1.795e+00 4.607e+00 1.794e+00 -4.688e-02 -1.258e-01 -6.340e-02
127 1 3.524e+00 1.055e+00 3.525e+00 3.133e-02 -3.650e-02 -7.556e-03
128 1 -3.524e+00 1.051e+00 -3.523e+00 -4.938e-02 6.169e-04 -1.787e-02
129 1 3.525e+00 1.052e+00 -3.524e+00 4.993e-02 -5.524e-03 -2.387e-02
130 1 -3.523e+00 1.053e+00 3.524e+00 -5.853e-02 7.202e-03 -5.831e-03
131 1 1.331e-03 4.546e+00 -2.017e-03 2.102e-02 -7.664e-02 -1.183e-01
132 1 -3.565e+00 2.819e+00 -1.809e+00 1.861e-02 -1.859e-02 1.112e-02
133 1 -1.811e+00 2.819e+00 -3.565e+00 4.393e-02 -4.532e-02 -3.466e-02
134 1 -3.567e+00 2.818e+00 1.810e+00 2.175e-02 -4.383e-03 -5.497e-02
135 1 1.809e+00 2.818e+00 -3.567e+00 -2.482e-02 -5.690e-02 -3.540e-02
136 1 1.810e+00 2.818e+00 3.566e+00 -8.943e-03 -8.986e-02 -5.760e-02
137 1 3.566e+00 2.820e+00 1.811e+00 -2.672e-02 -3.136e-02 -6.612e-02
138 1 -1.809e+00 2.818e+00 3.565e+00 8.621e-02 -8.721e-02 -4.304e-02
139 1 3.565e+00 2.819e+00 -1.811e+00 2.437e-03 -6.017e-02 1.843e-02
140 1 1.767e+00 -4.218e+00 -3.005e-04 -9.489e-02 -4.203e-02 -2.306e-02
141 1 1.680e-04 -4.217e+00 1.766e+00 2.580e-02 -6.579e-02 -6.191e-02
142 1 2.476e-04 -4.220e+00 -1.768e+00 -1.238e-02 -5.527e-02 3.879e-02
143 1 -1.767e+00 -4.218e+00 -1.030e-03 8.712e-02 -2.308e-02 -3.548e-02
144 1 3.619e+00 -2.561e+00 -1.554e-03 -4.031e-02 2.063e-02 -3.378e-02
145 1 -1.696e-03 -2.562e+00 3.620e+00 -1.102e-02 2.723e-02 -4.129e-02
146 1 -7.734e-04 -2.563e+00 -3.619e+00 1.204e-02 -1.140e-02 -2.174e-02
147 1 -3.618e+00 -2.561e+00 -3.347e-04 1.465e-02 3.214e-03 -5.735e-02
148 1 -3.754e-05 2.105e+00 -1.049e-03 4.355e-02 -4.276e-01 -1.468e-01
149 1 6.161e-04 8.398e-04 -2.414e-04 -8.733e-03 5.259e-01 2.625e-01
150 1 1.810e+00 -7.141e-01 3.566e+00 -1.549e-02 5.479e-02 -3.351e-02
151 1 3.567e+00 -7.127e-01 1.811e+00 1.056e-02 1.001e-02 -2.039e-02
152 1 -1.810e+00 -7.121e-01 3.566e+00 3.406e-02 3.991e-02 6.897e-03
153 1 3.565e+00 -7.121e-01 -1.811e+00 1.873e-02 1.345e-02 2.124e-02
154 1 -3.566e+00 -7.129e-01 -1.809e+00 3.600e-02 -1.015e-02 3.924e-02
155 1 -1.809e+00 -7.130e-01 -3.564e+00 6.750e-02 5.723e-03 1.390e-02
156 1 -3.567e+00 -7.136e-01 1.811e+00 6.021e-03 -1.208e-02 -1.627e-02
157 1 1.811e+00 -7.120e-01 -3.566e+00 -9.484e-03 2.751e-02 -4.480e-02
158 1 -9.791e-04 -8.600e-01 2.034e+00 2.017e-02 -1.968e-02 6.703e-02
159 1 2.036e+00 -8.641e-01 -3.028e-04 -1.607e-01 1.418e-01 7.695e-02
160 1 -2.035e+00 -8.617e-01 -7.240e-04 1.186e-01 1.167e-01 7.423e-02
161 1 -2.345e-04 -8.623e-01 -2.034e+00 -3.267e-02 -2.445e-02 1.946e-01
162 1 -2.034e+00 2.967e+00 1.076e-03 1.574e-01 -9.896e-02 -6.223e-02
163 1 3.816e-06 2.966e+00 -2.038e+00 -7.035e-04 -4.034e-02 -6.241e-02
164 1 -1.121e-05 2.967e+00 2.035e+00 -1.016e-03 -2.812e-02 -1.734e-01
165 1 2.034e+00 2.967e+00 9.136e-04 -6.665e-02 -3.476e-02 -1.378e-01
166 1 8.217e-06 1.051e+00 -3.554e+00 1.930e-02 -3.752e-03 -1.516e-02
167 1 -3.555e+00 1.053e+00 -1.078e-03 3.750e-02 -2.466e-02 2.331e-02
168 1 3.553e+00 1.055e+00 -2.860e-04 2.742e-02 -2.696e-02 3.800e-02
169 1 -6.542e-04 1.052e+00 3.553e+00 3.858e-02 -1.880e-02 2.552e-03
170 1 1.793e+00 -2.502e+00 1.795e+00 9.479e-02 1.515e-01 1.742e-01
171 1 -1.795e+00 -2.500e+00 1.794e+00 -5.297e-02 1.392e-01 1.591e-01
172 1 1.794e+00 -2.502e+00 -1.794e+00 1.036e-01 1.370e-01 7.878e-02
173 1 -1.795e+00 -2.502e+00 -1.793e+00 -2.900e-02 1.450e-01 6.219e-02
174 1 -1.785e-03 -2.441e+00 4.607e-04 2.474e-02 6.996e-02 1.416e-01
175 1 1.675e+00 1.052e+00 1.674e+00 9.440e-02 -7.824e-02 8.602e-02
176 1 -1.675e+00 1.052e+00 -1.677e+00 -1.803e-01 6.872e-02 -1.142e-01
177 1 1.676e+00 1.053e+00 -1.675e+00 6.638e-02 5.418e-03 -7.288e-02
178 1 -1.675e+00 1.051e+00 1.674e+00 -1.402e-01 8.663e-03 4.543e-02
ITEM: TIMESTEP
0
ITEM: NUMBER OF ATOMS
89
ITEM: BOX BOUNDS xy xz yz pp pp pp
                     0.00000000000000e+00 1.06200000000000e+01 0.00000000000000e+00
0.00000000000000e+00	1.06200000000000e+01	0.00000000000000e+00
0.00000000000000e+00	1.06200000000000e+01	0.00000000000000e+00
ITEM: ATOMS id type x y z DisplacementX DisplacementY DisplacementZ
179 1 -2.934e-04 -5.979e+00 5.839e-04 -1.122e-01 -1.039e-01 -4.786e-02
180 1 3.546e+00 -2.491e+00 3.547e+00 -7.403e-02 -8.544e-02 5.716e-02
181 1 -3.545e+00 -2.489e+00 -3.545e+00 -6.314e-02 -7.377e-03 -3.219e-02
182 1 -3.545e+00 -2.489e+00 3.547e+00 -1.098e-01 -7.180e-02 3.691e-02
183 1 3.546e+00 -2.488e+00 -3.545e+00 -7.115e-02 -3.770e-02 -6.949e-03
184 1 1.779e+00 -4.256e+00 3.543e+00 -9.811e-02 -1.634e-02 -2.942e-02
185 1 3.545e+00 -4.255e+00 1.777e+00 -1.123e-01 -8.753e-02 -4.054e-02
186 1 -1.778e+00 -4.255e+00 3.545e+00 -3.785e-02 -2.993e-02 -5.706e-02
187 1 3.545e+00 -4.254e+00 -1.778e+00 -1.422e-01 -5.403e-02 6.258e-02
188 1 -3.543e+00 -4.253e+00 -1.779e+00 -2.461e-02 -4.880e-02 4.625e-02
189 1 -1.778e+00 -4.254e+00 -3.545e+00 -6.050e-03 -3.069e-02 4.931e-02
190 1 -3.543e+00 -4.255e+00 1.779e+00 -1.328e-02 -1.276e-01 -4.448e-02
191 1 1.779e+00 -4.255e+00 -3.544e+00 -8.486e-02 -6.244e-02 8.935e-02
192 1 -1.153e-03 4.670e+00 -3.617e+00 -7.027e-03 -2.598e-02 2.324e-02
193 1 -3.617e+00 4.668e+00 8.420e-04 3.360e-02 -9.773e-03 -9.609e-02
194 1 3.618e+00 4.667e+00 3.048e-04 -2.598e-02 2.055e-02 -4.744e-03
195 1 -8.089e-04 4.668e+00 3.619e+00 -2.911e-02 1.774e-02 -3.415e-02
196 1 5.303e+00 1.051e+00 1.770e+00 -9.366e-03 -4.519e-02 7.010e-02
197 1 1.768e+00 1.053e+00 5.304e+00 3.492e-02 1.558e-02 6.927e-02
198 1 1.771e+00 1.052e+00 -5.300e+00 9.782e-02 1.364e-02 -5.888e-02
199 1 -5.302e+00 1.052e+00 1.771e+00 -9.937e-03 -5.762e-02 9.080e-02
200 1 -1.771e+00 1.053e+00 -5.303e+00 -4.204e-02 1.593e-02 -1.090e-02
201 1 -5.301e+00 1.053e+00 -1.771e+00 -1.068e-02 4.668e-02 -1.472e-01
202 1 5.302e+00 1.051e+00 -1.770e+00 -8.880e-03 2.030e-02 -1.019e-01
203 1 -1.770e+00 1.053e+00 5.302e+00 -4.646e-02 3.412e-02 5.946e-02
204 1 8.109e-04 -7.210e-01 5.280e+00 -4.819e-02 3.044e-02 4.588e-02
205 1 5.282e+00 -7.201e-01 -7.479e-04 -6.909e-02 -1.329e-01 -1.234e-03
206 1 -5.279e+00 -7.224e-01 1.115e-03 8.735e-03 -1.519e-01 1.100e-02
207 1 -9.031e-04 -7.208e-01 -5.279e+00 -4.125e-03 -6.529e-02 -2.040e-02
208 1 -5.280e+00 2.825e+00 -3.040e-04 2.711e-02 4.994e-02 -5.205e-02
209 1 1.646e-03 2.825e+00 -5.280e+00 4.361e-02 1.546e-02 3.632e-02
210 1 -1.935e-03 2.827e+00 5.279e+00 2.213e-02 3.861e-02 5.216e-02
211 1 5.280e+00 2.825e+00 -4.715e-04 -4.606e-03 3.884e-02 1.286e-02
212 1 -1.793e+00 4.607e+00 -1.796e+00 -1.675e-01 -9.710e-02 -8.391e-02
213 1 1.794e+00 4.607e+00 1.796e+00 -1.421e-01 -1.256e-01 2.778e-02
214 1 1.794e+00 4.606e+00 -1.795e+00 -1.359e-01 -9.379e-02 -2.616e-02
215 1 -1.795e+00 4.607e+00 1.795e+00 -1.286e-01 -1.638e-01 -8.206e-03
216 1 3.525e+00 1.052e+00 3.525e+00 -2.034e-02 -5.934e-02 3.931e-02
217 1 -3.524e+00 1.054e+00 -3.525e+00 8.276e-03 1.991e-02 -2.034e-02
218 1 3.523e+00 1.053e+00 -3.524e+00 1.472e-02 -3.665e-03 -2.941e-02
219 1 -3.527e+00 1.053e+00 3.525e+00 -3.781e-02 -3.013e-03 5.189e-02
220 1 7.100e-04 4.548e+00 -7.777e-04 -9.622e-02 -1.003e-01 1.170e-02
221 1 -3.564e+00 2.819e+00 -1.809e+00 8.092e-03 -6.522e-02 2.712e-02
222 1 -1.809e+00 2.818e+00 -3.566e+00 1.045e-02 1.361e-02 -1.537e-02
223 1 -3.567e+00 2.818e+00 1.810e+00 3.899e-02 -7.043e-02 -9.681e-02
224 1 1.809e+00 2.819e+00 -3.566e+00 -3.863e-02 -8.588e-03 -1.202e-02
225 1 1.809e+00 2.821e+00 3.567e+00 -8.481e-02 -4.038e-02 -3.172e-02
226 1 3.567e+00 2.819e+00 1.810e+00 -4.395e-02 -4.346e-02 -7.849e-02
227 1 -1.810e+00 2.819e+00 3.568e+00 5.206e-02 -3.350e-02 -5.097e-02
228 1 3.564e+00 2.818e+00 -1.811e+00 1.294e-02 -5.357e-02 2.955e-02
229 1 1.767e+00 -4.216e+00 9.586e-04 -5.153e-02 -5.243e-02 -2.702e-04
230 1 -1.907e-04 -4.218e+00 1.767e+00 -1.890e-02 -2.279e-02 -1.040e-01
231 1 1.237e-03 -4.218e+00 -1.767e+00 8.975e-03 -2.278e-02 7.891e-02
232 1 -1.768e+00 -4.219e+00 1.688e-03 1.045e-01 -7.646e-02 -1.993e-02
233 1 3.618e+00 -2.563e+00 2.309e-04 -5.751e-02 -2.909e-02 2.609e-02
234 1 -3.499e-05 -2.561e+00 3.619e+00 -2.403e-02 1.974e-02 -1.058e-02
235 1 4.217e-04 -2.563e+00 -3.619e+00 -5.385e-02 -6.900e-04 2.056e-02
236 1 -3.617e+00 -2.564e+00 7.143e-04 -5.532e-02 -2.262e-02 2.829e-03
237 1 4.283e-04 2.106e+00 3.622e-04 -2.105e-01 -4.190e-01 9.699e-03
238 1 1.730e-03 -5.841e-04 3.176e-04 2.969e-01 5.005e-01 8.422e-02
239 1 1.811e+00 -7.135e-01 3.565e+00 2.089e-02 7.108e-03 1.461e-02
240 1 3.566e+00 -7.138e-01 1.811e+00 -7.552e-03 1.830e-02 -4.225e-02
241 1 -1.810e+00 -7.138e-01 3.566e+00 7.220e-02 2.426e-02 2.196e-02
242 1 3.566e+00 -7.130e-01 -1.809e+00 4.368e-02 4.886e-02 9.374e-03
243 1 -3.567e+00 -7.135e-01 -1.811e+00 1.053e-02 2.481e-02 6.459e-02
244 1 -1.809e+00 -7.128e-01 -3.567e+00 3.336e-02 -4.947e-04 4.719e-02
245 1 -3.566e+00 -7.124e-01 1.811e+00 -3.901e-02 7.941e-03 -2.592e-02
246 1 1.810e+00 -7.128e-01 -3.567e+00 -1.625e-02 -3.973e-03 9.451e-04
247 1 -1.173e-03 -8.614e-01 2.034e+00 9.581e-02 1.641e-01 -1.752e-01
248 1 2.034e+00 -8.604e-01 1.898e-03 2.854e-02 -1.731e-02 -3.727e-02
249 1 -2.035e+00 -8.604e-01 -2.315e-03 1.823e-01 -1.460e-02 -2.757e-02
250 1 -1.894e-04 -8.625e-01 -2.036e+00 8.044e-02 1.103e-01 1.103e-01
251 1 -2.035e+00 2.968e+00 1.879e-03 -3.945e-03 -6.252e-02 -1.539e-02
252 1 4.960e-04 2.966e+00 -2.035e+00 -2.838e-02 -1.156e-01 1.826e-01
253 1 -4.633e-04 2.966e+00 2.035e+00 -7.212e-02 -4.833e-02 -8.289e-02
254 1 2.035e+00 2.969e+00 2.240e-03 -1.771e-01 -3.431e-02 9.436e-03
255 1 -1.856e-03 1.052e+00 -3.553e+00 -2.444e-03 -2.636e-03 3.888e-02
256 1 -3.554e+00 1.051e+00 -2.787e-03 -7.542e-03 1.505e-02 -1.861e-02
257 1 3.553e+00 1.052e+00 -7.205e-04 2.274e-02 -3.138e-03 -1.236e-02
258 1 -8.631e-04 1.055e+00 3.554e+00 2.522e-02 1.654e-02 -1.625e-03
259 1 1.795e+00 -2.503e+00 1.795e+00 2.183e-01 1.668e-01 7.866e-02
260 1 -1.794e+00 -2.503e+00 1.796e+00 7.872e-02 1.729e-01 7.318e-02
261 1 1.795e+00 -2.501e+00 -1.794e+00 1.674e-01 1.521e-01 -2.655e-02
262 1 -1.795e+00 -2.500e+00 -1.795e+00 5.762e-02 1.696e-01 -3.543e-02
263 1 -5.103e-04 -2.443e+00 2.458e-03 1.231e-01 5.660e-02 -4.463e-03
264 1 1.677e+00 1.051e+00 1.675e+00 1.000e-01 -5.412e-02 5.169e-02
265 1 -1.675e+00 1.052e+00 -1.675e+00 -1.485e-01 3.370e-02 -1.445e-01
266 1 1.677e+00 1.053e+00 -1.678e+00 3.837e-02 3.013e-02 -1.446e-01
267 1 -1.675e+00 1.054e+00 1.676e+00 -9.519e-02 -2.579e-02 5.443e-02
ITEM: TIMESTEP
0
ITEM: NUMBER OF ATOMS
89
ITEM: BOX BOUNDS xy xz yz pp pp pp
                     0.00000000000000e+00 1.06200000000000e+01 0.00000000000000e+00
0.00000000000000e+00	1.06200000000000e+01	0.00000000000000e+00
0.00000000000000e+00	1.06200000000000e+01	0.00000000000000e+00
ITEM: ATOMS id type x y z DisplacementX DisplacementY DisplacementZ
268 1 1.036e-03 -5.979e+00 -6.751e-04 -5.392e-02 -8.827e-02 -6.030e-03
269 1 3.547e+00 -2.489e+00 3.545e+00 -1.718e-02 1.918e-02 2.266e-02
270 1 -3.546e+00 -2.489e+00 -3.545e+00 -7.271e-02 -5.690e-02 3.063e-02
271 1 -3.546e+00 -2.490e+00 3.545e+00 -5.026e-02 -2.459e-02 3.266e-02
272 1 3.546e+00 -2.491e+00 -3.547e+00 1.395e-02 -3.589e-02 4.723e-02
273 1 1.780e+00 -4.255e+00 3.544e+00 -2.937e-02 -7.845e-02 6.311e-02
274 1 3.545e+00 -4.256e+00 1.778e+00 -5.828e-02 -6.847e-02 3.067e-02
275 1 -1.779e+00 -4.254e+00 3.544e+00 -4.787e-03 -7.767e-02 1.556e-02
276 1 3.543e+00 -4.256e+00 -1.779e+00 -9.092e-02 -7.028e-02 9.182e-02
277 1 -3.545e+00 -4.257e+00 -1.780e+00 -2.999e-03 -3.198e-02 2.124e-02
278 1 -1.778e+00 -4.256e+00 -3.545e+00 6.632e-03 -7.063e-02 3.957e-02
279 1 -3.544e+00 -4.255e+00 1.778e+00 -1.776e-02 -9.818e-04 -2.125e-02
280 1 1.777e+00 -4.259e+00 -3.545e+00 -6.535e-02 -4.223e-02 1.058e-01
281 1 -1.512e-03 4.668e+00 -3.620e+00 -5.778e-02 7.886e-02 -1.121e-01
282 1 -3.617e+00 4.670e+00 6.101e-04 1.090e-01 9.622e-03 -1.221e-01
283 1 3.619e+00 4.668e+00 -7.493e-04 -1.205e-01 1.317e-01 -1.175e-01
284 1 1.039e-03 4.668e+00 3.621e+00 -3.111e-02 1.767e-01 -2.425e-01
285 1 5.303e+00 1.052e+00 1.770e+00 -2.128e-02 -2.713e-02 8.814e-02
286 1 1.770e+00 1.053e+00 5.304e+00 1.488e-01 -4.707e-02 4.991e-02
287 1 1.771e+00 1.051e+00 -5.301e+00 1.453e-01 -7.132e-02 3.930e-02
288 1 -5.303e+00 1.053e+00 1.771e+00 -4.020e-02 4.493e-02 5.642e-02
289 1 -1.770e+00 1.054e+00 -5.301e+00 -1.385e-01 2.084e-02 2.642e-02
290 1 -5.303e+00 1.053e+00 -1.768e+00 9.626e-03 5.540e-02 -1.372e-02
291 1 5.302e+00 1.054e+00 -1.770e+00 3.708e-02 2.377e-02 -4.970e-02
292 1 -1.768e+00 1.052e+00 5.300e+00 -7.861e-02 -7.754e-03 9.092e-02
293 1 2.973e-05 -7.234e-01 5.280e+00 7.546e-02 -8.363e-02 1.101e-01
294 1 5.279e+00 -7.212e-01 9.522e-04 -1.572e-02 -4.394e-02 3.214e-02
295 1 -5.278e+00 -7.220e-01 -1.855e-03 3.472e-03 5.532e-03 5.630e-02
296 1 4.737e-04 -7.213e-01 -5.281e+00 1.772e-02 -1.289e-01 1.030e-01
297 1 -5.280e+00 2.825e+00 1.348e-03 8.995e-03 5.745e-02 1.368e-02
298 1 2.789e-04 2.826e+00 -5.280e+00 -5.319e-02 8.315e-02 -4.359e-02
299 1 1.346e-03 2.827e+00 5.279e+00 -1.632e-02 8.567e-02 -6.847e-02
300 1 5.279e+00 2.826e+00 -9.372e-05 -3.509e-02 5.484e-02 -2.612e-02
301 1 -1.797e+00 4.609e+00 -1.795e+00 -7.378e-02 -1.126e-01 8.675e-02
302 1 1.793e+00 4.606e+00 1.795e+00 1.988e-02 -6.291e-02 1.221e-01
303 1 1.795e+00 4.607e+00 -1.795e+00 3.033e-02 -6.984e-02 8.641e-02
304 1 -1.793e+00 4.608e+00 1.795e+00 -3.695e-02 -9.681e-02 1.214e-01
305 1 3.525e+00 1.053e+00 3.525e+00 3.399e-02 -1.717e-02 -1.713e-02
306 1 -3.524e+00 1.054e+00 -3.524e+00 -2.660e-02 7.832e-02 -2.438e-02
307 1 3.524e+00 1.054e+00 -3.525e+00 8.713e-02 2.276e-03 -4.238e-02
308 1 -3.525e+00 1.053e+00 3.524e+00 -5.152e-02 4.025e-02 3.737e-03
309 1 -6.096e-05 4.547e+00 -1.909e-03 5.549e-02 -1.134e-01 1.367e-01
310 1 -3.564e+00 2.818e+00 -1.808e+00 1.119e-02 -1.237e-02 1.202e-02
311 1 -1.809e+00 2.819e+00 -3.568e+00 7.142e-02 1.114e-02 -6.664e-02
312 1 -3.564e+00 2.819e+00 1.809e+00 -4.041e-02 6.724e-03 -9.023e-02
313 1 1.811e+00 2.817e+00 -3.567e+00 -7.568e-02 -2.661e-02 -3.497e-02
314 1 1.809e+00 2.818e+00 3.567e+00 -7.169e-02 -4.780e-02 -3.080e-02
315 1 3.566e+00 2.819e+00 1.810e+00 -1.504e-02 -4.805e-02 -6.284e-02
316 1 -1.809e+00 2.819e+00 3.566e+00 7.494e-02 4.731e-03 -6.004e-02
317 1 3.566e+00 2.819e+00 -1.808e+00 2.009e-02 -3.700e-02 2.928e-02
318 1 1.768e+00 -4.219e+00 -6.983e-04 -5.852e-02 -8.270e-02 2.879e-02
319 1 -7.038e-04 -4.219e+00 1.768e+00 1.805e-02 -8.148e-02 -3.807e-02
320 1 -1.845e-03 -4.220e+00 -1.768e+00 -2.076e-02 -5.594e-02 1.033e-02
321 1 -1.766e+00 -4.219e+00 -1.120e-03 6.489e-02 -8.723e-02 -3.425e-02
322 1 3.618e+00 -2.562e+00 4.871e-04 -8.357e-02 4.350e-02 -7.439e-03
323 1 -8.477e-04 -2.563e+00 3.618e+00 5.371e-03 1.061e-02 2.472e-02
324 1 -1.243e-03 -2.563e+00 -3.619e+00 -2.891e-02 -2.553e-02 3.645e-02
325 1 -3.619e+00 -2.562e+00 2.691e-03 4.230e-02 -6.638e-02 -1.029e-03
326 1 -1.358e-03 2.105e+00 -8.788e-04 7.212e-02 -5.151e-01 3.566e-01
327 1 -1.166e-03 2.076e-04 9.467e-04 -1.328e-01 6.265e-01 -3.796e-01
328 1 1.810e+00 -7.133e-01 3.565e+00 6.802e-04 2.136e-02 3.638e-02
329 1 3.567e+00 -7.131e-01 1.810e+00 -2.951e-02 2.808e-02 -5.345e-02
330 1 -1.810e+00 -7.149e-01 3.567e+00 5.797e-02 2.197e-03 4.232e-02
331 1 3.564e+00 -7.127e-01 -1.809e+00 -2.512e-02 1.064e-02 1.616e-02
332 1 -3.567e+00 -7.124e-01 -1.811e+00 3.310e-02 -3.908e-02 5.613e-02
333 1 -1.811e+00 -7.136e-01 -3.566e+00 7.183e-02 -2.569e-02 3.130e-02
334 1 -3.565e+00 -7.136e-01 1.810e+00 4.787e-03 -1.009e-02 -8.454e-03
335 1 1.811e+00 -7.145e-01 -3.564e+00 5.865e-03 -9.611e-03 4.236e-02
336 1 4.489e-04 -8.605e-01 2.035e+00 3.797e-02 2.026e-02 -1.743e-01
337 1 2.035e+00 -8.630e-01 2.903e-03 -1.126e-01 9.626e-02 -1.250e-01
338 1 -2.034e+00 -8.604e-01 1.329e-03 1.249e-01 7.191e-02 -1.613e-01
339 1 9.303e-04 -8.612e-01 -2.034e+00 4.321e-03 -9.465e-03 -6.480e-02
340 1 -2.036e+00 2.967e+00 -8.766e-04 1.831e-01 -1.181e-01 1.167e-01
341 1 1.722e-03 2.967e+00 -2.034e+00 -1.893e-02 -8.314e-02 1.497e-01
342 1 -6.462e-06 2.967e+00 2.036e+00 -1.403e-02 -4.499e-02 -1.938e-02
343 1 2.034e+00 2.967e+00 -4.667e-04 -1.722e-01 -5.933e-02 1.071e-01
344 1 2.635e-04 1.052e+00 -3.553e+00 2.193e-02 9.104e-03 -8.425e-03
345 1 -3.553e+00 1.053e+00 5.572e-04 5.285e-02 -3.183e-02 1.918e-02
346 1 3.554e+00 1.052e+00 -1.551e-03 4.244e-02 -8.370e-03 3.932e-04
347 1 -9.753e-04 1.051e+00 3.555e+00 5.670e-02 -2.351e-02 6.944e-02
348 1 1.794e+00 -2.502e+00 1.797e+00 2.627e-02 2.374e-01 -8.283e-02
349 1 -1.794e+00 -2.501e+00 1.797e+00 -2.692e-02 2.039e-01 -5.908e-02
350 1 1.793e+00 -2.502e+00 -1.794e+00 6.706e-02 2.107e-01 -1.227e-01
351 1 -1.794e+00 -2.504e+00 -1.793e+00 -2.252e-02 1.927e-01 -1.170e-01
352 1 -3.692e-05 -2.442e+00 -3.820e-04 7.165e-02 -2.796e-02 -8.119e-02
353 1 1.675e+00 1.054e+00 1.676e+00 1.269e-01 -6.214e-02 1.236e-01
354 1 -1.676e+00 1.052e+00 -1.676e+00 -1.871e-01 6.012e-02 -9.536e-02
355 1 1.675e+00 1.054e+00 -1.677e+00 1.542e-01 -1.911e-02 -7.482e-02
356 1 -1.674e+00 1.050e+00 1.675e+00 -1.795e-01 -9.974e-03 1.158e-01
ITEM: TIMESTEP
0
ITEM: NUMBER OF ATOMS
89
ITEM: BOX BOUNDS xy xz yz pp pp pp
                     0.00000000000000e+00 1.06200000000000e+01 0.00000000000000e+00
0.00000000000000e+00	1.06200000000000e+01	0.00000000000000e+00
0.00000000000000e+00	1.06200000000000e+01	0.00000000000000e+00
ITEM: ATOMS id type x y z DisplacementX DisplacementY DisplacementZ
357 1 -1.533e-03 -5.981e+00 -1.200e-04 2.527e-02 -5.302e-02 -8.245e-02
358 1 3.547e+00 -2.491e+00 3.548e+00 6.192e-02 5.441e-02 -6.503e-02
359 1 -3.547e+00 -2.489e+00 -3.547e+00 3.514e-03 2.544e-02 -9.495e-02
360 1 -3.546e+00 -2.491e+00 3.546e+00 6.457e-02 5.909e-02 1.456e-02
361 1 3.544e+00 -2.490e+00 -3.547e+00 3.557e-02 5.160e-02 1.122e-03
362 1 1.778e+00 -4.258e+00 3.545e+00 2.072e-02 -1.647e-02 -6.941e-04
363 1 3.544e+00 -4.255e+00 1.777e+00 8.304e-02 -2.764e-02 -4.236e-02
364 1 -1.780e+00 -4.256e+00 3.545e+00 5.173e-02 2.242e-03 -2.462e-02
365 1 3.544e+00 -4.255e+00 -1.778e+00 3.688e-03 4.637e-03 5.749e-02
366 1 -3.542e+00 -4.255e+00 -1.779e+00 -2.791e-02 -8.087e-02 -4.414e-02
367 1 -1.778e+00 -4.255e+00 -3.544e+00 4.215e-02 5.976e-02 -5.064e-02
368 1 -3.546e+00 -4.256e+00 1.778e+00 8.922e-02 -8.905e-02 -8.277e-02
369 1 1.778e+00 -4.255e+00 -3.544e+00 4.893e-02 6.514e-02 3.450e-02
370 1 -1.002e-03 4.668e+00 -3.620e+00 4.965e-02 4.573e-02 -2.269e-02
371 1 -3.620e+00 4.669e+00 7.185e-05 9.633e-02 8.500e-02 2.336e-02
372 1 3.618e+00 4.668e+00 9.277e-04 -6.074e-02 1.017e-01 -8.673e-02
373 1 -2.909e-03 4.667e+00 3.619e+00 -8.927e-03 9.999e-02 -6.257e-02
374 1 5.303e+00 1.052e+00 1.769e+00 7.194e-02 2.765e-02 3.200e-02
375 1 1.768e+00 1.052e+00 5.303e+00 1.624e-01 4.629e-02 3.394e-02
376 1 1.770e+00 1.052e+00 -5.301e+00 1.169e-01 4.160e-02 2.485e-02
377 1 -5.301e+00 1.053e+00 1.769e+00 -1.702e-02 5.519e-02 9.432e-03
378 1 -1.771e+00 1.053e+00 -5.304e+00 4.698e-02 9.461e-02 -2.263e-02
379 1 -5.302e+00 1.053e+00 -1.771e+00 -3.171e-02 9.598e-02 -1.315e-01
380 1 5.302e+00 1.052e+00 -1.769e+00 5.139e-02 3.775e-02 -2.988e-02
381 1 -1.770e+00 1.054e+00 5.301e+00 1.280e-01 8.656e-02 6.906e-02
382 1 -3.369e-04 -7.215e-01 5.280e+00 1.651e-01 6.994e-02 5.641e-02
383 1 5.280e+00 -7.216e-01 9.200e-04 1.086e-01 -4.073e-02 1.029e-02
384 1 -5.280e+00 -7.208e-01 -6.580e-04 4.582e-02 -8.830e-02 -3.600e-02
385 1 -3.753e-04 -7.191e-01 -5.279e+00 1.530e-01 7.283e-02 3.459e-04
386 1 -5.279e+00 2.827e+00 1.176e-03 -6.233e-03 1.022e-01 -5.598e-02
387 1 -1.074e-03 2.825e+00 -5.280e+00 5.344e-03 9.958e-02 2.003e-03
388 1 -1.169e-03 2.826e+00 5.280e+00 3.706e-02 1.417e-01 -2.367e-02
389 1 5.280e+00 2.827e+00 8.759e-04 -9.925e-03 9.978e-02 -2.169e-02
390 1 -1.792e+00 4.608e+00 -1.793e+00 1.303e-01 -2.913e-02 9.506e-03
391 1 1.795e+00 4.606e+00 1.795e+00 4.422e-02 -7.408e-02 -3.947e-02
392 1 1.793e+00 4.609e+00 -1.794e+00 1.383e-01 -1.077e-01 -6.114e-02
393 1 -1.793e+00 4.609e+00 1.794e+00 1.492e-01 -6.666e-02 5.877e-02
394 1 3.522e+00 1.053e+00 3.525e+00 -3.644e-02 -3.683e-02 -1.043e-02
395 1 -3.524e+00 1.053e+00 -3.525e+00 -4.615e-02 3.136e-02 -5.818e-02
396 1 3.524e+00 1.054e+00 -3.526e+00 -3.653e-02 2.854e-02 5.952e-02
397 1 -3.525e+00 1.053e+00 3.526e+00 -8.917e-02 -5.736e-03 -4.517e-03
398 1 5.181e-04 4.546e+00 -2.937e-04 2.238e-01 -1.244e-01 2.551e-02
399 1 -3.565e+00 2.819e+00 -1.812e+00 -3.050e-03 2.462e-02 3.517e-02
400 1 -1.811e+00 2.818e+00 -3.565e+00 3.706e-02 -8.349e-03 -1.295e-02
401 1 -3.566e+00 2.816e+00 1.811e+00 4.145e-02 -2.986e-02 -8.087e-02
402 1 1.811e+00 2.818e+00 -3.566e+00 -5.320e-02 4.916e-02 2.162e-02
403 1 1.810e+00 2.820e+00 3.566e+00 -9.169e-02 3.888e-02 -6.828e-02
404 1 3.564e+00 2.819e+00 1.810e+00 -3.768e-02 -6.585e-02 -7.801e-02
405 1 -1.810e+00 2.820e+00 3.566e+00 5.951e-02 -4.300e-02 -8.457e-02
406 1 3.565e+00 2.817e+00 -1.808e+00 -1.347e-02 -4.320e-02 6.240e-02
407 1 1.768e+00 -4.219e+00 -1.695e-03 2.663e-02 -9.993e-02 -2.361e-02
408 1 -2.930e-04 -4.219e+00 1.767e+00 4.039e-02 -1.287e-01 -9.628e-02
409 1 -1.071e-03 -4.222e+00 -1.768e+00 2.087e-02 -9.062e-02 -1.290e-03
410 1 -1.767e+00 -4.220e+00 6.407e-04 6.439e-02 -1.884e-01 -9.086e-02