ITEM: TIMESTEP
0
ITEM: NUMBER OF ATOMS
89
ITEM: BOX BOUNDS xy xz yz pp pp pp
                     0.00000000000000e+00 1.06200000000000e+01 0.00000000000000e+00
0.00000000000000e+00	1.06200000000000e+01	0.00000000000000e+00
0.00000000000000e+00	1.06200000000000e+01	0.00000000000000e+00
ITEM: ATOMS id type x y z DisplacementX DisplacementY DisplacementZ
1 1 -1.630e-03 6.640e-03 -5.983e+00 -4.514e-01 -6.144e-02 2.856e-02
2 1 3.540e+00 -3.536e+00 -2.491e+00 -4.716e-01 -1.392e-01 -2.718e-02
3 1 -3.541e+00 3.544e+00 -2.489e+00 -4.188e-01 8.053e-05 4.415e-02
4 1 -3.544e+00 -3.537e+00 -2.491e+00 -4.245e-01 -4.002e-02 4.349e-02
5 1 3.540e+00 3.547e+00 -2.492e+00 -5.114e-01 -7.338e-02 -5.961e-03
6 1 1.774e+00 -3.534e+00 -4.257e+00 -4.731e-01 -1.304e-01 -7.982e-03
7 1 3.537e+00 -1.771e+00 -4.257e+00 -4.663e-01 -1.360e-01 -1.669e-02
8 1 -1.776e+00 -3.536e+00 -4.256e+00 -4.342e-01 -5.612e-02 3.682e-02
9 1 3.537e+00 1.781e+00 -4.257e+00 -5.009e-01 -1.051e-01 8.194e-04
10 1 -3.540e+00 1.779e+00 -4.256e+00 -4.327e-01 -1.814e-02 5.207e-02
11 1 -1.776e+00 3.543e+00 -4.257e+00 -4.575e-01 -2.814e-02 4.865e-02
12 1 -3.539e+00 -1.770e+00 -4.255e+00 -4.098e-01 -2.993e-02 4.815e-02
13 1 1.771e+00 3.546e+00 -4.256e+00 -5.081e-01 -8.332e-02 1.744e-02
14 1 -3.156e-03 3.621e+00 4.661e+00 -5.324e-01 8.628e-02 -3.035e-03
15 1 -3.615e+00 6.201e-03 4.661e+00 -4.101e-01 1.798e-02 1.664e-03
16 1 3.613e+00 3.708e-03 4.661e+00 -4.116e-01 2.703e-02 -6.446e-02
17 1 -1.494e-03 -3.608e+00 4.660e+00 -4.212e-01 -4.738e-02 -2.643e-02
18 1 5.300e+00 -1.763e+00 1.048e+00 -4.413e-01 -5.495e-02 -7.264e-02
19 1 1.765e+00 -5.295e+00 1.049e+00 -5.616e-01 -1.316e-01 -2.258e-02
20 1 1.767e+00 5.303e+00 1.048e+00 -5.839e-01 4.934e-02 1.995e-03
21 1 -5.301e+00 -1.762e+00 1.049e+00 -4.223e-01 -2.723e-02 2.365e-02
22 1 -1.770e+00 5.303e+00 1.047e+00 -5.153e-01 8.387e-02 1.340e-02
23 1 -5.300e+00 1.773e+00 1.048e+00 -3.990e-01 2.467e-02 8.123e-03
24 1 5.298e+00 1.772e+00 1.049e+00 -4.600e-01 1.201e-03 -7.140e-02
25 1 -1.770e+00 -5.294e+00 1.047e+00 -5.412e-01 -1.048e-01 1.282e-02
26 1 -3.851e-05 -5.271e+00 -7.250e-01 -5.849e-01 -1.312e-01 3.350e-03
27 1 5.272e+00 4.176e-03 -7.253e-01 -4.516e-01 -5.957e-02 -6.627e-02
28 1 -5.278e+00 6.387e-03 -7.246e-01 -3.987e-01 -1.225e-02 2.922e-02
29 1 -2.490e-04 5.283e+00 -7.239e-01 -5.390e-01 3.824e-02 1.869e-02
30 1 -5.280e+00 4.374e-03 2.820e+00 -4.043e-01 -1.232e-03 7.275e-03
31 1 -1.982e-03 5.280e+00 2.819e+00 -5.730e-01 8.735e-02 8.490e-03
32 1 1.057e-03 -5.270e+00 2.822e+00 -5.136e-01 -1.038e-01 -1.121e-02
33 1 5.275e+00 5.948e-03 2.821e+00 -4.184e-01 1.861e-03 -7.614e-02
34 1 -1.794e+00 1.797e+00 4.600e+00 -4.895e-01 5.997e-02 -1.338e-03
35 1 1.792e+00 -1.786e+00 4.600e+00 -4.296e-01 -1.329e-02 -5.198e-02
36 1 1.792e+00 1.795e+00 4.601e+00 -5.032e-01 6.540e-02 -3.602e-02
37 1 -1.793e+00 -1.786e+00 4.601e+00 -4.281e-01 -1.075e-02 -8.408e-03
38 1 3.520e+00 -3.517e+00 1.047e+00 -5.370e-01 -1.050e-01 -5.898e-02
39 1 -3.523e+00 3.525e+00 1.048e+00 -4.708e-01 7.572e-02 5.369e-03
40 1 3.519e+00 3.524e+00 1.048e+00 -5.743e-01 2.886e-02 -4.253e-02
41 1 -3.522e+00 -3.515e+00 1.048e+00 -5.097e-01 -5.778e-02 2.355e-02
42 1 -1.199e-03 8.147e-03 4.542e+00 -4.976e-01 3.501e-02 -3.229e-02
43 1 -3.564e+00 1.811e+00 2.811e+00 -5.115e-01 5.421e-02 -6.249e-04
44 1 -1.809e+00 3.569e+00 2.812e+00 -6.028e-01 1.056e-01 2.546e-03
45 1 -3.565e+00 -1.804e+00 2.812e+00 -5.043e-01 -2.002e-02 8.772e-03
46 1 1.807e+00 3.567e+00 2.813e+00 -6.568e-01 8.214e-02 -2.144e-02
47 1 1.807e+00 -3.557e+00 2.813e+00 -5.693e-01 -9.100e-02 -4.971e-02
48 1 3.560e+00 -1.803e+00 2.813e+00 -5.142e-01 -3.354e-02 -8.130e-02
49 1 -1.808e+00 -3.556e+00 2.812e+00 -5.560e-01 -6.473e-02 -2.927e-03
50 1 3.560e+00 1.812e+00 2.814e+00 -5.560e-01 4.553e-02 -7.000e-02
51 1 1.763e+00 3.259e-03 -4.223e+00 -6.310e-01 -1.215e-01 3.689e-03
52 1 -2.624e-03 -1.760e+00 -4.221e+00 -6.142e-01 -1.005e-01 2.212e-02
53 1 -2.093e-03 1.770e+00 -4.221e+00 -6.363e-01 -6.665e-02 3.809e-02
54 1 -1.768e+00 6.044e-03 -4.222e+00 -5.818e-01 -4.237e-02 5.041e-02
55 1 3.612e+00 4.044e-03 -2.565e+00 -6.028e-01 -1.238e-01 -3.783e-02
56 1 -1.824e-03 -3.611e+00 -2.565e+00 -6.373e-01 -1.256e-01 8.057e-03
57 1 -3.069e-03 3.617e+00 -2.563e+00 -6.270e-01 -2.679e-02 3.108e-02
58 1 -3.612e+00 3.944e-03 -2.563e+00 -5.238e-01 -1.325e-02 5.285e-02
59 1 -1.342e-03 8.831e-03 2.104e+00 -5.681e-01 2.585e-02 -4.313e-02
60 1 -3.597e-04 4.753e-05 2.011e-03 -6.179e-01 -1.783e-03 -3.628e-02
61 1 1.807e+00 -3.558e+00 -7.157e-01 -6.900e-01 -1.509e-01 -3.600e-02
62 1 3.561e+00 -1.803e+00 -7.158e-01 -6.104e-01 -1.190e-01 -6.605e-02
63 1 -1.810e+00 -3.558e+00 -7.164e-01 -6.579e-01 -9.239e-02 2.393e-02
64 1 3.560e+00 1.813e+00 -7.165e-01 -6.302e-01 -4.809e-02 -5.335e-02
65 1 -3.561e+00 1.811e+00 -7.183e-01 -5.265e-01 2.723e-02 2.862e-02
66 1 -1.807e+00 3.565e+00 -7.175e-01 -5.956e-01 5.090e-02 2.599e-02
67 1 -3.564e+00 -1.801e+00 -7.138e-01 -5.633e-01 -3.597e-02 3.870e-02
68 1 1.805e+00 3.567e+00 -7.163e-01 -6.902e-01 -1.777e-03 -9.139e-03
69 1 1.335e-04 -2.031e+00 -8.648e-01 -7.111e-01 -8.029e-02 -2.023e-02
70 1 2.032e+00 4.601e-03 -8.674e-01 -6.895e-01 -6.398e-02 -5.475e-02
71 1 -2.030e+00 5.433e-03 -8.640e-01 -6.387e-01 2.499e-03 1.294e-02
72 1 -2.020e-03 2.034e+00 -8.630e-01 -6.909e-01 1.008e-02 -3.947e-03
73 1 -2.036e+00 3.678e-03 2.962e+00 -5.794e-01 3.375e-02 -1.183e-02
74 1 -2.663e-03 2.041e+00 2.962e+00 -6.591e-01 8.391e-02 -2.361e-02
75 1 -2.367e-03 -2.027e+00 2.960e+00 -5.875e-01 -2.973e-02 -4.142e-02
76 1 2.032e+00 5.978e-03 2.960e+00 -5.920e-01 2.648e-02 -7.188e-02
77 1 -2.003e-03 3.555e+00 1.047e+00 -7.306e-01 8.601e-02 -4.454e-04
78 1 -3.551e+00 4.597e-03 1.046e+00 -5.700e-01 8.187e-03 1.404e-02
79 1 3.551e+00 4.394e-03 1.048e+00 -6.179e-01 -2.965e-02 -9.440e-02
80 1 -1.700e-03 -3.547e+00 1.049e+00 -7.249e-01 -1.252e-01 -2.065e-02
81 1 1.791e+00 -1.788e+00 -2.506e+00 -7.041e-01 -1.564e-01 -2.547e-02
82 1 -1.791e+00 -1.788e+00 -2.506e+00 -6.570e-01 -5.858e-02 4.128e-02
83 1 1.789e+00 1.796e+00 -2.502e+00 -7.268e-01 -9.314e-02 -3.419e-03
84 1 -1.791e+00 1.796e+00 -2.504e+00 -6.488e-01 -1.285e-02 4.937e-02
85 1 -3.435e-04 4.906e-03 -2.442e+00 -7.264e-01 -6.185e-02 6.049e-03
86 1 1.672e+00 -1.670e+00 1.048e+00 -6.815e-01 -7.525e-02 -6.911e-02
87 1 -1.675e+00 1.678e+00 1.048e+00 -6.487e-01 7.100e-02 -5.654e-03
88 1 1.674e+00 1.678e+00 1.051e+00 -7.140e-01 3.484e-02 -5.392e-02
89 1 -1.674e+00 -1.670e+00 1.048e+00 -6.647e-01 -3.203e-02 -3.539e-03
ITEM: TIMESTEP
0
ITEM: NUMBER OF ATOMS
89
ITEM: BOX BOUNDS xy xz yz pp pp pp
                     0.00000000000000e+00 1.06200000000000e+01 0.00000000000000e+00
0.00000000000000e+00	1.06200000000000e+01	0.00000000000000e+00
0.00000000000000e+00	1.06200000000000e+01	0.00000000000000e+00
ITEM: ATOMS id type x y z DisplacementX DisplacementY DisplacementZ
90 1 4.003e-04 4.305e-03 -5.987e+00 -4.135e-01 -7.126e-02 3.178e-02
91 1 3.542e+00 -3.536e+00 -2.491e+00 -5.992e-01 -1.310e-01 2.974e-02
92 1 -3.542e+00 3.547e+00 -2.490e+00 -3.117e-01 2.316e-02 6.327e-02
93 1 -3.543e+00 -3.536e+00 -2.488e+00 -5.261e-01 -8.002e-02 4.302e-02
94 1 3.542e+00 3.547e+00 -2.489e+00 -4.384e-01 -6.957e-02 1.146e-02
95 1 1.775e+00 -3.535e+00 -4.258e+00 -5.817e-01 -1.318e-01 3.632e-02
96 1 3.538e+00 -1.773e+00 -4.257e+00 -5.388e-01 -1.286e-01 2.514e-02
97 1 -1.778e+00 -3.534e+00 -4.258e+00 -5.548e-01 -9.613e-02 4.619e-02
98 1 3.536e+00 1.781e+00 -4.259e+00 -4.463e-01 -9.292e-02 1.746e-02
99 1 -3.539e+00 1.779e+00 -4.255e+00 -3.316e-01 -6.290e-04 6.042e-02
100 1 -1.776e+00 3.544e+00 -4.256e+00 -3.232e-01 -1.725e-02 6.337e-02
101 1 -3.541e+00 -1.771e+00 -4.256e+00 -4.876e-01 -5.940e-02 4.645e-02
102 1 1.772e+00 3.544e+00 -4.258e+00 -4.138e-01 -7.605e-02 3.185e-02
103 1 -7.184e-04 3.621e+00 4.662e+00 -4.739e-01 8.300e-03 2.717e-02
104 1 -3.616e+00 4.407e-03 4.662e+00 -4.251e-01 -2.480e-02 3.290e-02
105 1 3.612e+00 4.839e-03 4.661e+00 -4.916e-01 -6.883e-02 -4.648e-02
106 1 -2.022e-03 -3.609e+00 4.661e+00 -5.440e-01 -1.070e-01 -5.900e-03
107 1 5.295e+00 -1.763e+00 1.045e+00 -5.814e-01 -1.018e-01 -2.981e-02
108 1 1.766e+00 -5.294e+00 1.047e+00 -6.862e-01 -1.586e-01 1.960e-02
109 1 1.766e+00 5.303e+00 1.049e+00 -4.942e-01 1.475e-02 1.244e-02
110 1 -5.299e+00 -1.760e+00 1.049e+00 -4.059e-01 -2.524e-02 2.479e-02
111 1 -1.767e+00 5.305e+00 1.047e+00 -4.512e-01 6.438e-02 5.170e-02
112 1 -5.299e+00 1.772e+00 1.047e+00 -3.556e-01 3.542e-02 3.551e-02
113 1 5.298e+00 1.773e+00 1.047e+00 -4.980e-01 -7.313e-02 -4.459e-02
114 1 -1.768e+00 -5.293e+00 1.048e+00 -6.030e-01 -1.512e-01 3.372e-02
115 1 -2.522e-03 -5.270e+00 -7.234e-01 -6.865e-01 -1.587e-01 3.841e-02
116 1 5.273e+00 5.785e-03 -7.237e-01 -5.371e-01 -9.572e-02 -2.593e-02
117 1 -5.278e+00 4.223e-03 -7.237e-01 -3.755e-01 1.915e-02 2.685e-02
118 1 -6.843e-04 5.281e+00 -7.248e-01 -4.509e-01 2.485e-02 4.223e-02
119 1 -5.277e+00 6.032e-03 2.819e+00 -3.786e-01 -1.048e-02 3.116e-02
120 1 -1.652e-03 5.281e+00 2.818e+00 -4.927e-01 4.307e-02 3.136e-02
121 1 4.833e-04 -5.270e+00 2.821e+00 -6.076e-01 -1.547e-01 1.358e-02
122 1 5.275e+00 5.949e-03 2.820e+00 -5.098e-01 -8.377e-02 -4.967e-02
123 1 -1.795e+00 1.797e+00 4.600e+00 -4.916e-01 1.132e-03 3.378e-02
124 1 1.791e+00 -1.786e+00 4.599e+00 -5.732e-01 -7.984e-02 -3.548e-02
125 1 1.789e+00 1.797e+00 4.599e+00 -5.107e-01 -3.455e-02 -1.390e-02
126 1 -1.794e+00 -1.785e+00 4.602e+00 -5.258e-01 -6.382e-02 1.315e-02
127 1 3.518e+00 -3.516e+00 1.048e+00 -7.012e-01 -1.261e-01 -6.566e-03
128 1 -3.523e+00 3.524e+00 1.047e+00 -4.220e-01 6.843e-02 5.246e-02
129 1 3.516e+00 3.525e+00 1.048e+00 -5.176e-01 -3.420e-02 -2.348e-02
130 1 -3.521e+00 -3.515e+00 1.049e+00 -5.392e-01 -8.957e-02 2.966e-02
131 1 -1.353e-03 5.602e-03 4.543e+00 -5.902e-01 -4.161e-02 -6.513e-03
132 1 -3.565e+00 1.814e+00 2.811e+00 -4.860e-01 2.538e-02 4.414e-02
133 1 -1.809e+00 3.568e+00 2.813e+00 -5.417e-01 5.432e-02 4.946e-02
134 1 -3.563e+00 -1.804e+00 2.811e+00 -5.323e-01 -5.340e-02 2.923e-02
135 1 1.807e+00 3.569e+00 2.810e+00 -5.775e-01 -3.207e-03 2.244e-03
136 1 1.806e+00 -3.558e+00 2.812e+00 -7.313e-01 -1.399e-01 -1.342e-02
137 1 3.562e+00 -1.803e+00 2.813e+00 -6.723e-01 -1.025e-01 -4.772e-02
138 1 -1.809e+00 -3.558e+00 2.810e+00 -6.417e-01 -1.285e-01 1.997e-02
139 1 3.563e+00 1.813e+00 2.811e+00 -5.765e-01 -6.284e-02 -4.561e-02
140 1 1.764e+00 4.593e-03 -4.223e+00 -6.140e-01 -1.172e-01 2.780e-02
141 1 -1.875e-03 -1.759e+00 -4.221e+00 -6.773e-01 -1.188e-01 4.420e-02
142 1 -1.037e-03 1.766e+00 -4.220e+00 -5.188e-01 -6.825e-02 5.045e-02
143 1 -1.765e+00 6.246e-03 -4.222e+00 -5.501e-01 -4.904e-02 5.290e-02
144 1 3.613e+00 2.059e-03 -2.565e+00 -6.422e-01 -1.186e-01 2.648e-03
145 1 5.146e-05 -3.610e+00 -2.566e+00 -7.723e-01 -1.481e-01 4.748e-02
146 1 -2.173e-03 3.617e+00 -2.562e+00 -4.968e-01 -2.285e-02 5.342e-02
147 1 -3.618e+00 7.219e-03 -2.561e+00 -5.063e-01 3.220e-03 4.788e-02
148 1 -2.504e-03 7.145e-03 2.102e+00 -6.400e-01 -2.000e-02 -1.379e-02
149 1 -8.521e-04 2.840e-04 -2.621e-03 -6.439e-01 -4.859e-03 -1.004e-02
150 1 1.807e+00 -3.558e+00 -7.174e-01 -8.538e-01 -1.603e-01 2.613e-02
151 1 3.562e+00 -1.802e+00 -7.174e-01 -7.648e-01 -1.314e-01 -5.685e-03
152 1 -1.808e+00 -3.556e+00 -7.157e-01 -7.500e-01 -1.343e-01 4.278e-02
153 1 3.561e+00 1.812e+00 -7.151e-01 -6.206e-01 -7.890e-02 -2.431e-02
154 1 -3.565e+00 1.810e+00 -7.158e-01 -4.646e-01 5.512e-02 5.229e-02
155 1 -1.809e+00 3.567e+00 -7.157e-01 -5.048e-01 5.909e-02 6.469e-02
156 1 -3.563e+00 -1.803e+00 -7.153e-01 -5.944e-01 -4.352e-02 3.530e-02
157 1 1.804e+00 3.567e+00 -7.151e-01 -5.902e-01 -1.965e-02 1.145e-02
158 1 -1.078e-03 -2.032e+00 -8.666e-01 -8.095e-01 -9.028e-02 1.718e-02
159 1 2.032e+00 4.927e-03 -8.630e-01 -7.313e-01 -6.622e-02 -1.435e-02
160 1 -2.033e+00 4.747e-03 -8.637e-01 -6.279e-01 1.142e-02 2.584e-02
161 1 -2.656e-03 2.034e+00 -8.638e-01 -6.204e-01 1.473e-02 2.161e-02
162 1 -2.035e+00 5.177e-03 2.961e+00 -6.331e-01 -2.177e-02 2.206e-02
163 1 -3.655e-04 2.041e+00 2.962e+00 -6.562e-01 4.524e-03 1.271e-02
164 1 -1.657e-05 -2.028e+00 2.959e+00 -7.448e-01 -8.991e-02 -1.292e-02
165 1 2.032e+00 4.409e-03 2.961e+00 -6.954e-01 -6.622e-02 -4.141e-02
166 1 -2.314e-04 3.556e+00 1.046e+00 -6.377e-01 4.768e-02 3.486e-02
167 1 -3.553e+00 1.540e-03 1.048e+00 -5.519e-01 1.218e-02 3.167e-02
168 1 3.550e+00 4.550e-03 1.048e+00 -7.254e-01 -9.813e-02 -4.936e-02
169 1 -2.759e-03 -3.546e+00 1.048e+00 -8.563e-01 -1.704e-01 2.042e-02
170 1 1.789e+00 -1.789e+00 -2.504e+00 -8.210e-01 -1.504e-01 2.991e-02
171 1 -1.794e+00 -1.787e+00 -2.506e+00 -7.460e-01 -8.492e-02 5.002e-02
172 1 1.791e+00 1.796e+00 -2.503e+00 -6.424e-01 -8.337e-02 1.971e-02
173 1 -1.791e+00 1.795e+00 -2.504e+00 -5.310e-01 1.046e-02 6.600e-02
174 1 -1.460e-03 2.116e-03 -2.443e+00 -7.125e-01 -5.474e-02 2.582e-02
175 1 1.672e+00 -1.668e+00 1.049e+00 -8.495e-01 -1.016e-01 -1.988e-02
176 1 -1.676e+00 1.678e+00 1.050e+00 -6.220e-01 5.806e-02 3.379e-02
177 1 1.673e+00 1.679e+00 1.049e+00 -6.980e-01 -1.889e-02 -2.510e-02
178 1 -1.674e+00 -1.670e+00 1.049e+00 -7.361e-01 -6.384e-02 1.821e-02
ITEM: TIMESTEP
0
ITEM: NUMBER OF ATOMS
89
ITEM: BOX BOUNDS xy xz yz pp pp pp
                     0.00000000000000e+00 1.06200000000000e+01 0.00000000000000e+00
0.00000000000000e+00	1.06200000000000e+01	0.00000000000000e+00
0.00000000000000e+00	1.06200000000000e+01	0.00000000000000e+00
ITEM: ATOMS id type x y z DisplacementX DisplacementY DisplacementZ
179 1 -2.621e-03 4.813e-03 -5.985e+00 -3.498e-01 -3.099e-02 9.171e-03
180 1 3.540e+00 -3.537e+00 -2.493e+00 -5.046e-01 -1.104e-01 8.495e-03
181 1 -3.542e+00 3.547e+00 -2.491e+00 -3.102e-01 7.013e-02 4.350e-02
182 1 -3.541e+00 -3.536e+00 -2.491e+00 -5.189e-01 -7.604e-02 4.063e-02
183 1 3.540e+00 3.546e+00 -2.490e+00 -3.304e-01 -3.045e-02 -4.987e-02
184 1 1.775e+00 -3.535e+00 -4.258e+00 -5.139e-01 -1.210e-01 1.092e-02
185 1 3.538e+00 -1.772e+00 -4.258e+00 -4.569e-01 -1.021e-01 -7.504e-03
186 1 -1.777e+00 -3.534e+00 -4.257e+00 -5.289e-01 -9.483e-02 3.586e-02
187 1 3.538e+00 1.780e+00 -4.258e+00 -3.239e-01 -5.460e-02 -4.054e-02
188 1 -3.539e+00 1.780e+00 -4.258e+00 -3.224e-01 6.439e-02 4.862e-02
189 1 -1.777e+00 3.544e+00 -4.255e+00 -3.068e-01 6.133e-02 3.505e-02
190 1 -3.540e+00 -1.772e+00 -4.257e+00 -4.749e-01 -4.795e-02 3.904e-02
191 1 1.774e+00 3.545e+00 -4.257e+00 -3.113e-01 -2.967e-02 -3.251e-02
192 1 -1.572e-03 3.620e+00 4.661e+00 -5.739e-01 -2.488e-02 9.308e-03
193 1 -3.616e+00 5.853e-03 4.662e+00 -4.560e-01 -4.940e-02 5.642e-02
194 1 3.613e+00 6.205e-03 4.661e+00 -4.255e-01 -5.752e-02 -3.383e-02
195 1 -1.771e-03 -3.608e+00 4.661e+00 -4.898e-01 -7.347e-02 3.000e-02
196 1 5.296e+00 -1.763e+00 1.046e+00 -3.774e-01 -7.819e-02 -1.273e-02
197 1 1.767e+00 -5.294e+00 1.048e+00 -5.890e-01 -1.266e-01 5.506e-02
198 1 1.766e+00 5.304e+00 1.048e+00 -5.231e-01 2.129e-02 -3.373e-02
199 1 -5.300e+00 -1.762e+00 1.048e+00 -4.218e-01 -3.063e-02 4.324e-02
200 1 -1.768e+00 5.305e+00 1.047e+00 -4.929e-01 -1.605e-03 2.039e-02
201 1 -5.301e+00 1.773e+00 1.046e+00 -3.767e-01 -2.372e-02 4.545e-02
202 1 5.298e+00 1.772e+00 1.048e+00 -3.688e-01 -3.986e-02 -4.296e-02
203 1 -1.770e+00 -5.293e+00 1.046e+00 -5.979e-01 -1.255e-01 6.598e-02
204 1 -1.238e-03 -5.270e+00 -7.241e-01 -6.407e-01 -1.401e-01 6.492e-02
205 1 5.275e+00 4.410e-03 -7.246e-01 -3.665e-01 -5.463e-02 -2.659e-02
206 1 -5.277e+00 3.443e-03 -7.253e-01 -3.838e-01 1.949e-04 3.714e-02
207 1 -1.051e-04 5.282e+00 -7.238e-01 -4.727e-01 2.982e-02 -1.271e-02
208 1 -5.277e+00 4.006e-03 2.819e+00 -4.086e-01 -4.853e-02 5.521e-02
209 1 -8.930e-04 5.281e+00 2.818e+00 -5.618e-01 -5.068e-03 3.625e-03
210 1 -1.502e-03 -5.271e+00 2.820e+00 -5.596e-01 -1.209e-01 5.545e-02
211 1 5.274e+00 5.721e-03 2.821e+00 -3.550e-01 -7.372e-02 -3.279e-02
212 1 -1.792e+00 1.798e+00 4.600e+00 -5.560e-01 -4.246e-02 4.454e-02
213 1 1.791e+00 -1.785e+00 4.602e+00 -4.888e-01 -5.925e-02 -2.536e-03
214 1 1.792e+00 1.797e+00 4.601e+00 -5.527e-01 -2.790e-02 -2.164e-02
215 1 -1.793e+00 -1.786e+00 4.601e+00 -5.040e-01 -5.184e-02 4.391e-02
216 1 3.518e+00 -3.515e+00 1.048e+00 -5.231e-01 -9.640e-02 1.649e-02
217 1 -3.522e+00 3.526e+00 1.048e+00 -4.569e-01 -1.190e-02 4.148e-02
218 1 3.520e+00 3.527e+00 1.047e+00 -4.882e-01 5.392e-03 -5.604e-02
219 1 -3.522e+00 -3.516e+00 1.049e+00 -5.496e-01 -7.237e-02 5.351e-02
220 1 -1.534e-03 6.240e-03 4.542e+00 -6.019e-01 -2.821e-02 1.124e-02
221 1 -3.563e+00 1.813e+00 2.811e+00 -5.310e-01 -4.686e-02 5.913e-02
222 1 -1.810e+00 3.568e+00 2.811e+00 -6.222e-01 -2.595e-02 3.540e-02
223 1 -3.564e+00 -1.803e+00 2.813e+00 -5.407e-01 -5.337e-02 5.679e-02
224 1 1.806e+00 3.569e+00 2.813e+00 -6.418e-01 5.349e-05 -3.165e-02
225 1 1.806e+00 -3.559e+00 2.813e+00 -6.101e-01 -1.021e-01 2.845e-02
226 1 3.561e+00 -1.803e+00 2.812e+00 -5.011e-01 -8.009e-02 -1.861e-02
227 1 -1.808e+00 -3.557e+00 2.813e+00 -6.230e-01 -9.367e-02 5.652e-02
228 1 3.561e+00 1.812e+00 2.814e+00 -5.202e-01 -3.642e-02 -5.231e-02
229 1 1.764e+00 4.398e-03 -4.220e+00 -5.009e-01 -7.229e-02 -1.917e-02
230 1 -1.463e-04 -1.760e+00 -4.223e+00 -6.052e-01 -9.515e-02 1.709e-02
231 1 -1.257e-03 1.771e+00 -4.222e+00 -4.404e-01 2.133e-03 -3.963e-04
232 1 -1.767e+00 5.015e-03 -4.221e+00 -5.069e-01 -2.137e-03 3.264e-02
233 1 3.613e+00 4.621e-03 -2.564e+00 -4.941e-01 -7.175e-02 -3.536e-02
234 1 -2.260e-03 -3.609e+00 -2.568e+00 -7.088e-01 -1.395e-01 3.883e-02
235 1 -1.537e-03 3.618e+00 -2.565e+00 -4.545e-01 3.154e-02 -1.393e-02
236 1 -3.614e+00 5.383e-03 -2.563e+00 -4.973e-01 2.738e-02 3.903e-02
237 1 -1.359e-03 7.658e-03 2.103e+00 -6.265e-01 -3.780e-03 -4.937e-03
238 1 9.663e-04 1.431e-04 8.925e-04 -6.115e-01 1.299e-02 -2.786e-02
239 1 1.807e+00 -3.557e+00 -7.163e-01 -7.261e-01 -1.323e-01 3.437e-02
240 1 3.562e+00 -1.802e+00 -7.165e-01 -5.800e-01 -8.710e-02 -9.465e-03
241 1 -1.809e+00 -3.557e+00 -7.166e-01 -7.383e-01 -1.138e-01 5.755e-02
242 1 3.561e+00 1.812e+00 -7.183e-01 -4.937e-01 -2.292e-02 -5.880e-02
243 1 -3.564e+00 1.813e+00 -7.162e-01 -4.754e-01 3.589e-02 3.889e-02
244 1 -1.808e+00 3.564e+00 -7.170e-01 -5.211e-01 4.572e-02 1.789e-02
245 1 -3.563e+00 -1.803e+00 -7.159e-01 -6.002e-01 -3.288e-02 4.219e-02
246 1 1.805e+00 3.566e+00 -7.166e-01 -5.508e-01 2.008e-02 -5.412e-02
247 1 -1.129e-03 -2.032e+00 -8.643e-01 -7.452e-01 -6.455e-02 7.961e-03
248 1 2.031e+00 4.329e-03 -8.622e-01 -6.210e-01 -2.780e-02 -4.397e-02
249 1 -2.033e+00 4.128e-03 -8.634e-01 -6.168e-01 2.025e-02 7.528e-03
250 1 -2.368e-03 2.035e+00 -8.619e-01 -5.980e-01 4.078e-02 -3.277e-02
251 1 -2.036e+00 4.724e-03 2.961e+00 -6.543e-01 -3.546e-02 4.517e-02
252 1 -2.757e-03 2.043e+00 2.962e+00 -7.187e-01 -1.371e-02 2.412e-03
253 1 -1.260e-03 -2.025e+00 2.962e+00 -6.818e-01 -5.639e-02 2.357e-02
254 1 2.031e+00 4.562e-03 2.961e+00 -6.453e-01 -3.767e-02 -2.794e-02
255 1 4.263e-04 3.556e+00 1.047e+00 -6.901e-01 2.188e-02 -1.536e-02
256 1 -3.552e+00 5.502e-03 1.047e+00 -5.696e-01 -1.934e-02 4.751e-02
257 1 3.549e+00 5.091e-03 1.048e+00 -5.476e-01 -5.885e-02 -4.291e-02
258 1 -4.662e-05 -3.547e+00 1.048e+00 -7.892e-01 -1.340e-01 5.864e-02
259 1 1.791e+00 -1.786e+00 -2.505e+00 -7.033e-01 -1.197e-01 -2.749e-03
260 1 -1.792e+00 -1.787e+00 -2.506e+00 -7.148e-01 -7.149e-02 3.670e-02
261 1 1.791e+00 1.797e+00 -2.504e+00 -5.231e-01 -2.509e-02 -5.350e-02
262 1 -1.793e+00 1.795e+00 -2.504e+00 -5.112e-01 6.814e-02 2.754e-02
263 1 -1.292e-03 4.760e-03 -2.443e+00 -6.411e-01 -1.654e-02 -1.551e-02
264 1 1.672e+00 -1.669e+00 1.049e+00 -7.111e-01 -6.436e-02 -2.298e-03
265 1 -1.673e+00 1.677e+00 1.050e+00 -6.501e-01 1.112e-02 1.723e-02
266 1 1.672e+00 1.677e+00 1.050e+00 -6.720e-01 1.386e-02 -5.569e-02
267 1 -1.675e+00 -1.669e+00 1.052e+00 -7.174e-01 -4.576e-02 3.504e-02
ITEM: TIMESTEP
0
ITEM: NUMBER OF ATOMS
89
ITEM: BOX BOUNDS xy xz yz pp pp pp
                     0.00000000000000e+00 1.06200000000000e+01 0.00000000000000e+00
0.00000000000000e+00	1.06200000000000e+01	0.00000000000000e+00
0.00000000000000e+00	1.06200000000000e+01	0.00000000000000e+00
ITEM: ATOMS id type x y z DisplacementX DisplacementY DisplacementZ
268 1 9.464e-04 6.816e-03 -5.984e+00 -4.959e-01 -7.536e-02 3.454e-02
269 1 3.540e+00 -3.535e+00 -2.491e+00 -6.131e-01 -8.548e-02 2.867e-02
270 1 -3.542e+00 3.546e+00 -2.490e+00 -4.975e-01 -5.905e-02 4.276e-02
271 1 -3.541e+00 -3.537e+00 -2.491e+00 -5.810e-01 -2.216e-02 6.217e-02
272 1 3.542e+00 3.546e+00 -2.490e+00 -5.242e-01 -1.015e-01 -1.570e-02
273 1 1.773e+00 -3.533e+00 -4.257e+00 -6.278e-01 -7.937e-02 4.341e-02
274 1 3.537e+00 -1.772e+00 -4.257e+00 -5.844e-01 -9.011e-02 2.315e-02
275 1 -1.776e+00 -3.535e+00 -4.258e+00 -5.814e-01 -3.403e-02 6.164e-02
276 1 3.537e+00 1.780e+00 -4.257e+00 -5.298e-01 -1.281e-01 -5.700e-03
277 1 -3.540e+00 1.781e+00 -4.256e+00 -5.042e-01 -5.793e-02 4.560e-02
278 1 -1.776e+00 3.543e+00 -4.256e+00 -5.138e-01 -7.965e-02 4.003e-02
279 1 -3.541e+00 -1.772e+00 -4.259e+00 -5.297e-01 -2.096e-02 5.732e-02
280 1 1.775e+00 3.544e+00 -4.256e+00 -5.310e-01 -1.260e-01 4.663e-03
281 1 -4.123e-03 3.620e+00 4.662e+00 -5.619e-01 1.057e-01 2.282e-02
282 1 -3.617e+00 4.330e-03 4.661e+00 -5.066e-01 1.967e-02 3.570e-02
283 1 3.613e+00 7.306e-03 4.662e+00 -4.857e-01 8.368e-02 -7.136e-02
284 1 -2.682e-03 -3.609e+00 4.662e+00 -5.334e-01 -9.135e-03 1.153e-02
285 1 5.298e+00 -1.763e+00 1.047e+00 -4.942e-01 -2.558e-02 -6.583e-02
286 1 1.766e+00 -5.291e+00 1.047e+00 -7.064e-01 -1.043e-01 4.037e-02
287 1 1.766e+00 5.303e+00 1.046e+00 -5.734e-01 4.002e-02 1.686e-02
288 1 -5.300e+00 -1.764e+00 1.046e+00 -5.958e-01 -9.809e-03 4.326e-02
289 1 -1.768e+00 5.302e+00 1.048e+00 -5.450e-01 1.571e-03 5.496e-02
290 1 -5.299e+00 1.772e+00 1.049e+00 -5.296e-01 -1.815e-02 3.270e-02
291 1 5.298e+00 1.773e+00 1.049e+00 -4.966e-01 3.187e-02 -8.532e-02
292 1 -1.771e+00 -5.294e+00 1.047e+00 -7.368e-01 -7.696e-02 6.547e-02
293 1 1.031e-03 -5.270e+00 -7.261e-01 -7.829e-01 -1.079e-01 6.710e-02
294 1 5.275e+00 2.934e-03 -7.247e-01 -4.959e-01 -3.791e-02 -6.467e-02
295 1 -5.279e+00 3.895e-03 -7.252e-01 -5.616e-01 -1.652e-02 3.678e-02
296 1 -2.185e-03 5.281e+00 -7.246e-01 -5.512e-01 -2.291e-02 4.043e-02
297 1 -5.277e+00 6.338e-03 2.818e+00 -5.399e-01 -4.885e-03 3.571e-02
298 1 -2.312e-03 5.282e+00 2.821e+00 -5.757e-01 6.619e-02 4.129e-02
299 1 -9.208e-04 -5.272e+00 2.818e+00 -6.582e-01 -6.940e-02 4.210e-02
300 1 5.277e+00 4.702e-03 2.820e+00 -4.704e-01 4.223e-02 -8.870e-02
301 1 -1.792e+00 1.797e+00 4.599e+00 -5.574e-01 6.323e-02 2.972e-02
302 1 1.792e+00 -1.788e+00 4.601e+00 -5.284e-01 3.881e-02 -3.735e-02
303 1 1.791e+00 1.797e+00 4.600e+00 -5.707e-01 1.262e-01 -3.529e-02
304 1 -1.795e+00 -1.786e+00 4.600e+00 -5.479e-01 2.187e-02 2.174e-02
305 1 3.518e+00 -3.516e+00 1.047e+00 -6.287e-01 -7.685e-02 -1.060e-02
306 1 -3.521e+00 3.525e+00 1.047e+00 -5.525e-01 -1.359e-02 4.636e-02
307 1 3.519e+00 3.527e+00 1.048e+00 -5.788e-01 5.212e-02 -4.299e-02
308 1 -3.523e+00 -3.516e+00 1.048e+00 -7.095e-01 -3.055e-02 5.941e-02
309 1 -1.064e-03 4.257e-03 4.540e+00 -6.046e-01 7.657e-02 -1.118e-02
310 1 -3.565e+00 1.815e+00 2.810e+00 -6.150e-01 9.604e-03 4.194e-02
311 1 -1.811e+00 3.568e+00 2.810e+00 -6.430e-01 5.032e-02 5.018e-02
312 1 -3.565e+00 -1.803e+00 2.814e+00 -6.753e-01 1.821e-03 4.360e-02
313 1 1.808e+00 3.569e+00 2.814e+00 -6.731e-01 1.121e-01 -7.911e-03
314 1 1.807e+00 -3.555e+00 2.812e+00 -6.921e-01 -5.273e-02 2.708e-03
315 1 3.560e+00 -1.806e+00 2.812e+00 -6.032e-01 1.341e-02 -7.035e-02
316 1 -1.810e+00 -3.557e+00 2.813e+00 -7.344e-01 -2.861e-02 4.697e-02
317 1 3.561e+00 1.812e+00 2.811e+00 -6.158e-01 1.033e-01 -8.327e-02
318 1 1.763e+00 6.211e-03 -4.223e+00 -7.033e-01 -1.223e-01 1.896e-02
319 1 -7.908e-04 -1.760e+00 -4.225e+00 -7.459e-01 -8.252e-02 5.546e-02
320 1 1.565e-04 1.769e+00 -4.222e+00 -6.753e-01 -1.154e-01 3.229e-02
321 1 -1.767e+00 4.714e-03 -4.222e+00 -6.750e-01 -6.701e-02 5.422e-02
322 1 3.613e+00 5.790e-03 -2.566e+00 -6.718e-01 -1.061e-01 -2.182e-02
323 1 -2.128e-03 -3.611e+00 -2.565e+00 -8.442e-01 -9.001e-02 6.700e-02
324 1 -7.266e-04 3.619e+00 -2.565e+00 -6.602e-01 -9.464e-02 2.898e-02
325 1 -3.615e+00 4.672e-03 -2.565e+00 -6.644e-01 -3.402e-02 5.338e-02
326 1 -1.991e-03 8.209e-03 2.103e+00 -6.739e-01 4.181e-02 -1.854e-02
327 1 -3.259e-04 -2.807e-04 -6.802e-04 -7.037e-01 -1.109e-02 -1.209e-02
328 1 1.808e+00 -3.556e+00 -7.158e-01 -8.722e-01 -1.156e-01 3.924e-02
329 1 3.562e+00 -1.802e+00 -7.171e-01 -7.207e-01 -8.155e-02 -2.783e-02
330 1 -1.810e+00 -3.558e+00 -7.163e-01 -8.911e-01 -6.827e-02 7.515e-02
331 1 3.562e+00 1.812e+00 -7.167e-01 -6.627e-01 -3.999e-02 -6.117e-02
332 1 -3.563e+00 1.811e+00 -7.165e-01 -6.610e-01 -3.406e-02 4.279e-02
333 1 -1.809e+00 3.565e+00 -7.163e-01 -6.621e-01 -4.355e-02 4.915e-02
334 1 -3.563e+00 -1.801e+00 -7.150e-01 -7.703e-01 -2.184e-02 5.867e-02
335 1 1.804e+00 3.566e+00 -7.167e-01 -6.939e-01 -3.350e-02 -6.652e-03
336 1 -1.692e-03 -2.031e+00 -8.639e-01 -8.814e-01 -6.432e-02 2.917e-02
337 1 2.032e+00 5.702e-03 -8.657e-01 -7.644e-01 -5.544e-02 -3.459e-02
338 1 -2.030e+00 6.284e-03 -8.642e-01 -7.659e-01 -2.538e-02 2.921e-02
339 1 3.397e-05 2.032e+00 -8.626e-01 -7.329e-01 -3.839e-02 4.862e-03
340 1 -2.034e+00 5.057e-03 2.963e+00 -7.089e-01 3.968e-02 2.507e-02
341 1 -1.226e-03 2.041e+00 2.961e+00 -7.313e-01 1.030e-01 1.121e-03
342 1 -3.248e-03 -2.025e+00 2.961e+00 -7.434e-01 1.398e-02 -1.508e-03
343 1 2.030e+00 5.885e-03 2.963e+00 -6.992e-01 8.318e-02 -6.302e-02
344 1 -1.766e-03 3.554e+00 1.047e+00 -7.519e-01 3.637e-02 3.378e-02
345 1 -3.553e+00 4.940e-03 1.049e+00 -7.528e-01 -8.132e-03 4.209e-02
346 1 3.550e+00 5.933e-03 1.048e+00 -6.877e-01 1.002e-02 -9.170e-02
347 1 -2.997e-03 -3.546e+00 1.048e+00 -9.392e-01 -9.367e-02 5.217e-02
348 1 1.792e+00 -1.789e+00 -2.504e+00 -8.667e-01 -1.115e-01 3.033e-02
349 1 -1.796e+00 -1.788e+00 -2.504e+00 -8.394e-01 -4.811e-02 6.887e-02
350 1 1.791e+00 1.797e+00 -2.506e+00 -7.613e-01 -1.261e-01 -8.931e-03
351 1 -1.793e+00 1.796e+00 -2.503e+00 -7.376e-01 -7.695e-02 4.657e-02
352 1 4.477e-04 4.099e-03 -2.442e+00 -8.165e-01 -7.912e-02 2.155e-02
353 1 1.670e+00 -1.668e+00 1.048e+00 -8.169e-01 -3.632e-02 -2.643e-02
354 1 -1.674e+00 1.679e+00 1.051e+00 -7.429e-01 1.140e-02 2.686e-02
355 1 1.672e+00 1.678e+00 1.048e+00 -7.635e-01 5.627e-02 -5.110e-02
356 1 -1.675e+00 -1.671e+00 1.049e+00 -8.593e-01 -1.458e-02 3.674e-02
ITEM: TIMESTEP
0
ITEM: NUMBER OF ATOMS
89
ITEM: BOX BOUNDS xy xz yz pp pp pp
                     0.00000000000000e+00 1.06200000000000e+01 0.00000000000000e+00
0.00000000000000e+00	1.06200000000000e+01	0.00000000000000e+00
0.00000000000000e+00	1.06200000000000e+01	0.00000000000000e+00
ITEM: ATOMS id type x y z DisplacementX DisplacementY DisplacementZ
357 1 -1.599e-03 5.445e-03 -5.985e+00 -3.935e-01 -3.897e-02 3.855e-02
358 1 3.539e+00 -3.536e+00 -2.490e+00 -4.831e-01 -5.503e-02 3.343e-02
359 1 -3.542e+00 3.546e+00 -2.491e+00 -3.693e-01 -4.661e-02 2.583e-02
360 1 -3.542e+00 -3.535e+00 -2.492e+00 -4.838e-01 -2.080e-02 2.785e-02
361 1 3.539e+00 3.546e+00 -2.492e+00 -4.196e-01 -1.148e-02 -6.605e-04
362 1 1.774e+00 -3.535e+00 -4.257e+00 -4.812e-01 -5.488e-02 4.498e-02
363 1 3.537e+00 -1.770e+00 -4.257e+00 -4.530e-01 -4.709e-02 3.413e-02
364 1 -1.776e+00 -3.535e+00 -4.257e+00 -4.979e-01 -3.211e-02 4.398e-02
365 1 3.538e+00 1.780e+00 -4.258e+00 -4.016e-01 -4.263e-02 1.482e-02
366 1 -3.541e+00 1.783e+00 -4.256e+00 -3.911e-01 -5.177e-02 2.870e-02
367 1 -1.775e+00 3.543e+00 -4.256e+00 -3.794e-01 -5.466e-02 3.195e-02
368 1 -3.541e+00 -1.769e+00 -4.257e+00 -4.662e-01 -2.747e-02 3.735e-02
369 1 1.774e+00 3.542e+00 -4.256e+00 -3.862e-01 -4.867e-02 2.230e-02
370 1 -1.644e-03 3.621e+00 4.660e+00 -5.484e-01 5.367e-02 4.110e-02
371 1 -3.616e+00 5.130e-03 4.660e+00 -3.791e-01 -9.399e-03 2.284e-02
372 1 3.613e+00 5.704e-03 4.662e+00 -4.575e-01 -2.721e-02 -3.757e-02
373 1 -2.792e-03 -3.607e+00 4.660e+00 -3.767e-01 -4.254e-02 -2.065e-02
374 1 5.296e+00 -1.761e+00 1.045e+00 -4.928e-01 -4.936e-02 -4.033e-02
375 1 1.768e+00 -5.294e+00 1.049e+00 -5.201e-01 -8.496e-02 7.192e-03
376 1 1.768e+00 5.302e+00 1.047e+00 -5.571e-01 1.037e-01 -3.882e-03
377 1 -5.301e+00 -1.762e+00 1.051e+00 -3.750e-01 -8.881e-03 -1.949e-02
378 1 -1.768e+00 5.302e+00 1.047e+00 -4.862e-01 4.090e-02 4.591e-02
379 1 -5.301e+00 1.772e+00 1.047e+00 -3.758e-01 -3.013e-02 6.874e-03
380 1 5.296e+00 1.772e+00 1.048e+00 -5.154e-01 2.391e-02 -6.008e-02
381 1 -1.769e+00 -5.293e+00 1.047e+00 -4.845e-01 -5.831e-02 -2.652e-03
382 1 -1.526e-03 -5.270e+00 -7.242e-01 -5.575e-01 -7.943e-02 2.415e-02
383 1 5.275e+00 3.836e-03 -7.250e-01 -5.003e-01 -1.268e-02 -4.018e-02
384 1 -5.278e+00 3.936e-03 -7.252e-01 -3.820e-01 -2.592e-02 -8.299e-03
385 1 -2.373e-03 5.281e+00 -7.215e-01 -4.766e-01 5.165e-02 2.051e-02
386 1 -5.279e+00 4.659e-03 2.822e+00 -3.618e-01 -1.737e-02 5.846e-04
387 1 -1.268e-03 5.281e+00 2.820e+00 -5.602e-01 8.393e-02 3.382e-02
388 1 -1.337e-03 -5.271e+00 2.821e+00 -4.458e-01 -7.106e-02 -1.046e-02
389 1 5.276e+00 4.815e-03 2.819e+00 -4.773e-01 -3.383e-02 -5.270e-02
390 1 -1.796e+00 1.797e+00 4.601e+00 -4.994e-01 9.554e-03 4.995e-02
391 1 1.790e+00 -1.786e+00 4.601e+00 -4.443e-01 -4.383e-02 -2.630e-02
392 1 1.791e+00 1.798e+00 4.600e+00 -5.416e-01 2.328e-02 -1.068e-03
393 1 -1.792e+00 -1.786e+00 4.601e+00 -3.927e-01 -1.855e-02 3.555e-04
394 1 3.520e+00 -3.512e+00 1.049e+00 -5.492e-01 -7.134e-02 -1.433e-02
395 1 -3.522e+00 3.527e+00 1.045e+00 -4.544e-01 -8.143e-03 3.891e-02
396 1 3.520e+00 3.524e+00 1.047e+00 -5.847e-01 8.625e-02 -4.372e-02
397 1 -3.521e+00 -3.513e+00 1.046e+00 -4.590e-01 -1.833e-02 -1.568e-02
398 1 -6.658e-04 4.238e-03 4.542e+00 -5.197e-01 -9.620e-03 1.323e-02
399 1 -3.563e+00 1.812e+00 2.811e+00 -4.950e-01 -1.472e-02 3.642e-02
400 1 -1.810e+00 3.568e+00 2.813e+00 -5.973e-01 3.705e-02 6.021e-02
401 1 -3.563e+00 -1.805e+00 2.812e+00 -4.425e-01 -1.226e-02 -8.266e-03
402 1 1.808e+00 3.568e+00 2.812e+00 -6.661e-01 9.364e-02 -2.799e-03
403 1 1.806e+00 -3.557e+00 2.812e+00 -5.447e-01 -7.099e-02 -2.285e-02
404 1 3.561e+00 -1.803e+00 2.811e+00 -5.569e-01 -6.016e-02 -4.419e-02
405 1 -1.809e+00 -3.555e+00 2.813e+00 -4.837e-01 -4.039e-02 -1.725e-02
406 1 3.561e+00 1.813e+00 2.813e+00 -6.103e-01 2.710e-02 -4.990e-02
407 1 1.765e+00 6.082e-03 -4.222e+00 -5.560e-01 -4.849e-02 3.510e-02