ITEM: TIMESTEP
0
ITEM: NUMBER OF ATOMS
89
ITEM: BOX BOUNDS xy xz yz pp pp pp
                     0.00000000000000e+00 1.06200000000000e+01 0.00000000000000e+00
0.00000000000000e+00	1.06200000000000e+01	0.00000000000000e+00
0.00000000000000e+00	1.06200000000000e+01	0.00000000000000e+00
ITEM: ATOMS id type x y z DisplacementX DisplacementY DisplacementZ
1 1 -2.542e-03 6.076e-03 -5.984e+00 -4.579e-01 -7.689e-02 2.432e-02
2 1 3.541e+00 -3.538e+00 -2.490e+00 -4.247e-01 -1.149e-01 -3.774e-02
3 1 -3.542e+00 3.545e+00 -2.491e+00 -5.048e-01 -2.794e-02 6.455e-02
4 1 -3.543e+00 -3.536e+00 -2.492e+00 -5.296e-01 -1.699e-02 3.343e-02
5 1 3.539e+00 3.546e+00 -2.492e+00 -4.565e-01 -1.044e-01 8.822e-03
6 1 1.774e+00 -3.535e+00 -4.259e+00 -4.510e-01 -1.107e-01 -2.353e-02
7 1 3.539e+00 -1.768e+00 -4.256e+00 -4.218e-01 -1.245e-01 -3.281e-02
8 1 -1.776e+00 -3.534e+00 -4.257e+00 -5.348e-01 -3.439e-02 2.782e-02
9 1 3.538e+00 1.780e+00 -4.258e+00 -4.432e-01 -1.306e-01 4.510e-03
10 1 -3.541e+00 1.781e+00 -4.257e+00 -5.324e-01 -3.870e-02 6.791e-02
11 1 -1.776e+00 3.543e+00 -4.255e+00 -5.412e-01 -5.717e-02 6.759e-02
12 1 -3.541e+00 -1.771e+00 -4.255e+00 -5.329e-01 -1.757e-02 4.267e-02
13 1 1.773e+00 3.545e+00 -4.256e+00 -4.793e-01 -1.184e-01 2.833e-02
14 1 -1.643e-03 3.622e+00 4.662e+00 -5.359e-01 1.425e-01 5.750e-03
15 1 -3.616e+00 5.491e-03 4.660e+00 -3.239e-01 3.829e-02 1.555e-02
16 1 3.613e+00 5.084e-03 4.661e+00 -3.054e-01 3.438e-05 -3.844e-02
17 1 -1.586e-03 -3.609e+00 4.659e+00 -3.056e-01 -7.281e-02 -4.338e-02
18 1 5.297e+00 -1.764e+00 1.047e+00 -3.565e-01 -5.285e-02 -4.712e-02
19 1 1.767e+00 -5.294e+00 1.046e+00 -4.480e-01 -1.304e-01 -2.620e-02
20 1 1.766e+00 5.303e+00 1.047e+00 -6.206e-01 9.007e-02 8.493e-03
21 1 -5.301e+00 -1.764e+00 1.046e+00 -3.842e-01 3.472e-03 1.981e-02
22 1 -1.769e+00 5.302e+00 1.047e+00 -5.950e-01 1.055e-01 3.149e-02
23 1 -5.302e+00 1.773e+00 1.048e+00 -3.658e-01 2.357e-02 2.066e-02
24 1 5.296e+00 1.774e+00 1.048e+00 -4.014e-01 -1.984e-02 -4.380e-02
25 1 -1.769e+00 -5.294e+00 1.048e+00 -4.836e-01 -1.105e-01 6.885e-04
26 1 6.432e-04 -5.271e+00 -7.252e-01 -5.246e-01 -1.243e-01 -1.946e-03
27 1 5.275e+00 4.784e-03 -7.255e-01 -3.975e-01 -6.196e-02 -4.691e-02
28 1 -5.278e+00 6.619e-03 -7.240e-01 -4.020e-01 7.143e-04 2.744e-02
29 1 -1.111e-03 5.282e+00 -7.245e-01 -6.016e-01 4.194e-02 3.689e-02
30 1 -5.277e+00 4.758e-03 2.819e+00 -3.342e-01 2.011e-02 1.805e-02
31 1 -2.075e-03 5.279e+00 2.819e+00 -6.384e-01 1.534e-01 1.222e-02
32 1 -5.050e-04 -5.271e+00 2.818e+00 -3.992e-01 -1.246e-01 -2.732e-02
33 1 5.275e+00 3.716e-03 2.819e+00 -3.288e-01 -2.077e-02 -4.272e-02
34 1 -1.794e+00 1.798e+00 4.600e+00 -4.441e-01 9.211e-02 1.403e-02
35 1 1.791e+00 -1.786e+00 4.601e+00 -3.031e-01 -4.141e-02 -4.729e-02
36 1 1.790e+00 1.796e+00 4.600e+00 -4.400e-01 7.253e-02 -2.018e-02
37 1 -1.793e+00 -1.786e+00 4.599e+00 -3.231e-01 -1.740e-02 -1.385e-02
38 1 3.518e+00 -3.516e+00 1.049e+00 -4.254e-01 -9.085e-02 -4.823e-02
39 1 -3.523e+00 3.525e+00 1.047e+00 -4.985e-01 6.619e-02 2.818e-02
40 1 3.519e+00 3.525e+00 1.047e+00 -5.494e-01 3.310e-02 -2.710e-02
41 1 -3.523e+00 -3.516e+00 1.047e+00 -4.786e-01 -4.209e-02 1.288e-02
42 1 -2.957e-03 4.725e-03 4.541e+00 -3.960e-01 2.513e-02 -2.036e-02
43 1 -3.565e+00 1.813e+00 2.812e+00 -4.603e-01 6.559e-02 2.249e-02
44 1 -1.809e+00 3.568e+00 2.814e+00 -6.335e-01 1.446e-01 2.289e-02
45 1 -3.565e+00 -1.802e+00 2.812e+00 -4.222e-01 -1.339e-03 9.193e-03
46 1 1.809e+00 3.567e+00 2.812e+00 -6.578e-01 1.263e-01 -1.244e-02
47 1 1.808e+00 -3.556e+00 2.812e+00 -4.283e-01 -1.059e-01 -5.582e-02
48 1 3.561e+00 -1.803e+00 2.813e+00 -3.886e-01 -4.840e-02 -5.675e-02
49 1 -1.808e+00 -3.557e+00 2.812e+00 -4.567e-01 -8.092e-02 -1.919e-02
50 1 3.561e+00 1.813e+00 2.813e+00 -4.808e-01 2.958e-02 -4.241e-02
51 1 1.764e+00 3.858e-03 -4.222e+00 -5.998e-01 -1.330e-01 -3.310e-03
52 1 -2.255e-03 -1.761e+00 -4.223e+00 -6.400e-01 -9.195e-02 1.170e-02
53 1 -1.443e-03 1.769e+00 -4.223e+00 -6.564e-01 -1.034e-01 4.696e-02
54 1 -1.768e+00 5.713e-03 -4.223e+00 -6.675e-01 -5.595e-02 5.247e-02
55 1 3.614e+00 3.095e-03 -2.565e+00 -5.474e-01 -1.280e-01 -3.550e-02
56 1 -1.368e-03 -3.612e+00 -2.566e+00 -6.489e-01 -1.007e-01 -6.254e-04
57 1 -2.095e-03 3.617e+00 -2.562e+00 -6.653e-01 -6.465e-02 5.220e-02
58 1 -3.614e+00 3.612e-03 -2.563e+00 -6.153e-01 -1.587e-02 5.260e-02
59 1 -1.874e-03 6.850e-03 2.104e+00 -5.014e-01 1.024e-02 -3.020e-02
60 1 -1.516e-04 -2.428e-04 8.606e-04 -6.057e-01 -1.631e-02 -2.603e-02
61 1 1.807e+00 -3.558e+00 -7.182e-01 -6.074e-01 -1.318e-01 -3.769e-02
62 1 3.560e+00 -1.803e+00 -7.164e-01 -5.341e-01 -1.031e-01 -5.632e-02
63 1 -1.809e+00 -3.557e+00 -7.165e-01 -6.696e-01 -7.869e-02 1.303e-02
64 1 3.560e+00 1.812e+00 -7.166e-01 -5.788e-01 -6.546e-02 -3.316e-02
65 1 -3.564e+00 1.810e+00 -7.151e-01 -5.715e-01 7.857e-03 4.346e-02
66 1 -1.808e+00 3.566e+00 -7.188e-01 -6.790e-01 3.046e-02 5.093e-02
67 1 -3.563e+00 -1.801e+00 -7.158e-01 -6.043e-01 -1.319e-02 2.899e-02
68 1 1.805e+00 3.567e+00 -7.157e-01 -6.928e-01 -1.021e-02 9.141e-03
69 1 -1.127e-03 -2.029e+00 -8.665e-01 -7.010e-01 -7.443e-02 -2.179e-02
70 1 2.033e+00 7.641e-03 -8.658e-01 -6.542e-01 -7.141e-02 -4.287e-02
71 1 -2.032e+00 6.555e-03 -8.643e-01 -6.725e-01 -9.637e-03 1.690e-02
72 1 -2.669e-03 2.034e+00 -8.640e-01 -7.166e-01 -1.407e-02 1.341e-02
73 1 -2.035e+00 5.181e-03 2.962e+00 -4.876e-01 3.548e-02 1.921e-03
74 1 -1.178e-03 2.042e+00 2.961e+00 -6.192e-01 1.049e-01 -5.999e-03
75 1 -2.781e-03 -2.027e+00 2.962e+00 -4.633e-01 -5.194e-02 -4.548e-02
76 1 2.032e+00 4.762e-03 2.961e+00 -4.790e-01 1.201e-03 -4.901e-02
77 1 -1.566e-03 3.555e+00 1.047e+00 -7.835e-01 1.116e-01 1.865e-02
78 1 -3.553e+00 5.566e-03 1.047e+00 -5.252e-01 2.083e-02 2.022e-02
79 1 3.550e+00 6.035e-03 1.047e+00 -5.271e-01 -4.613e-02 -6.253e-02
80 1 9.089e-05 -3.545e+00 1.047e+00 -6.248e-01 -1.336e-01 -2.984e-02
81 1 1.790e+00 -1.786e+00 -2.505e+00 -6.666e-01 -1.379e-01 -3.641e-02
82 1 -1.793e+00 -1.789e+00 -2.503e+00 -7.591e-01 -4.280e-02 3.235e-02
83 1 1.790e+00 1.798e+00 -2.505e+00 -6.893e-01 -1.280e-01 9.071e-03
84 1 -1.793e+00 1.798e+00 -2.503e+00 -7.433e-01 -4.747e-02 6.734e-02
85 1 -7.058e-04 3.569e-03 -2.441e+00 -7.506e-01 -7.853e-02 7.388e-03
86 1 1.674e+00 -1.667e+00 1.050e+00 -5.858e-01 -7.796e-02 -5.752e-02
87 1 -1.676e+00 1.677e+00 1.049e+00 -6.506e-01 6.117e-02 1.472e-02
88 1 1.673e+00 1.677e+00 1.049e+00 -6.750e-01 2.552e-02 -3.231e-02
89 1 -1.675e+00 -1.670e+00 1.049e+00 -6.197e-01 -3.264e-02 -8.144e-03
