ITEM: TIMESTEP
0
ITEM: NUMBER OF ATOMS
89
ITEM: BOX BOUNDS xy xz yz pp pp pp
                     0.00000000000000e+00 1.06200000000000e+01 0.00000000000000e+00
0.00000000000000e+00	1.06200000000000e+01	0.00000000000000e+00
0.00000000000000e+00	1.06200000000000e+01	0.00000000000000e+00
ITEM: ATOMS id type x y z DisplacementX DisplacementY DisplacementZ
1 1 -3.235e-04 6.468e-03 -5.984e+00 -4.639e-01 -3.535e-02 4.700e-02
2 1 3.541e+00 -3.538e+00 -2.492e+00 -5.022e-01 -7.885e-02 1.951e-02
3 1 -3.542e+00 3.546e+00 -2.491e+00 -5.169e-01 -4.403e-02 7.428e-02
4 1 -3.544e+00 -3.536e+00 -2.490e+00 -5.148e-01 -1.058e-02 4.201e-02
5 1 3.541e+00 3.546e+00 -2.490e+00 -4.436e-01 -4.619e-02 2.427e-02
6 1 1.773e+00 -3.535e+00 -4.257e+00 -5.097e-01 -6.515e-02 2.658e-02
7 1 3.536e+00 -1.772e+00 -4.256e+00 -4.751e-01 -6.959e-02 1.596e-02
8 1 -1.776e+00 -3.534e+00 -4.259e+00 -5.066e-01 -1.433e-02 4.513e-02
9 1 3.539e+00 1.780e+00 -4.257e+00 -4.325e-01 -5.955e-02 2.192e-02
10 1 -3.541e+00 1.780e+00 -4.255e+00 -5.170e-01 -3.966e-02 7.386e-02
11 1 -1.776e+00 3.543e+00 -4.258e+00 -5.109e-01 -5.415e-02 7.462e-02
12 1 -3.542e+00 -1.768e+00 -4.258e+00 -4.921e-01 -4.518e-03 5.026e-02
13 1 1.774e+00 3.545e+00 -4.257e+00 -4.465e-01 -5.978e-02 3.842e-02
14 1 -2.474e-03 3.622e+00 4.662e+00 -6.204e-01 1.704e-03 5.230e-02
15 1 -3.618e+00 4.635e-03 4.663e+00 -6.665e-01 1.602e-02 7.205e-02
16 1 3.614e+00 5.862e-03 4.662e+00 -6.118e-01 -3.085e-02 4.751e-04
17 1 -6.340e-04 -3.610e+00 4.660e+00 -6.816e-01 -6.841e-02 4.090e-02
18 1 5.297e+00 -1.763e+00 1.048e+00 -5.265e-01 -7.407e-02 7.178e-03
19 1 1.766e+00 -5.295e+00 1.048e+00 -6.495e-01 -1.378e-01 4.072e-02
20 1 1.766e+00 5.303e+00 1.047e+00 -5.668e-01 -2.448e-02 4.861e-02
21 1 -5.300e+00 -1.763e+00 1.048e+00 -6.442e-01 -7.717e-03 4.898e-02
22 1 -1.769e+00 5.303e+00 1.048e+00 -5.596e-01 -4.488e-02 7.455e-02
23 1 -5.299e+00 1.771e+00 1.047e+00 -6.153e-01 -1.315e-02 6.061e-02
24 1 5.299e+00 1.773e+00 1.047e+00 -5.274e-01 -3.062e-02 -1.927e-03
25 1 -1.768e+00 -5.294e+00 1.050e+00 -6.772e-01 -1.134e-01 4.553e-02
26 1 -7.943e-04 -5.271e+00 -7.240e-01 -6.561e-01 -1.179e-01 4.380e-02
27 1 5.274e+00 5.860e-03 -7.226e-01 -4.935e-01 -5.258e-02 1.342e-03
28 1 -5.278e+00 3.575e-03 -7.234e-01 -6.039e-01 -6.849e-03 4.754e-02
29 1 -1.079e-04 5.281e+00 -7.243e-01 -5.422e-01 -4.340e-02 6.454e-02
30 1 -5.278e+00 5.119e-03 2.820e+00 -6.514e-01 -1.158e-03 6.311e-02
31 1 -2.017e-03 5.282e+00 2.821e+00 -5.821e-01 -2.454e-02 6.312e-02
32 1 -6.175e-04 -5.271e+00 2.819e+00 -6.797e-01 -1.296e-01 4.294e-02
33 1 5.275e+00 5.225e-03 2.820e+00 -5.486e-01 -5.109e-02 -1.837e-03
34 1 -1.792e+00 1.798e+00 4.601e+00 -6.978e-01 2.027e-02 6.820e-02
35 1 1.788e+00 -1.788e+00 4.601e+00 -7.089e-01 -4.003e-02 2.057e-02
36 1 1.791e+00 1.797e+00 4.601e+00 -6.744e-01 1.415e-03 1.987e-02
37 1 -1.792e+00 -1.785e+00 4.599e+00 -7.304e-01 -5.859e-03 5.921e-02
38 1 3.519e+00 -3.514e+00 1.050e+00 -6.395e-01 -1.068e-01 2.301e-02
39 1 -3.522e+00 3.524e+00 1.048e+00 -6.254e-01 -2.533e-02 7.244e-02
40 1 3.520e+00 3.525e+00 1.047e+00 -5.992e-01 -1.129e-02 1.511e-02
41 1 -3.523e+00 -3.516e+00 1.048e+00 -7.119e-01 -4.629e-02 4.535e-02
42 1 -1.458e-03 5.935e-03 4.543e+00 -8.023e-01 1.666e-02 3.959e-02
43 1 -3.562e+00 1.812e+00 2.813e+00 -7.612e-01 4.183e-03 7.928e-02
44 1 -1.808e+00 3.567e+00 2.815e+00 -7.224e-01 -1.265e-02 7.953e-02
45 1 -3.564e+00 -1.804e+00 2.813e+00 -8.018e-01 -4.498e-03 6.554e-02
46 1 1.806e+00 3.568e+00 2.812e+00 -7.162e-01 -5.724e-03 3.756e-02
47 1 1.806e+00 -3.557e+00 2.812e+00 -7.869e-01 -1.114e-01 3.444e-02
48 1 3.561e+00 -1.801e+00 2.813e+00 -7.205e-01 -7.228e-02 8.241e-03
49 1 -1.809e+00 -3.556e+00 2.813e+00 -8.173e-01 -7.597e-02 5.433e-02
50 1 3.561e+00 1.811e+00 2.813e+00 -7.014e-01 -1.930e-02 2.307e-04
51 1 1.764e+00 4.433e-03 -4.221e+00 -6.225e-01 -5.934e-02 3.355e-02
52 1 -5.123e-04 -1.761e+00 -4.222e+00 -6.683e-01 -4.001e-02 4.873e-02
53 1 -1.210e-03 1.771e+00 -4.221e+00 -6.386e-01 -5.354e-02 6.467e-02
54 1 -1.765e+00 3.989e-03 -4.223e+00 -6.623e-01 -2.550e-02 6.997e-02
55 1 3.612e+00 4.961e-03 -2.564e+00 -5.972e-01 -6.070e-02 9.664e-03
56 1 -7.063e-04 -3.611e+00 -2.567e+00 -7.165e-01 -6.450e-02 4.410e-02
57 1 2.984e-04 3.619e+00 -2.564e+00 -6.349e-01 -5.248e-02 6.806e-02
58 1 -3.615e+00 5.764e-03 -2.564e+00 -6.747e-01 -8.183e-03 6.491e-02
59 1 -1.675e-03 9.960e-03 2.102e+00 -8.334e-01 2.081e-02 2.118e-02
60 1 8.632e-04 5.675e-04 2.426e-04 -7.892e-01 1.935e-02 6.936e-03
61 1 1.807e+00 -3.557e+00 -7.156e-01 -7.705e-01 -1.126e-01 3.434e-02
62 1 3.562e+00 -1.801e+00 -7.147e-01 -6.835e-01 -8.279e-02 1.124e-02
63 1 -1.810e+00 -3.558e+00 -7.173e-01 -8.004e-01 -6.588e-02 4.679e-02
64 1 3.560e+00 1.813e+00 -7.140e-01 -6.546e-01 -3.005e-02 6.666e-03
65 1 -3.563e+00 1.811e+00 -7.172e-01 -7.305e-01 -1.796e-02 7.060e-02
66 1 -1.807e+00 3.565e+00 -7.160e-01 -7.005e-01 -4.142e-02 8.118e-02
67 1 -3.562e+00 -1.802e+00 -7.178e-01 -7.672e-01 -8.608e-03 4.812e-02
68 1 1.804e+00 3.567e+00 -7.173e-01 -6.809e-01 -2.787e-02 4.136e-02
69 1 -1.537e-03 -2.031e+00 -8.648e-01 -8.564e-01 -2.987e-02 2.311e-02
70 1 2.031e+00 5.045e-03 -8.649e-01 -7.821e-01 -1.886e-02 1.802e-03
71 1 -2.034e+00 4.947e-03 -8.644e-01 -8.211e-01 1.513e-02 4.019e-02
72 1 -2.708e-03 2.034e+00 -8.614e-01 -7.829e-01 1.430e-04 3.798e-02
73 1 -2.036e+00 5.650e-03 2.960e+00 -9.075e-01 2.591e-02 6.734e-02
74 1 -2.572e-03 2.040e+00 2.962e+00 -8.729e-01 2.013e-02 4.967e-02
75 1 -6.741e-04 -2.029e+00 2.961e+00 -9.335e-01 -3.245e-02 4.112e-02
76 1 2.031e+00 4.039e-03 2.961e+00 -8.729e-01 -1.248e-02 1.034e-02
77 1 -1.337e-03 3.556e+00 1.047e+00 -7.852e-01 -2.241e-02 6.851e-02
78 1 -3.551e+00 4.577e-03 1.049e+00 -8.628e-01 6.701e-03 6.451e-02
79 1 3.549e+00 4.420e-03 1.048e+00 -7.580e-01 -4.975e-02 -2.626e-03
80 1 -7.522e-04 -3.546e+00 1.049e+00 -9.156e-01 -1.246e-01 4.581e-02
81 1 1.791e+00 -1.787e+00 -2.504e+00 -7.596e-01 -7.169e-02 2.521e-02
82 1 -1.793e+00 -1.787e+00 -2.503e+00 -7.828e-01 -1.270e-02 5.467e-02
83 1 1.792e+00 1.795e+00 -2.503e+00 -6.970e-01 -4.968e-02 3.402e-02
84 1 -1.792e+00 1.797e+00 -2.504e+00 -7.614e-01 -3.560e-02 8.217e-02
85 1 -2.742e-03 3.786e-03 -2.443e+00 -8.118e-01 -1.266e-02 3.687e-02
86 1 1.673e+00 -1.669e+00 1.049e+00 -8.985e-01 -5.595e-02 1.507e-02
87 1 -1.675e+00 1.677e+00 1.049e+00 -8.691e-01 1.388e-02 6.205e-02
88 1 1.672e+00 1.677e+00 1.049e+00 -8.469e-01 7.542e-03 1.348e-02
89 1 -1.675e+00 -1.670e+00 1.050e+00 -9.386e-01 -1.056e-02 4.309e-02
ITEM: TIMESTEP
0
ITEM: NUMBER OF ATOMS
89
ITEM: BOX BOUNDS xy xz yz pp pp pp
                     0.00000000000000e+00 1.06200000000000e+01 0.00000000000000e+00
0.00000000000000e+00	1.06200000000000e+01	0.00000000000000e+00
0.00000000000000e+00	1.06200000000000e+01	0.00000000000000e+00
ITEM: ATOMS id type x y z DisplacementX DisplacementY DisplacementZ
90 1 -1.467e-03 5.801e-03 -5.984e+00 -4.530e-01 -7.608e-02 2.040e-02
91 1 3.540e+00 -3.536e+00 -2.491e+00 -4.940e-01 -7.936e-02 -7.099e-03
92 1 -3.541e+00 3.545e+00 -2.492e+00 -3.567e-01 -3.076e-02 3.281e-02
93 1 -3.542e+00 -3.536e+00 -2.491e+00 -5.516e-01 -8.510e-02 2.631e-02
94 1 3.537e+00 3.547e+00 -2.491e+00 -4.748e-01 -9.305e-02 -2.195e-02
95 1 1.774e+00 -3.534e+00 -4.258e+00 -5.128e-01 -8.773e-02 6.294e-03
96 1 3.538e+00 -1.770e+00 -4.258e+00 -4.960e-01 -8.949e-02 -1.503e-03
97 1 -1.778e+00 -3.535e+00 -4.257e+00 -5.577e-01 -1.023e-01 2.690e-02
98 1 3.537e+00 1.781e+00 -4.258e+00 -4.813e-01 -1.216e-01 -9.985e-03
99 1 -3.541e+00 1.778e+00 -4.257e+00 -4.019e-01 -5.215e-02 3.616e-02
100 1 -1.777e+00 3.545e+00 -4.255e+00 -3.778e-01 -5.938e-02 3.029e-02
101 1 -3.542e+00 -1.769e+00 -4.257e+00 -5.392e-01 -8.852e-02 3.504e-02
102 1 1.774e+00 3.542e+00 -4.257e+00 -4.554e-01 -1.132e-01 7.329e-05
103 1 -2.680e-03 3.622e+00 4.661e+00 -6.156e-01 5.851e-02 6.105e-02
104 1 -3.616e+00 5.185e-03 4.662e+00 -4.570e-01 7.761e-02 1.102e-02
105 1 3.612e+00 4.016e-03 4.662e+00 -4.840e-01 1.071e-02 -3.676e-02
106 1 -6.207e-04 -3.611e+00 4.659e+00 -4.061e-01 1.076e-02 -2.230e-02
107 1 5.299e+00 -1.763e+00 1.048e+00 -4.420e-01 -3.574e-02 -5.690e-02
108 1 1.764e+00 -5.294e+00 1.048e+00 -4.964e-01 -8.168e-02 -1.193e-02
109 1 1.767e+00 5.302e+00 1.046e+00 -5.794e-01 4.353e-02 8.037e-03
110 1 -5.299e+00 -1.763e+00 1.046e+00 -5.126e-01 4.539e-02 -4.388e-03
111 1 -1.769e+00 5.302e+00 1.047e+00 -5.007e-01 4.948e-02 4.367e-02
112 1 -5.299e+00 1.772e+00 1.048e+00 -4.484e-01 4.188e-02 1.349e-02
113 1 5.298e+00 1.774e+00 1.045e+00 -4.886e-01 -6.674e-03 -5.874e-02
114 1 -1.770e+00 -5.295e+00 1.050e+00 -5.285e-01 -5.359e-02 6.991e-03
115 1 -2.691e-03 -5.272e+00 -7.243e-01 -5.537e-01 -9.679e-02 6.047e-03
116 1 5.275e+00 3.831e-03 -7.269e-01 -4.647e-01 -4.562e-02 -5.496e-02
117 1 -5.277e+00 6.231e-03 -7.243e-01 -4.831e-01 1.401e-02 1.142e-02
118 1 1.946e-04 5.280e+00 -7.253e-01 -4.833e-01 1.863e-02 1.658e-02
119 1 -5.279e+00 5.263e-03 2.821e+00 -4.736e-01 6.782e-02 -1.943e-03
120 1 -2.650e-03 5.281e+00 2.819e+00 -6.125e-01 6.787e-02 4.957e-02
121 1 -1.696e-03 -5.271e+00 2.821e+00 -4.626e-01 -4.573e-02 -5.696e-03
122 1 5.275e+00 4.599e-03 2.822e+00 -4.557e-01 -1.003e-02 -5.443e-02
123 1 -1.792e+00 1.796e+00 4.599e+00 -5.526e-01 6.788e-02 4.698e-02
124 1 1.791e+00 -1.786e+00 4.600e+00 -4.554e-01 1.103e-02 -3.641e-02
125 1 1.789e+00 1.797e+00 4.600e+00 -6.088e-01 4.188e-02 1.331e-02
126 1 -1.793e+00 -1.788e+00 4.601e+00 -4.562e-01 6.508e-02 -8.479e-03
127 1 3.520e+00 -3.514e+00 1.049e+00 -4.977e-01 -5.748e-02 -4.582e-02
128 1 -3.521e+00 3.525e+00 1.047e+00 -4.739e-01 5.182e-02 3.314e-02
129 1 3.520e+00 3.525e+00 1.047e+00 -5.926e-01 2.465e-02 -3.624e-02
130 1 -3.521e+00 -3.516e+00 1.049e+00 -5.634e-01 1.373e-02 -4.997e-03
131 1 -5.351e-04 4.905e-03 4.541e+00 -5.657e-01 5.503e-02 1.289e-03
132 1 -3.565e+00 1.814e+00 2.811e+00 -5.559e-01 7.514e-02 2.592e-02
133 1 -1.808e+00 3.568e+00 2.813e+00 -6.391e-01 7.543e-02 6.001e-02
134 1 -3.563e+00 -1.805e+00 2.813e+00 -5.683e-01 7.924e-02 -1.199e-02
135 1 1.809e+00 3.568e+00 2.815e+00 -7.262e-01 6.194e-02 1.891e-02
136 1 1.806e+00 -3.556e+00 2.813e+00 -5.242e-01 -3.524e-02 -3.971e-02
137 1 3.562e+00 -1.800e+00 2.814e+00 -5.293e-01 -1.764e-02 -6.382e-02
138 1 -1.808e+00 -3.558e+00 2.812e+00 -5.554e-01 1.952e-02 -1.335e-02
139 1 3.562e+00 1.813e+00 2.814e+00 -6.334e-01 2.439e-02 -4.154e-02
140 1 1.762e+00 5.189e-03 -4.221e+00 -6.298e-01 -1.170e-01 -8.064e-04
141 1 -1.382e-03 -1.759e+00 -4.223e+00 -6.681e-01 -1.078e-01 1.642e-02
142 1 -1.025e-03 1.770e+00 -4.221e+00 -5.750e-01 -9.968e-02 1.809e-02
143 1 -1.766e+00 3.650e-03 -4.222e+00 -6.190e-01 -8.527e-02 3.363e-02
144 1 3.615e+00 4.493e-03 -2.563e+00 -6.127e-01 -9.802e-02 -3.726e-02
145 1 -3.101e-03 -3.611e+00 -2.566e+00 -6.838e-01 -1.121e-01 6.296e-03
146 1 -1.417e-03 3.616e+00 -2.563e+00 -5.323e-01 -5.885e-02 9.482e-03
147 1 -3.614e+00 4.735e-03 -2.566e+00 -5.935e-01 -4.568e-02 3.195e-02
148 1 -3.523e-03 8.648e-03 2.103e+00 -6.006e-01 5.538e-02 -2.989e-02
149 1 -8.901e-04 -1.166e-03 1.293e-03 -6.130e-01 2.390e-02 -5.096e-02
150 1 1.807e+00 -3.559e+00 -7.161e-01 -6.619e-01 -9.399e-02 -2.502e-02
151 1 3.561e+00 -1.804e+00 -7.153e-01 -6.172e-01 -6.767e-02 -5.493e-02
152 1 -1.809e+00 -3.560e+00 -7.170e-01 -7.031e-01 -7.064e-02 4.738e-03
153 1 3.560e+00 1.813e+00 -7.166e-01 -6.299e-01 -4.521e-02 -6.125e-02
154 1 -3.562e+00 1.811e+00 -7.161e-01 -5.379e-01 1.556e-02 2.323e-02
155 1 -1.808e+00 3.563e+00 -7.154e-01 -5.349e-01 1.711e-02 2.713e-02
156 1 -3.563e+00 -1.801e+00 -7.165e-01 -6.686e-01 -1.133e-02 6.122e-03
157 1 1.808e+00 3.565e+00 -7.157e-01 -6.389e-01 -1.531e-02 -2.522e-02
158 1 -1.014e-03 -2.030e+00 -8.657e-01 -7.181e-01 -4.611e-02 -3.513e-02
159 1 2.031e+00 7.274e-03 -8.630e-01 -6.851e-01 -3.836e-02 -6.382e-02
160 1 -2.032e+00 4.755e-03 -8.638e-01 -6.549e-01 6.947e-03 -1.075e-02
161 1 -2.256e-03 2.034e+00 -8.641e-01 -6.414e-01 2.215e-03 -2.256e-02
162 1 -2.036e+00 5.375e-03 2.961e+00 -6.285e-01 8.771e-02 3.234e-03
163 1 -9.230e-04 2.040e+00 2.961e+00 -7.374e-01 7.311e-02 2.901e-02
164 1 -1.542e-03 -2.026e+00 2.961e+00 -6.023e-01 3.506e-02 -3.559e-02
165 1 2.031e+00 5.742e-03 2.963e+00 -6.645e-01 2.908e-02 -4.123e-02
166 1 -9.952e-04 3.556e+00 1.048e+00 -7.205e-01 6.247e-02 2.417e-02
167 1 -3.550e+00 4.371e-03 1.049e+00 -6.422e-01 6.409e-02 -2.320e-03
168 1 3.549e+00 3.591e-03 1.048e+00 -6.496e-01 -1.727e-02 -7.903e-02
169 1 1.635e-05 -3.545e+00 1.049e+00 -6.864e-01 -6.228e-02 -2.114e-02
170 1 1.789e+00 -1.785e+00 -2.506e+00 -7.321e-01 -1.055e-01 -1.977e-02
171 1 -1.794e+00 -1.787e+00 -2.505e+00 -7.632e-01 -9.540e-02 1.972e-02
172 1 1.788e+00 1.796e+00 -2.503e+00 -6.803e-01 -1.049e-01 -2.748e-02
173 1 -1.795e+00 1.797e+00 -2.505e+00 -5.921e-01 -4.859e-02 2.650e-02
174 1 -2.753e-03 3.534e-03 -2.443e+00 -7.207e-01 -6.319e-02 -1.603e-02
175 1 1.673e+00 -1.668e+00 1.050e+00 -6.761e-01 -2.157e-02 -6.480e-02
176 1 -1.673e+00 1.678e+00 1.048e+00 -6.529e-01 6.953e-02 1.098e-02
177 1 1.673e+00 1.679e+00 1.048e+00 -7.420e-01 3.932e-02 -4.652e-02
178 1 -1.675e+00 -1.669e+00 1.047e+00 -6.950e-01 3.690e-02 -2.523e-02
ITEM: TIMESTEP
0
ITEM: NUMBER OF ATOMS
89
ITEM: BOX BOUNDS xy xz yz pp pp pp
                     0.00000000000000e+00 1.06200000000000e+01 0.00000000000000e+00
0.00000000000000e+00	1.06200000000000e+01	0.00000000000000e+00
0.00000000000000e+00	1.06200000000000e+01	0.00000000000000e+00
ITEM: ATOMS id type x y z DisplacementX DisplacementY DisplacementZ
179 1 3.232e-04 5.674e-03 -5.983e+00 -4.127e-01 -2.702e-02 2.170e-02
180 1 3.539e+00 -3.535e+00 -2.492e+00 -4.763e-01 -8.996e-02 2.915e-02
181 1 -3.543e+00 3.546e+00 -2.490e+00 -3.742e-01 3.474e-02 3.234e-02
182 1 -3.543e+00 -3.536e+00 -2.490e+00 -4.682e-01 -4.043e-02 1.967e-03
183 1 3.540e+00 3.546e+00 -2.492e+00 -5.237e-01 -3.609e-02 3.216e-02
184 1 1.773e+00 -3.535e+00 -4.257e+00 -4.642e-01 -8.556e-02 2.319e-02
185 1 3.537e+00 -1.772e+00 -4.257e+00 -4.728e-01 -8.288e-02 2.714e-02
186 1 -1.779e+00 -3.535e+00 -4.256e+00 -4.635e-01 -4.642e-02 5.587e-04
187 1 3.538e+00 1.779e+00 -4.257e+00 -5.046e-01 -5.131e-02 3.824e-02
188 1 -3.542e+00 1.779e+00 -4.256e+00 -3.742e-01 1.691e-02 2.948e-02
189 1 -1.776e+00 3.543e+00 -4.255e+00 -3.894e-01 1.286e-02 3.917e-02
190 1 -3.541e+00 -1.770e+00 -4.257e+00 -4.415e-01 -2.167e-02 2.069e-05
191 1 1.774e+00 3.546e+00 -4.258e+00 -4.892e-01 -3.329e-02 4.346e-02
192 1 -1.212e-03 3.620e+00 4.663e+00 -6.582e-01 2.668e-02 2.673e-02
193 1 -3.617e+00 8.653e-03 4.662e+00 -5.916e-01 -3.512e-02 3.164e-02
194 1 3.613e+00 5.339e-03 4.662e+00 -5.805e-01 -3.429e-02 -4.184e-03
195 1 -9.944e-04 -3.609e+00 4.659e+00 -5.935e-01 -9.018e-02 2.561e-02
196 1 5.296e+00 -1.763e+00 1.050e+00 -5.555e-01 -6.251e-02 2.361e-02
197 1 1.766e+00 -5.295e+00 1.047e+00 -5.193e-01 -1.192e-01 4.123e-02
198 1 1.765e+00 5.303e+00 1.049e+00 -6.500e-01 2.395e-02 2.539e-02
199 1 -5.300e+00 -1.761e+00 1.048e+00 -5.225e-01 -2.080e-02 3.421e-02
200 1 -1.770e+00 5.304e+00 1.048e+00 -5.905e-01 6.455e-02 3.390e-02
201 1 -5.299e+00 1.771e+00 1.048e+00 -4.705e-01 4.175e-02 2.282e-02
202 1 5.297e+00 1.772e+00 1.049e+00 -5.915e-01 -3.500e-02 4.272e-03
203 1 -1.769e+00 -5.294e+00 1.046e+00 -5.481e-01 -1.141e-01 3.983e-02
204 1 -7.593e-04 -5.272e+00 -7.262e-01 -5.202e-01 -1.123e-01 3.636e-02
205 1 5.274e+00 4.831e-03 -7.244e-01 -5.678e-01 -5.336e-02 1.846e-02
206 1 -5.279e+00 4.720e-03 -7.261e-01 -4.580e-01 2.678e-02 2.178e-02
207 1 -9.372e-04 5.281e+00 -7.233e-01 -5.769e-01 3.487e-02 3.427e-02
208 1 -5.278e+00 6.868e-03 2.820e+00 -5.322e-01 -1.124e-02 3.215e-02
209 1 9.403e-06 5.279e+00 2.819e+00 -6.697e-01 5.368e-02 3.284e-02
210 1 3.549e-04 -5.272e+00 2.819e+00 -5.527e-01 -1.209e-01 4.036e-02
211 1 5.276e+00 4.257e-03 2.820e+00 -5.644e-01 -4.604e-02 5.765e-03
212 1 -1.793e+00 1.796e+00 4.599e+00 -6.612e-01 3.315e-03 2.533e-02
213 1 1.790e+00 -1.786e+00 4.601e+00 -6.304e-01 -5.740e-02 5.742e-03
214 1 1.790e+00 1.798e+00 4.601e+00 -6.702e-01 -4.314e-03 2.596e-03
215 1 -1.794e+00 -1.787e+00 4.599e+00 -6.644e-01 -6.661e-02 2.700e-02
216 1 3.519e+00 -3.517e+00 1.048e+00 -5.763e-01 -8.967e-02 3.257e-02
217 1 -3.522e+00 3.526e+00 1.047e+00 -5.453e-01 7.272e-02 2.310e-02
218 1 3.518e+00 3.525e+00 1.044e+00 -6.688e-01 -4.747e-03 3.428e-03
219 1 -3.522e+00 -3.517e+00 1.046e+00 -5.994e-01 -7.154e-02 3.585e-02
220 1 -6.533e-04 4.603e-03 4.541e+00 -7.380e-01 -3.492e-02 5.412e-03
221 1 -3.565e+00 1.814e+00 2.813e+00 -6.507e-01 2.376e-02 2.732e-02
222 1 -1.810e+00 3.568e+00 2.812e+00 -7.224e-01 5.796e-02 3.285e-02
223 1 -3.565e+00 -1.804e+00 2.813e+00 -6.913e-01 -5.590e-02 3.796e-02
224 1 1.808e+00 3.569e+00 2.813e+00 -7.795e-01 2.195e-02 1.594e-02
225 1 1.807e+00 -3.557e+00 2.811e+00 -6.675e-01 -1.060e-01 2.959e-02
226 1 3.562e+00 -1.803e+00 2.812e+00 -6.728e-01 -6.554e-02 1.120e-02
227 1 -1.809e+00 -3.557e+00 2.811e+00 -7.020e-01 -1.074e-01 3.956e-02
228 1 3.561e+00 1.813e+00 2.813e+00 -7.230e-01 -2.278e-02 -5.426e-03
229 1 1.764e+00 3.331e-03 -4.221e+00 -6.156e-01 -6.261e-02 3.042e-02
230 1 -2.748e-03 -1.762e+00 -4.222e+00 -5.914e-01 -6.033e-02 1.458e-02
231 1 9.706e-04 1.768e+00 -4.222e+00 -5.720e-01 -1.829e-02 3.810e-02
232 1 -1.767e+00 2.244e-03 -4.221e+00 -5.493e-01 -1.009e-02 1.718e-02
233 1 3.613e+00 6.291e-03 -2.564e+00 -6.565e-01 -7.091e-02 2.666e-02
234 1 -2.326e-03 -3.610e+00 -2.566e+00 -6.100e-01 -9.098e-02 1.770e-02
235 1 -1.452e-03 3.617e+00 -2.567e+00 -5.966e-01 7.780e-03 3.942e-02
236 1 -3.615e+00 4.239e-03 -2.563e+00 -5.291e-01 1.778e-02 1.437e-02
237 1 -1.773e-03 9.481e-03 2.104e+00 -7.429e-01 -1.865e-02 -8.091e-03
238 1 4.147e-04 1.427e-03 -1.952e-03 -6.870e-01 -4.817e-03 -1.921e-02
239 1 1.806e+00 -3.558e+00 -7.148e-01 -6.613e-01 -1.123e-01 3.335e-02
240 1 3.560e+00 -1.801e+00 -7.179e-01 -6.871e-01 -8.459e-02 2.689e-02
241 1 -1.809e+00 -3.558e+00 -7.157e-01 -6.645e-01 -8.938e-02 2.324e-02
242 1 3.560e+00 1.811e+00 -7.170e-01 -7.336e-01 -3.467e-02 1.052e-02
243 1 -3.562e+00 1.811e+00 -7.161e-01 -5.573e-01 6.131e-02 2.246e-02
244 1 -1.808e+00 3.567e+00 -7.176e-01 -6.233e-01 6.527e-02 3.168e-02
245 1 -3.564e+00 -1.804e+00 -7.185e-01 -6.267e-01 -2.458e-02 1.911e-02
246 1 1.805e+00 3.568e+00 -7.154e-01 -7.367e-01 5.912e-03 2.117e-02
247 1 -2.155e-03 -2.030e+00 -8.661e-01 -7.254e-01 -6.109e-02 2.100e-03
248 1 2.031e+00 5.725e-03 -8.628e-01 -7.579e-01 -3.686e-02 -4.000e-03
249 1 -2.032e+00 4.899e-03 -8.628e-01 -6.618e-01 1.400e-02 -1.267e-03
250 1 -1.286e-03 2.031e+00 -8.608e-01 -7.158e-01 2.263e-02 3.923e-03
251 1 -2.035e+00 4.512e-03 2.962e+00 -8.032e-01 -3.070e-02 2.098e-02
252 1 -2.076e-03 2.040e+00 2.964e+00 -8.508e-01 1.679e-02 9.487e-03
253 1 -3.414e-04 -2.026e+00 2.961e+00 -8.223e-01 -7.630e-02 1.412e-02
254 1 2.032e+00 6.835e-03 2.959e+00 -8.154e-01 -3.738e-02 -7.809e-03
255 1 2.864e-04 3.554e+00 1.047e+00 -8.236e-01 5.141e-02 2.662e-02
256 1 -3.552e+00 6.805e-03 1.049e+00 -6.911e-01 1.077e-02 2.608e-02
257 1 3.547e+00 3.561e-03 1.050e+00 -7.883e-01 -5.346e-02 4.450e-03
258 1 -1.959e-03 -3.546e+00 1.048e+00 -7.492e-01 -1.292e-01 3.606e-02
259 1 1.792e+00 -1.788e+00 -2.504e+00 -7.100e-01 -9.483e-02 2.306e-02
260 1 -1.793e+00 -1.787e+00 -2.503e+00 -6.722e-01 -4.159e-02 2.215e-03
261 1 1.790e+00 1.794e+00 -2.505e+00 -7.344e-01 -3.599e-02 3.110e-02
262 1 -1.793e+00 1.794e+00 -2.504e+00 -6.006e-01 3.171e-02 2.884e-02
263 1 -3.702e-03 2.955e-03 -2.442e+00 -7.128e-01 -2.326e-02 3.282e-03
264 1 1.674e+00 -1.668e+00 1.049e+00 -8.030e-01 -7.496e-02 8.958e-03
265 1 -1.675e+00 1.678e+00 1.050e+00 -7.554e-01 4.789e-02 9.195e-03
266 1 1.673e+00 1.678e+00 1.051e+00 -8.495e-01 -1.689e-03 -9.128e-03
267 1 -1.675e+00 -1.668e+00 1.048e+00 -7.923e-01 -5.778e-02 1.687e-02
ITEM: TIMESTEP
0
ITEM: NUMBER OF ATOMS
89
ITEM: BOX BOUNDS xy xz yz pp pp pp
                     0.00000000000000e+00 1.06200000000000e+01 0.00000000000000e+00
0.00000000000000e+00	1.06200000000000e+01	0.00000000000000e+00
0.00000000000000e+00	1.06200000000000e+01	0.00000000000000e+00
ITEM: ATOMS id type x y z DisplacementX DisplacementY DisplacementZ
268 1 -3.224e-03 5.435e-03 -5.985e+00 -4.876e-01 -1.286e-01 1.367e-02
269 1 3.540e+00 -3.536e+00 -2.492e+00 -4.603e-01 -1.872e-01 -4.014e-02
270 1 -3.543e+00 3.546e+00 -2.490e+00 -5.691e-01 -1.332e-01 5.309e-02
271 1 -3.543e+00 -3.536e+00 -2.493e+00 -5.681e-01 -9.939e-02 4.091e-02
272 1 3.538e+00 3.545e+00 -2.492e+00 -4.380e-01 -2.350e-01 -2.403e-02
273 1 1.775e+00 -3.535e+00 -4.258e+00 -4.918e-01 -1.814e-01 -2.577e-02
274 1 3.538e+00 -1.770e+00 -4.257e+00 -4.398e-01 -1.959e-01 -3.548e-02
275 1 -1.778e+00 -3.535e+00 -4.259e+00 -5.754e-01 -1.202e-01 3.107e-02
276 1 3.537e+00 1.780e+00 -4.257e+00 -4.113e-01 -2.314e-01 -2.557e-02
277 1 -3.542e+00 1.780e+00 -4.256e+00 -6.044e-01 -1.274e-01 5.682e-02
278 1 -1.776e+00 3.543e+00 -4.255e+00 -6.014e-01 -1.627e-01 4.683e-02
279 1 -3.539e+00 -1.771e+00 -4.257e+00 -5.788e-01 -9.681e-02 4.607e-02
280 1 1.774e+00 3.544e+00 -4.257e+00 -4.635e-01 -2.289e-01 -1.084e-02
281 1 -1.523e-03 3.621e+00 4.661e+00 -4.655e-01 -3.969e-02 3.501e-02
282 1 -3.616e+00 5.639e-03 4.660e+00 -3.534e-01 -5.767e-02 3.201e-02
283 1 3.614e+00 5.706e-03 4.660e+00 -3.981e-01 -7.025e-02 -4.663e-02
284 1 -2.585e-03 -3.609e+00 4.659e+00 -3.878e-01 -9.548e-02 -1.702e-02
285 1 5.299e+00 -1.763e+00 1.046e+00 -3.883e-01 -1.817e-01 -5.914e-02
286 1 1.765e+00 -5.293e+00 1.047e+00 -4.970e-01 -1.851e-01 -1.928e-02
287 1 1.766e+00 5.305e+00 1.047e+00 -6.043e-01 -1.576e-01 1.982e-02
288 1 -5.301e+00 -1.761e+00 1.046e+00 -4.658e-01 -7.849e-02 3.713e-02
289 1 -1.770e+00 5.302e+00 1.048e+00 -5.197e-01 -1.203e-01 4.772e-02
290 1 -5.299e+00 1.774e+00 1.048e+00 -4.060e-01 -7.381e-02 2.919e-02
291 1 5.296e+00 1.772e+00 1.049e+00 -4.433e-01 -1.848e-01 -5.706e-02
292 1 -1.768e+00 -5.293e+00 1.048e+00 -5.348e-01 -1.594e-01 1.618e-02
293 1 -2.050e-03 -5.272e+00 -7.248e-01 -5.667e-01 -1.878e-01 2.130e-03
294 1 5.275e+00 6.068e-03 -7.226e-01 -3.949e-01 -2.164e-01 -5.588e-02
295 1 -5.277e+00 4.780e-03 -7.257e-01 -4.730e-01 -7.332e-02 3.527e-02
296 1 -1.252e-03 5.282e+00 -7.241e-01 -5.775e-01 -1.824e-01 3.241e-02
297 1 -5.278e+00 4.900e-03 2.819e+00 -3.962e-01 -7.539e-02 3.072e-02
298 1 1.409e-04 5.280e+00 2.820e+00 -5.575e-01 -9.609e-02 4.401e-02
299 1 -1.457e-03 -5.273e+00 2.819e+00 -4.718e-01 -1.607e-01 -8.897e-03
300 1 5.277e+00 3.470e-03 2.821e+00 -4.050e-01 -1.424e-01 -6.529e-02
301 1 -1.793e+00 1.797e+00 4.600e+00 -3.970e-01 -3.913e-02 3.508e-02
302 1 1.790e+00 -1.788e+00 4.599e+00 -3.948e-01 -7.163e-02 -3.689e-02
303 1 1.792e+00 1.796e+00 4.600e+00 -4.644e-01 -4.264e-02 -7.716e-03
304 1 -1.793e+00 -1.787e+00 4.601e+00 -3.921e-01 -6.896e-02 1.137e-02
305 1 3.520e+00 -3.516e+00 1.048e+00 -4.709e-01 -1.768e-01 -4.907e-02
306 1 -3.522e+00 3.526e+00 1.047e+00 -4.648e-01 -8.640e-02 3.699e-02
307 1 3.519e+00 3.526e+00 1.048e+00 -5.837e-01 -1.724e-01 -2.871e-02
308 1 -3.522e+00 -3.516e+00 1.049e+00 -5.459e-01 -1.095e-01 3.264e-02
309 1 -1.335e-03 4.872e-03 4.540e+00 -4.328e-01 -3.910e-02 -1.689e-03
310 1 -3.565e+00 1.813e+00 2.810e+00 -4.513e-01 -6.891e-02 3.477e-02
311 1 -1.811e+00 3.568e+00 2.814e+00 -5.367e-01 -7.389e-02 4.963e-02
312 1 -3.565e+00 -1.804e+00 2.813e+00 -4.999e-01 -8.727e-02 3.177e-02
313 1 1.808e+00 3.569e+00 2.811e+00 -6.447e-01 -1.051e-01 1.071e-02
314 1 1.804e+00 -3.556e+00 2.812e+00 -5.100e-01 -1.511e-01 -3.920e-02
315 1 3.562e+00 -1.804e+00 2.812e+00 -4.692e-01 -1.385e-01 -6.453e-02
316 1 -1.809e+00 -3.557e+00 2.811e+00 -5.397e-01 -1.287e-01 8.920e-03
317 1 3.561e+00 1.813e+00 2.811e+00 -5.581e-01 -1.251e-01 -5.212e-02
318 1 1.765e+00 3.616e-03 -4.222e+00 -5.994e-01 -2.252e-01 -2.008e-02
319 1 -2.622e-03 -1.760e+00 -4.222e+00 -6.862e-01 -1.768e-01 4.287e-03
320 1 -1.339e-03 1.769e+00 -4.223e+00 -6.901e-01 -2.083e-01 1.499e-02
321 1 -1.764e+00 4.426e-03 -4.222e+00 -7.326e-01 -1.429e-01 4.368e-02
322 1 3.613e+00 2.510e-03 -2.566e+00 -5.243e-01 -2.540e-01 -4.707e-02
323 1 -1.336e-03 -3.610e+00 -2.564e+00 -6.902e-01 -1.902e-01 -2.128e-03
324 1 -1.585e-03 3.618e+00 -2.562e+00 -6.873e-01 -2.274e-01 1.717e-02
325 1 -3.615e+00 3.724e-03 -2.564e+00 -6.922e-01 -1.046e-01 5.299e-02
326 1 -2.736e-03 9.209e-03 2.102e+00 -5.328e-01 -5.601e-02 -2.016e-02
327 1 1.123e-03 -2.001e-04 1.264e-03 -6.263e-01 -8.359e-02 -3.222e-02
328 1 1.805e+00 -3.557e+00 -7.176e-01 -6.488e-01 -2.178e-01 -3.654e-02
329 1 3.561e+00 -1.803e+00 -7.170e-01 -5.479e-01 -2.308e-01 -6.079e-02
330 1 -1.810e+00 -3.560e+00 -7.170e-01 -7.124e-01 -1.596e-01 2.306e-02
331 1 3.562e+00 1.814e+00 -7.154e-01 -5.858e-01 -2.518e-01 -5.214e-02
332 1 -3.565e+00 1.811e+00 -7.171e-01 -6.141e-01 -1.066e-01 4.178e-02
333 1 -1.807e+00 3.565e+00 -7.167e-01 -6.706e-01 -1.614e-01 4.508e-02
334 1 -3.562e+00 -1.804e+00 -7.157e-01 -6.646e-01 -9.963e-02 3.971e-02
335 1 1.805e+00 3.566e+00 -7.169e-01 -6.955e-01 -2.372e-01 -8.141e-03
336 1 -1.922e-03 -2.030e+00 -8.665e-01 -7.285e-01 -1.468e-01 -2.456e-02
337 1 2.033e+00 4.844e-03 -8.650e-01 -6.658e-01 -1.861e-01 -5.538e-02
338 1 -2.033e+00 4.360e-03 -8.648e-01 -7.141e-01 -9.231e-02 1.086e-02
339 1 -1.348e-03 2.033e+00 -8.623e-01 -7.309e-01 -1.569e-01 -5.820e-03
340 1 -2.034e+00 2.188e-03 2.963e+00 -5.145e-01 -6.096e-02 2.042e-02
341 1 -3.208e-03 2.040e+00 2.963e+00 -5.937e-01 -5.798e-02 1.640e-02
342 1 -1.880e-03 -2.025e+00 2.961e+00 -5.448e-01 -9.272e-02 -2.183e-02
343 1 2.032e+00 4.819e-03 2.960e+00 -5.606e-01 -8.243e-02 -4.522e-02
344 1 4.090e-05 3.553e+00 1.048e+00 -7.364e-01 -1.581e-01 3.227e-02
345 1 -3.553e+00 4.319e-03 1.047e+00 -5.940e-01 -8.564e-02 3.252e-02
346 1 3.550e+00 4.624e-03 1.049e+00 -5.802e-01 -2.072e-01 -7.547e-02
347 1 -6.725e-04 -3.545e+00 1.049e+00 -6.884e-01 -1.926e-01 -1.482e-02
348 1 1.791e+00 -1.788e+00 -2.502e+00 -6.932e-01 -2.367e-01 -4.250e-02
349 1 -1.793e+00 -1.786e+00 -2.505e+00 -8.070e-01 -1.427e-01 3.375e-02
350 1 1.790e+00 1.798e+00 -2.504e+00 -6.783e-01 -2.772e-01 -2.625e-02
351 1 -1.793e+00 1.795e+00 -2.505e+00 -8.080e-01 -1.737e-01 4.733e-02
352 1 2.967e-04 3.979e-03 -2.442e+00 -7.779e-01 -1.670e-01 -1.197e-02
353 1 1.673e+00 -1.669e+00 1.050e+00 -6.421e-01 -1.500e-01 -5.705e-02
354 1 -1.673e+00 1.677e+00 1.049e+00 -6.379e-01 -8.256e-02 2.086e-02
355 1 1.672e+00 1.678e+00 1.051e+00 -7.085e-01 -1.459e-01 -3.358e-02
356 1 -1.676e+00 -1.669e+00 1.050e+00 -6.755e-01 -9.821e-02 6.131e-03
ITEM: TIMESTEP
0
ITEM: NUMBER OF ATOMS
89
ITEM: BOX BOUNDS xy xz yz pp pp pp
                     0.00000000000000e+00 1.06200000000000e+01 0.00000000000000e+00
0.00000000000000e+00	1.06200000000000e+01	0.00000000000000e+00
0.00000000000000e+00	1.06200000000000e+01	0.00000000000000e+00
ITEM: ATOMS id type x y z DisplacementX DisplacementY DisplacementZ
357 1 -2.992e-03 4.058e-03 -5.983e+00 -2.887e-01 -1.171e-01 -2.298e-02
358 1 3.540e+00 -3.536e+00 -2.491e+00 -3.570e-01 -1.577e-01 -1.302e-02
359 1 -3.541e+00 3.545e+00 -2.489e+00 -4.420e-01 -8.167e-02 -2.047e-03
360 1 -3.542e+00 -3.536e+00 -2.491e+00 -2.413e-01 -7.585e-02 -2.920e-03
361 1 3.540e+00 3.545e+00 -2.490e+00 -3.574e-01 -6.883e-02 -7.321e-04
362 1 1.775e+00 -3.536e+00 -4.258e+00 -3.186e-01 -1.578e-01 -1.288e-02
363 1 3.538e+00 -1.770e+00 -4.258e+00 -3.201e-01 -1.573e-01 -1.376e-02
364 1 -1.776e+00 -3.534e+00 -4.257e+00 -2.420e-01 -9.783e-02 -7.361e-03
365 1 3.537e+00 1.779e+00 -4.258e+00 -3.264e-01 -1.021e-01 -2.550e-03
366 1 -3.541e+00 1.779e+00 -4.256e+00 -3.836e-01 -8.830e-02 -1.581e-02
367 1 -1.777e+00 3.544e+00 -4.256e+00 -4.208e-01 -8.974e-02 -4.228e-03
368 1 -3.541e+00 -1.772e+00 -4.258e+00 -2.324e-01 -8.022e-02 -1.230e-02
369 1 1.773e+00 3.543e+00 -4.259e+00 -3.525e-01 -8.645e-02 4.980e-03
370 1 2.980e-04 3.622e+00 4.662e+00 -5.689e-01 -1.802e-02 5.940e-03
371 1 -3.616e+00 4.237e-03 4.661e+00 -5.307e-01 -4.691e-02 -5.459e-03
372 1 3.612e+00 5.454e-03 4.660e+00 -4.759e-01 -4.768e-02 -6.467e-02
373 1 -2.919e-03 -3.610e+00 4.661e+00 -4.465e-01 -9.561e-02 -4.104e-02
374 1 5.297e+00 -1.762e+00 1.049e+00 -4.475e-01 -1.069e-01 -3.247e-02
375 1 1.767e+00 -5.293e+00 1.048e+00 -4.731e-01 -1.651e-01 -1.157e-02
376 1 1.767e+00 5.302e+00 1.046e+00 -5.342e-01 -5.381e-03 2.342e-02
377 1 -5.300e+00 -1.763e+00 1.048e+00 -4.231e-01 -5.469e-02 -2.529e-03
378 1 -1.769e+00 5.304e+00 1.046e+00 -5.680e-01 -4.829e-02 5.047e-02
379 1 -5.300e+00 1.773e+00 1.047e+00 -5.116e-01 -6.925e-02 5.305e-03
380 1 5.299e+00 1.772e+00 1.048e+00 -4.662e-01 -3.656e-02 -4.322e-02
381 1 -1.769e+00 -5.294e+00 1.047e+00 -4.272e-01 -1.292e-01 3.542e-03
382 1 -2.058e-03 -5.270e+00 -7.254e-01 -4.308e-01 -1.550e-01 -6.442e-05
383 1 5.276e+00 4.299e-03 -7.235e-01 -4.263e-01 -8.670e-02 -3.272e-02
384 1 -5.278e+00 3.149e-03 -7.254e-01 -4.048e-01 -6.160e-02 -1.010e-02
385 1 -1.588e-03 5.281e+00 -7.222e-01 -5.190e-01 -3.933e-02 3.878e-02
386 1 -5.277e+00 5.327e-03 2.820e+00 -5.117e-01 -5.876e-02 1.667e-03
387 1 -2.359e-03 5.281e+00 2.820e+00 -5.710e-01 -1.781e-02 3.906e-02
388 1 -3.065e-04 -5.272e+00 2.820e+00 -4.538e-01 -1.438e-01 -1.437e-02
389 1 5.275e+00 5.430e-03 2.820e+00 -4.662e-01 -6.048e-02 -4.920e-02
390 1 -1.794e+00 1.798e+00 4.600e+00 -5.951e-01 -3.902e-02 -7.354e-03
391 1 1.791e+00 -1.785e+00 4.599e+00 -4.923e-01 -7.618e-02 -7.094e-02
392 1 1.792e+00 1.796e+00 4.601e+00 -5.583e-01 -1.770e-02 -4.892e-02
393 1 -1.794e+00 -1.785e+00 4.601e+00 -5.063e-01 -5.753e-02 -3.457e-02
394 1 3.519e+00 -3.517e+00 1.049e+00 -5.046e-01 -1.434e-01 -3.343e-02
395 1 -3.520e+00 3.524e+00 1.046e+00 -5.938e-01 -6.747e-02 2.509e-02
396 1 3.517e+00 3.525e+00 1.047e+00 -5.394e-01 -1.813e-04 -2.895e-02
397 1 -3.522e+00 -3.516e+00 1.048e+00 -4.280e-01 -7.761e-02 -3.219e-03
398 1 -2.639e-03 6.015e-03 4.542e+00 -5.975e-01 -4.128e-02 -6.497e-02
399 1 -3.565e+00 1.814e+00 2.813e+00 -6.628e-01 -6.545e-02 5.553e-03
400 1 -1.808e+00 3.570e+00 2.810e+00 -6.848e-01 -4.751e-02 2.998e-02
401 1 -3.565e+00 -1.801e+00 2.814e+00 -5.591e-01 -6.046e-02 -1.321e-02
402 1 1.808e+00 3.567e+00 2.812e+00 -6.499e-01 -7.607e-04 -1.282e-02
403 1 1.806e+00 -3.557e+00 2.813e+00 -5.578e-01 -1.439e-01 -4.981e-02
404 1 3.560e+00 -1.804e+00 2.816e+00 -5.572e-01 -1.051e-01 -6.371e-02
405 1 -1.809e+00 -3.558e+00 2.813e+00 -5.251e-01 -1.072e-01 -2.147e-02
406 1 3.560e+00 1.813e+00 2.812e+00 -5.985e-01 -2.349e-02 -6.218e-02
407 1 1.766e+00 5.345e-03 -4.223e+00 -4.199e-01 -1.601e-01 -2.546e-02