ITEM: TIMESTEP
0
ITEM: NUMBER OF ATOMS
89
ITEM: BOX BOUNDS xy xz yz pp pp pp
                     0.00000000000000e+00 1.06200000000000e+01 0.00000000000000e+00
0.00000000000000e+00	1.06200000000000e+01	0.00000000000000e+00
0.00000000000000e+00	1.06200000000000e+01	0.00000000000000e+00
ITEM: ATOMS id type x y z DisplacementX DisplacementY DisplacementZ
1 1 -2.191e-03 4.079e-03 -5.985e+00 -4.388e-02 -4.218e-03 -1.310e-02
2 1 3.541e+00 -3.537e+00 -2.492e+00 -4.474e-02 1.524e-02 -1.643e-02
3 1 -3.542e+00 3.546e+00 -2.492e+00 6.986e-03 1.988e-03 2.808e-02
4 1 -3.543e+00 -3.536e+00 -2.490e+00 -5.524e-04 -1.713e-02 1.284e-02
5 1 3.541e+00 3.546e+00 -2.490e+00 -2.526e-02 -2.513e-02 -5.311e-03
6 1 1.773e+00 -3.533e+00 -4.258e+00 -3.418e-02 2.082e-02 3.490e-02
7 1 3.538e+00 -1.772e+00 -4.256e+00 3.652e-02 -2.797e-02 -4.389e-03
8 1 -1.778e+00 -3.534e+00 -4.256e+00 -4.682e-02 3.515e-02 -2.927e-03
9 1 3.538e+00 1.781e+00 -4.258e+00 5.032e-03 3.268e-02 2.341e-03
10 1 -3.540e+00 1.779e+00 -4.257e+00 1.778e-02 2.261e-02 -2.478e-02
11 1 -1.777e+00 3.545e+00 -4.255e+00 -4.605e-02 1.528e-02 -2.727e-03
12 1 -3.540e+00 -1.771e+00 -4.257e+00 5.195e-02 -4.296e-02 -3.782e-02
13 1 1.774e+00 3.544e+00 -4.258e+00 -3.073e-02 -3.968e-03 2.879e-02
14 1 1.383e-03 3.620e+00 4.662e+00 8.352e-04 -1.127e-01 -8.572e-02
15 1 -3.617e+00 4.547e-03 4.660e+00 4.192e-02 9.902e-03 -9.190e-02
16 1 3.613e+00 6.159e-03 4.660e+00 -1.136e-01 -2.956e-04 -4.433e-02
17 1 -2.000e-03 -3.607e+00 4.660e+00 4.068e-02 4.566e-02 -9.887e-02
18 1 5.297e+00 -1.763e+00 1.047e+00 3.819e-02 -4.010e-02 3.314e-03
19 1 1.766e+00 -5.294e+00 1.047e+00 7.599e-03 3.610e-03 1.819e-02
20 1 1.766e+00 5.303e+00 1.049e+00 -1.590e-02 1.353e-02 1.817e-03
21 1 -5.302e+00 -1.762e+00 1.047e+00 1.662e-03 -2.756e-02 2.205e-02
22 1 -1.770e+00 5.304e+00 1.046e+00 -5.693e-03 2.038e-02 3.163e-02
23 1 -5.300e+00 1.774e+00 1.046e+00 3.323e-02 3.009e-03 4.200e-02
24 1 5.296e+00 1.772e+00 1.048e+00 4.537e-02 5.171e-02 7.832e-03
25 1 -1.771e+00 -5.292e+00 1.049e+00 -1.947e-02 8.458e-05 1.985e-02
26 1 -1.002e-03 -5.270e+00 -7.262e-01 -4.696e-02 -1.943e-02 4.852e-02
27 1 5.274e+00 4.854e-03 -7.253e-01 3.665e-02 9.755e-03 3.780e-02
28 1 -5.277e+00 5.514e-03 -7.235e-01 5.453e-02 2.156e-02 4.115e-02
29 1 -1.019e-03 5.283e+00 -7.240e-01 -6.218e-02 -1.578e-02 5.073e-02
30 1 -5.277e+00 5.678e-03 2.821e+00 -9.054e-02 -4.377e-03 -4.142e-02
31 1 -1.060e-03 5.282e+00 2.820e+00 6.914e-02 1.638e-02 -1.574e-02
32 1 8.443e-04 -5.272e+00 2.820e+00 4.335e-02 -3.736e-02 -3.990e-02
33 1 5.276e+00 6.739e-03 2.820e+00 1.893e-04 -1.762e-03 7.232e-02
34 1 -1.795e+00 1.797e+00 4.600e+00 1.940e-02 -2.249e-03 1.067e-03
35 1 1.791e+00 -1.786e+00 4.601e+00 -6.599e-02 3.110e-02 -5.863e-02
36 1 1.790e+00 1.798e+00 4.600e+00 -3.257e-02 -3.021e-02 -4.403e-02
37 1 -1.793e+00 -1.787e+00 4.600e+00 -2.965e-03 1.122e-02 2.615e-02
38 1 3.520e+00 -3.517e+00 1.048e+00 1.709e-02 -3.943e-02 6.699e-02
39 1 -3.521e+00 3.525e+00 1.046e+00 -3.513e-02 3.886e-02 -2.214e-02
40 1 3.519e+00 3.526e+00 1.048e+00 1.388e-02 5.416e-02 6.022e-02
41 1 -3.522e+00 -3.516e+00 1.048e+00 1.189e-02 -2.532e-02 1.562e-02
42 1 -7.522e-04 6.280e-03 4.540e+00 -4.204e-02 2.990e-02 -4.027e-02
43 1 -3.563e+00 1.811e+00 2.811e+00 4.862e-02 -9.615e-02 3.654e-02
44 1 -1.809e+00 3.567e+00 2.811e+00 8.694e-03 1.544e-02 4.373e-02
45 1 -3.563e+00 -1.803e+00 2.812e+00 4.898e-02 9.857e-02 -5.244e-03
46 1 1.807e+00 3.568e+00 2.811e+00 -8.692e-02 -7.048e-02 -2.111e-03
47 1 1.806e+00 -3.557e+00 2.810e+00 -9.179e-02 9.076e-02 5.247e-02
48 1 3.561e+00 -1.801e+00 2.814e+00 -3.414e-04 -1.553e-02 5.400e-02
49 1 -1.809e+00 -3.556e+00 2.812e+00 -2.474e-04 2.129e-02 7.569e-02
50 1 3.560e+00 1.813e+00 2.812e+00 -1.123e-02 8.103e-03 6.192e-02
51 1 1.764e+00 5.530e-03 -4.223e+00 8.077e-03 2.164e-03 -1.078e-01
52 1 -1.175e-03 -1.760e+00 -4.223e+00 -3.956e-02 -2.701e-02 -8.833e-02
53 1 -1.686e-03 1.767e+00 -4.223e+00 -7.417e-02 2.441e-02 -5.945e-02
54 1 -1.765e+00 4.228e-03 -4.222e+00 -6.141e-02 5.623e-03 -6.171e-02
55 1 3.612e+00 4.759e-03 -2.565e+00 2.071e-02 6.264e-03 -1.305e-01
56 1 -2.569e-03 -3.610e+00 -2.566e+00 7.736e-03 5.138e-02 6.478e-02
57 1 -1.229e-03 3.619e+00 -2.564e+00 2.615e-02 -3.337e-02 3.357e-02
58 1 -3.613e+00 5.500e-03 -2.563e+00 7.438e-02 -5.166e-03 1.002e-02
59 1 -1.641e-03 9.426e-03 2.102e+00 -1.374e-01 -6.197e-03 -7.549e-01
60 1 2.372e-03 -5.017e-04 -2.144e-03 6.853e-01 1.675e-02 -7.074e-01
61 1 1.807e+00 -3.556e+00 -7.153e-01 -1.285e-02 -1.577e-02 -3.453e-02
62 1 3.561e+00 -1.803e+00 -7.170e-01 4.358e-02 -1.910e-01 2.053e-02
63 1 -1.810e+00 -3.559e+00 -7.154e-01 -1.368e-02 -1.579e-02 -1.026e-03
64 1 3.562e+00 1.811e+00 -7.153e-01 5.037e-02 1.793e-01 1.023e-02
65 1 -3.563e+00 1.809e+00 -7.166e-01 1.462e-02 -1.227e-03 -2.640e-02
66 1 -1.809e+00 3.564e+00 -7.160e-01 -1.105e-02 -6.049e-03 -1.412e-02
67 1 -3.563e+00 -1.804e+00 -7.158e-01 -4.047e-04 8.786e-03 -5.338e-03
68 1 1.806e+00 3.567e+00 -7.166e-01 -1.229e-02 1.796e-02 -2.616e-02
69 1 -2.038e-03 -2.031e+00 -8.657e-01 -7.610e-02 -8.095e-03 1.126e-01
70 1 2.032e+00 5.260e-03 -8.645e-01 7.006e-01 -7.172e-03 1.336e-01
71 1 -2.033e+00 6.904e-03 -8.654e-01 2.033e-01 -5.690e-03 1.537e-01
72 1 -7.396e-04 2.033e+00 -8.623e-01 -5.764e-02 1.745e-02 1.203e-01
73 1 -2.036e+00 5.653e-03 2.961e+00 2.575e-01 -1.947e-02 -2.225e-02
74 1 -2.497e-03 2.042e+00 2.961e+00 -5.605e-02 -1.964e-01 -8.592e-02
75 1 -2.086e-03 -2.029e+00 2.961e+00 -7.139e-02 1.580e-01 -8.932e-02
76 1 2.033e+00 4.909e-03 2.960e+00 -1.512e-01 8.416e-03 -1.306e-01
77 1 -5.064e-04 3.554e+00 1.048e+00 -4.315e-02 1.488e-02 3.967e-02
78 1 -3.552e+00 5.780e-03 1.047e+00 9.640e-02 6.718e-04 1.363e-02
79 1 3.551e+00 5.935e-03 1.047e+00 1.267e-01 -7.001e-03 2.281e-01
80 1 -1.658e-03 -3.547e+00 1.048e+00 -5.131e-02 -9.629e-03 -3.469e-03
81 1 1.789e+00 -1.789e+00 -2.503e+00 -8.448e-03 5.663e-02 9.018e-02
82 1 -1.794e+00 -1.787e+00 -2.504e+00 3.334e-03 2.901e-02 8.823e-02
83 1 1.790e+00 1.797e+00 -2.504e+00 -2.618e-03 -5.002e-02 7.575e-02
84 1 -1.793e+00 1.796e+00 -2.505e+00 1.050e-03 -3.722e-02 7.660e-02
85 1 9.933e-04 5.328e-03 -2.444e+00 -8.936e-02 -1.331e-03 -2.113e-01
86 1 1.672e+00 -1.668e+00 1.050e+00 1.127e-01 2.325e-02 -7.648e-02
87 1 -1.675e+00 1.677e+00 1.050e+00 -1.455e-01 1.045e-01 4.696e-03
88 1 1.673e+00 1.678e+00 1.049e+00 6.373e-02 -1.864e-02 -7.350e-02
89 1 -1.674e+00 -1.668e+00 1.048e+00 -1.274e-01 -1.144e-01 -7.974e-03
