ITEM: TIMESTEP
0
ITEM: NUMBER OF ATOMS
89
ITEM: BOX BOUNDS xy xz yz pp pp pp
                     0.00000000000000e+00 1.06200000000000e+01 0.00000000000000e+00
0.00000000000000e+00	1.06200000000000e+01	0.00000000000000e+00
0.00000000000000e+00	1.06200000000000e+01	0.00000000000000e+00
ITEM: ATOMS id type x y z DisplacementX DisplacementY DisplacementZ
1 1 -1.224e-03 3.528e-03 -5.981e+00 -1.444e-02 2.995e-03 -1.835e-03
2 1 3.540e+00 -3.537e+00 -2.493e+00 -2.556e-02 2.026e-02 -1.965e-02
3 1 -3.542e+00 3.544e+00 -2.492e+00 -1.006e-02 2.465e-02 -1.396e-03
4 1 -3.542e+00 -3.537e+00 -2.490e+00 -6.036e-03 -2.247e-02 -3.406e-03
5 1 3.539e+00 3.545e+00 -2.491e+00 -2.553e-02 -1.494e-02 -1.746e-02
6 1 1.773e+00 -3.535e+00 -4.259e+00 -4.219e-02 1.128e-02 2.106e-02
7 1 3.538e+00 -1.772e+00 -4.257e+00 -1.388e-04 -2.267e-02 3.345e-03
8 1 -1.776e+00 -3.535e+00 -4.258e+00 -3.372e-02 1.955e-02 1.620e-02
9 1 3.538e+00 1.779e+00 -4.258e+00 2.256e-03 3.111e-02 6.116e-04
10 1 -3.540e+00 1.780e+00 -4.256e+00 1.859e-02 1.901e-02 -1.435e-02
11 1 -1.776e+00 3.545e+00 -4.254e+00 -3.959e-02 -1.274e-02 1.773e-02
12 1 -3.539e+00 -1.770e+00 -4.258e+00 1.708e-02 -2.177e-02 -1.148e-02
13 1 1.775e+00 3.543e+00 -4.256e+00 -4.718e-02 -8.011e-03 2.273e-02
14 1 -7.102e-04 3.621e+00 4.661e+00 9.453e-03 -7.317e-02 -7.548e-02
15 1 -3.616e+00 6.587e-03 4.661e+00 3.747e-02 -8.238e-04 -6.661e-02
16 1 3.613e+00 3.417e-03 4.660e+00 -1.104e-01 3.622e-03 -7.814e-02
17 1 -2.011e-03 -3.608e+00 4.660e+00 1.119e-02 7.551e-02 -7.462e-02
18 1 5.297e+00 -1.763e+00 1.047e+00 1.746e-02 -2.415e-02 1.733e-02
19 1 1.766e+00 -5.294e+00 1.047e+00 -2.291e-02 7.966e-04 1.584e-02
20 1 1.765e+00 5.304e+00 1.046e+00 -1.772e-02 5.679e-03 1.485e-02
21 1 -5.300e+00 -1.762e+00 1.048e+00 1.684e-02 9.145e-03 1.883e-02
22 1 -1.768e+00 5.305e+00 1.049e+00 -1.831e-02 7.268e-03 1.711e-02
23 1 -5.301e+00 1.773e+00 1.047e+00 1.873e-02 -3.492e-03 1.818e-02
24 1 5.297e+00 1.775e+00 1.047e+00 1.836e-02 2.612e-02 1.785e-02
25 1 -1.769e+00 -5.292e+00 1.047e+00 -2.094e-02 -4.716e-03 1.720e-02
26 1 -2.578e-03 -5.271e+00 -7.239e-01 -5.048e-02 3.245e-03 1.953e-02
27 1 5.274e+00 5.284e-03 -7.253e-01 6.291e-04 2.562e-03 9.528e-03
28 1 -5.279e+00 6.956e-03 -7.242e-01 3.132e-02 2.900e-03 1.298e-02
29 1 -2.900e-03 5.282e+00 -7.234e-01 -5.051e-02 2.879e-03 1.572e-02
30 1 -5.277e+00 6.421e-03 2.820e+00 -6.684e-02 1.225e-03 -9.510e-03
31 1 7.268e-04 5.282e+00 2.819e+00 5.264e-02 1.648e-02 5.800e-03
32 1 -2.378e-03 -5.272e+00 2.821e+00 5.548e-02 -1.582e-02 2.685e-03
33 1 5.274e+00 6.129e-03 2.819e+00 2.839e-02 3.508e-03 1.034e-01
34 1 -1.793e+00 1.798e+00 4.599e+00 1.039e-02 -9.563e-03 6.019e-03
35 1 1.793e+00 -1.785e+00 4.601e+00 -3.606e-02 2.522e-02 -2.523e-02
36 1 1.790e+00 1.797e+00 4.601e+00 -3.359e-02 -2.335e-02 -2.807e-02
37 1 -1.794e+00 -1.785e+00 4.601e+00 4.011e-03 1.717e-02 9.360e-03
38 1 3.517e+00 -3.517e+00 1.048e+00 -1.600e-03 -4.524e-02 5.587e-02
39 1 -3.522e+00 3.525e+00 1.047e+00 -2.914e-02 2.721e-02 1.657e-02
40 1 3.520e+00 3.525e+00 1.048e+00 -2.944e-03 5.036e-02 4.977e-02
41 1 -3.521e+00 -3.516e+00 1.047e+00 -3.024e-02 -2.238e-02 1.957e-02
42 1 -5.425e-04 5.778e-03 4.542e+00 -1.947e-02 4.152e-03 2.554e-02
43 1 -3.565e+00 1.812e+00 2.812e+00 3.209e-02 -7.215e-02 1.463e-02
44 1 -1.811e+00 3.569e+00 2.811e+00 1.021e-03 1.605e-02 2.418e-02
45 1 -3.564e+00 -1.803e+00 2.812e+00 3.456e-02 7.836e-02 9.128e-03
46 1 1.809e+00 3.571e+00 2.813e+00 -7.360e-02 -7.431e-02 9.604e-04
47 1 1.805e+00 -3.557e+00 2.813e+00 -7.348e-02 7.979e-02 -1.377e-03
48 1 3.563e+00 -1.803e+00 2.812e+00 -2.379e-02 -2.313e-02 3.968e-02
49 1 -1.809e+00 -3.559e+00 2.811e+00 2.933e-03 -9.004e-03 2.423e-02
50 1 3.560e+00 1.812e+00 2.812e+00 -2.538e-02 2.769e-02 4.205e-02
51 1 1.763e+00 3.730e-03 -4.222e+00 2.412e-02 4.151e-04 -7.158e-02
52 1 -5.240e-04 -1.762e+00 -4.220e+00 -4.779e-02 -4.192e-02 -4.394e-02
53 1 -7.450e-04 1.770e+00 -4.223e+00 -3.999e-02 4.918e-02 -4.992e-02
54 1 -1.766e+00 4.202e-03 -4.222e+00 -6.692e-02 7.430e-03 -7.399e-02
55 1 3.612e+00 4.669e-03 -2.564e+00 1.731e-02 6.227e-03 -1.457e-01
56 1 -1.173e-03 -3.609e+00 -2.565e+00 2.586e-02 5.874e-02 4.311e-02
57 1 -5.865e-04 3.615e+00 -2.564e+00 1.805e-02 -5.042e-02 4.654e-02
58 1 -3.616e+00 4.817e-03 -2.565e+00 7.531e-02 5.703e-04 6.046e-02
59 1 -3.405e-03 8.116e-03 2.103e+00 -1.598e-01 -1.950e-03 -7.797e-01
60 1 2.366e-05 -2.965e-03 2.360e-04 7.022e-01 1.029e-02 -7.057e-01
61 1 1.807e+00 -3.558e+00 -7.165e-01 -2.208e-02 -2.231e-02 -2.760e-03
62 1 3.560e+00 -1.803e+00 -7.164e-01 7.477e-02 -1.856e-01 1.404e-02
63 1 -1.809e+00 -3.558e+00 -7.162e-01 -2.193e-02 -9.113e-03 7.146e-03
64 1 3.562e+00 1.814e+00 -7.151e-01 7.486e-02 1.878e-01 1.374e-02
65 1 -3.563e+00 1.811e+00 -7.162e-01 1.760e-02 -3.281e-03 6.058e-03
66 1 -1.808e+00 3.567e+00 -7.159e-01 -2.255e-02 1.692e-02 7.696e-03
67 1 -3.563e+00 -1.803e+00 -7.157e-01 1.685e-02 9.103e-03 3.417e-03
68 1 1.804e+00 3.565e+00 -7.159e-01 -2.251e-02 2.669e-02 1.152e-04
69 1 -5.996e-04 -2.030e+00 -8.651e-01 -1.006e-01 4.841e-03 1.507e-01
70 1 2.031e+00 6.675e-03 -8.658e-01 7.148e-01 1.416e-03 1.537e-01
71 1 -2.031e+00 4.347e-03 -8.640e-01 2.348e-01 5.236e-03 1.662e-01
72 1 -2.020e-03 2.034e+00 -8.639e-01 -1.020e-01 1.182e-02 1.484e-01
73 1 -2.034e+00 4.984e-03 2.962e+00 2.301e-01 3.208e-03 -5.590e-02
74 1 -7.989e-04 2.041e+00 2.963e+00 -7.100e-02 -2.183e-01 -1.028e-01
75 1 -1.456e-03 -2.027e+00 2.959e+00 -7.620e-02 2.203e-01 -9.899e-02
76 1 2.032e+00 4.502e-03 2.962e+00 -2.228e-01 2.948e-03 -1.308e-01
77 1 -2.419e-03 3.555e+00 1.046e+00 -5.117e-02 1.214e-02 5.492e-02
78 1 -3.551e+00 5.158e-03 1.048e+00 7.430e-02 2.023e-03 1.070e-02
79 1 3.549e+00 4.741e-03 1.047e+00 1.545e-01 1.978e-03 2.638e-01
80 1 -2.345e-03 -3.546e+00 1.047e+00 -5.272e-02 -4.386e-03 5.387e-02
81 1 1.791e+00 -1.788e+00 -2.503e+00 -3.478e-02 6.828e-02 9.253e-02
82 1 -1.792e+00 -1.788e+00 -2.502e+00 -1.356e-02 4.791e-02 3.203e-02
83 1 1.791e+00 1.797e+00 -2.503e+00 -3.162e-02 -6.810e-02 8.994e-02
84 1 -1.792e+00 1.796e+00 -2.506e+00 -1.315e-02 -3.254e-02 2.932e-02
85 1 -1.888e-03 4.894e-03 -2.442e+00 -1.603e-01 5.757e-03 -2.972e-01
86 1 1.672e+00 -1.669e+00 1.050e+00 7.638e-02 7.897e-03 -7.318e-02
87 1 -1.675e+00 1.678e+00 1.049e+00 -1.252e-01 1.200e-01 2.354e-02
88 1 1.673e+00 1.679e+00 1.051e+00 7.562e-02 2.118e-03 -7.360e-02
89 1 -1.675e+00 -1.669e+00 1.051e+00 -1.220e-01 -1.114e-01 2.195e-02
