ITEM: TIMESTEP
0
ITEM: NUMBER OF ATOMS
89
ITEM: BOX BOUNDS xy xz yz pp pp pp
                     0.00000000000000e+00 1.06200000000000e+01 0.00000000000000e+00
0.00000000000000e+00	1.06200000000000e+01	0.00000000000000e+00
0.00000000000000e+00	1.06200000000000e+01	0.00000000000000e+00
ITEM: ATOMS id type x y z DisplacementX DisplacementY DisplacementZ
1 1 -2.873e-03 6.191e-03 -5.984e+00 -2.931e-01 -4.371e-02 -1.446e-02
2 1 3.538e+00 -3.536e+00 -2.493e+00 -4.320e-01 -1.266e-01 -6.797e-02
3 1 -3.544e+00 3.544e+00 -2.491e+00 -2.882e-01 -2.048e-02 3.609e-02
4 1 -3.543e+00 -3.536e+00 -2.492e+00 -4.608e-01 -4.057e-02 9.432e-03
5 1 3.539e+00 3.545e+00 -2.490e+00 -2.746e-01 -6.878e-02 -3.718e-02
6 1 1.775e+00 -3.536e+00 -4.257e+00 -4.181e-01 -1.248e-01 -5.564e-02
7 1 3.538e+00 -1.770e+00 -4.256e+00 -3.651e-01 -1.179e-01 -6.305e-02
8 1 -1.777e+00 -3.534e+00 -4.259e+00 -4.482e-01 -5.368e-02 -2.715e-03
9 1 3.538e+00 1.781e+00 -4.258e+00 -2.661e-01 -7.900e-02 -4.229e-02
10 1 -3.539e+00 1.779e+00 -4.258e+00 -3.131e-01 -2.483e-02 3.752e-02
11 1 -1.776e+00 3.542e+00 -4.257e+00 -2.872e-01 -3.776e-02 3.095e-02
12 1 -3.542e+00 -1.768e+00 -4.256e+00 -4.158e-01 -2.604e-02 1.246e-02
13 1 1.773e+00 3.544e+00 -4.257e+00 -2.609e-01 -7.115e-02 -2.628e-02
14 1 -2.679e-03 3.620e+00 4.663e+00 -3.884e-01 -3.402e-02 2.214e-02
15 1 -3.617e+00 7.424e-03 4.661e+00 -3.176e-01 -4.803e-02 3.954e-02
16 1 3.614e+00 3.120e-03 4.662e+00 -3.429e-01 -2.815e-02 -7.433e-02
17 1 -1.919e-03 -3.608e+00 4.661e+00 -3.897e-01 -6.717e-02 -2.779e-02
18 1 5.296e+00 -1.763e+00 1.048e+00 -4.177e-01 -5.577e-02 -8.687e-02
19 1 1.766e+00 -5.292e+00 1.049e+00 -5.779e-01 -1.177e-01 -2.923e-02
20 1 1.766e+00 5.304e+00 1.046e+00 -4.168e-01 -3.893e-02 -7.295e-03
21 1 -5.300e+00 -1.763e+00 1.047e+00 -4.000e-01 -6.131e-02 2.062e-02
22 1 -1.769e+00 5.303e+00 1.046e+00 -3.788e-01 -1.880e-02 1.082e-02
23 1 -5.300e+00 1.772e+00 1.049e+00 -3.121e-01 -5.053e-02 1.827e-02
24 1 5.297e+00 1.773e+00 1.046e+00 -3.740e-01 -3.851e-02 -8.091e-02
25 1 -1.769e+00 -5.292e+00 1.048e+00 -5.748e-01 -1.105e-01 3.634e-03
26 1 9.069e-05 -5.272e+00 -7.234e-01 -6.211e-01 -1.226e-01 -1.428e-02
27 1 5.274e+00 4.811e-03 -7.247e-01 -3.861e-01 -5.732e-02 -8.333e-02
28 1 -5.278e+00 3.904e-03 -7.252e-01 -3.630e-01 -4.195e-02 1.366e-02
29 1 -1.831e-03 5.281e+00 -7.260e-01 -3.757e-01 -2.180e-02 -2.522e-03
30 1 -5.278e+00 4.122e-03 2.820e+00 -3.376e-01 -6.698e-02 3.135e-02
31 1 -6.452e-04 5.283e+00 2.820e+00 -4.200e-01 -3.962e-02 1.603e-02
32 1 -1.440e-03 -5.272e+00 2.819e+00 -5.213e-01 -1.121e-01 -1.646e-02
33 1 5.276e+00 5.065e-03 2.820e+00 -3.716e-01 -4.116e-02 -8.843e-02
34 1 -1.792e+00 1.796e+00 4.599e+00 -3.492e-01 -3.358e-02 3.946e-02
35 1 1.792e+00 -1.787e+00 4.601e+00 -3.633e-01 -4.464e-02 -5.952e-02
36 1 1.791e+00 1.797e+00 4.603e+00 -3.738e-01 -2.698e-02 -2.663e-02
37 1 -1.793e+00 -1.787e+00 4.598e+00 -3.602e-01 -4.688e-02 8.988e-03
38 1 3.519e+00 -3.517e+00 1.049e+00 -5.270e-01 -9.140e-02 -6.983e-02
39 1 -3.522e+00 3.525e+00 1.048e+00 -3.392e-01 -2.408e-02 1.850e-02
40 1 3.520e+00 3.524e+00 1.046e+00 -4.102e-01 -4.374e-02 -4.426e-02
41 1 -3.522e+00 -3.515e+00 1.049e+00 -5.217e-01 -7.623e-02 1.466e-02
42 1 -1.957e-05 4.537e-03 4.541e+00 -3.657e-01 -2.604e-02 -1.395e-02
43 1 -3.562e+00 1.812e+00 2.811e+00 -3.764e-01 -4.891e-02 3.683e-02
44 1 -1.808e+00 3.567e+00 2.813e+00 -4.283e-01 -3.305e-02 3.146e-02
45 1 -3.566e+00 -1.803e+00 2.812e+00 -4.518e-01 -6.528e-02 2.745e-02
46 1 1.808e+00 3.569e+00 2.812e+00 -4.748e-01 -4.193e-02 -1.001e-02
47 1 1.806e+00 -3.557e+00 2.813e+00 -5.427e-01 -9.611e-02 -5.618e-02
48 1 3.561e+00 -1.803e+00 2.811e+00 -4.673e-01 -5.473e-02 -9.495e-02
49 1 -1.808e+00 -3.557e+00 2.814e+00 -5.420e-01 -8.956e-02 -2.410e-03
50 1 3.561e+00 1.813e+00 2.814e+00 -4.368e-01 -3.663e-02 -7.525e-02
51 1 1.764e+00 4.367e-03 -4.224e+00 -4.012e-01 -9.775e-02 -4.815e-02
52 1 -4.745e-04 -1.760e+00 -4.223e+00 -4.994e-01 -8.962e-02 -3.155e-02
53 1 3.557e-04 1.769e+00 -4.220e+00 -3.738e-01 -6.116e-02 -5.793e-03
54 1 -1.766e+00 5.837e-03 -4.221e+00 -4.489e-01 -3.996e-02 9.443e-03
55 1 3.612e+00 6.256e-03 -2.563e+00 -4.240e-01 -9.728e-02 -7.640e-02
56 1 -2.300e-03 -3.610e+00 -2.567e+00 -6.303e-01 -1.163e-01 -3.631e-02
57 1 -2.041e-03 3.617e+00 -2.562e+00 -3.788e-01 -4.478e-02 -5.944e-04
58 1 -3.615e+00 5.657e-03 -2.563e+00 -4.606e-01 -2.319e-02 1.977e-02
59 1 -2.012e-03 7.337e-03 2.102e+00 -4.159e-01 -2.748e-02 -2.628e-02
60 1 -6.016e-06 -3.644e-04 -8.553e-04 -4.589e-01 -3.890e-02 -3.421e-02
61 1 1.808e+00 -3.560e+00 -7.165e-01 -6.832e-01 -1.353e-01 -6.507e-02
62 1 3.560e+00 -1.802e+00 -7.153e-01 -5.522e-01 -1.020e-01 -9.498e-02
63 1 -1.810e+00 -3.557e+00 -7.182e-01 -6.891e-01 -9.482e-02 -5.653e-03
64 1 3.563e+00 1.812e+00 -7.167e-01 -4.386e-01 -6.550e-02 -7.081e-02
65 1 -3.562e+00 1.812e+00 -7.150e-01 -4.049e-01 -2.677e-02 2.012e-02
66 1 -1.808e+00 3.566e+00 -7.160e-01 -4.112e-01 -1.739e-02 1.624e-02
67 1 -3.564e+00 -1.801e+00 -7.161e-01 -5.578e-01 -5.180e-02 1.049e-02
68 1 1.805e+00 3.566e+00 -7.158e-01 -4.454e-01 -5.033e-02 -2.676e-02
69 1 -1.016e-03 -2.030e+00 -8.654e-01 -6.382e-01 -8.837e-02 -4.649e-02
70 1 2.033e+00 5.198e-03 -8.648e-01 -5.157e-01 -7.493e-02 -7.114e-02
71 1 -2.033e+00 4.562e-03 -8.659e-01 -5.163e-01 -2.985e-02 -2.289e-03
72 1 -1.387e-03 2.031e+00 -8.623e-01 -4.542e-01 -3.514e-02 -1.191e-02
73 1 -2.038e+00 3.760e-03 2.961e+00 -4.414e-01 -3.687e-02 2.200e-02
74 1 -8.767e-04 2.041e+00 2.963e+00 -4.598e-01 -3.022e-02 6.917e-03
75 1 -1.109e-03 -2.026e+00 2.960e+00 -5.030e-01 -5.922e-02 -3.846e-02
76 1 2.031e+00 3.154e-03 2.962e+00 -4.614e-01 -3.775e-02 -7.020e-02
77 1 -1.450e-03 3.556e+00 1.048e+00 -5.116e-01 -3.129e-02 4.036e-03
78 1 -3.550e+00 5.154e-03 1.048e+00 -4.737e-01 -5.786e-02 2.212e-02
79 1 3.548e+00 4.534e-03 1.049e+00 -5.178e-01 -6.068e-02 -1.068e-01
80 1 -1.940e-03 -3.546e+00 1.048e+00 -7.317e-01 -1.267e-01 -3.414e-02
81 1 1.790e+00 -1.788e+00 -2.503e+00 -5.923e-01 -1.398e-01 -7.807e-02
82 1 -1.792e+00 -1.788e+00 -2.504e+00 -6.266e-01 -6.194e-02 -5.646e-03
83 1 1.790e+00 1.795e+00 -2.504e+00 -4.232e-01 -8.633e-02 -4.503e-02
84 1 -1.794e+00 1.796e+00 -2.503e+00 -4.472e-01 -3.410e-02 2.459e-02
85 1 -1.849e-03 4.769e-03 -2.442e+00 -5.222e-01 -6.816e-02 -3.059e-02
86 1 1.672e+00 -1.669e+00 1.049e+00 -6.039e-01 -8.202e-02 -8.032e-02
87 1 -1.675e+00 1.678e+00 1.049e+00 -4.556e-01 -2.243e-02 1.585e-02
88 1 1.671e+00 1.677e+00 1.050e+00 -4.970e-01 -4.195e-02 -4.702e-02
89 1 -1.675e+00 -1.669e+00 1.050e+00 -5.995e-01 -6.199e-02 -6.137e-03
ITEM: TIMESTEP
0
ITEM: NUMBER OF ATOMS
89
ITEM: BOX BOUNDS xy xz yz pp pp pp
                     0.00000000000000e+00 1.06200000000000e+01 0.00000000000000e+00
0.00000000000000e+00	1.06200000000000e+01	0.00000000000000e+00
0.00000000000000e+00	1.06200000000000e+01	0.00000000000000e+00
ITEM: ATOMS id type x y z DisplacementX DisplacementY DisplacementZ
90 1 8.691e-04 5.017e-03 -5.983e+00 -3.198e-01 4.423e-02 1.745e-02
91 1 3.539e+00 -3.537e+00 -2.488e+00 -3.432e-01 -2.378e-02 9.099e-03
92 1 -3.542e+00 3.546e+00 -2.490e+00 -3.134e-01 7.803e-02 2.339e-02
93 1 -3.543e+00 -3.537e+00 -2.491e+00 -3.842e-01 -1.227e-03 5.669e-02
94 1 3.540e+00 3.547e+00 -2.489e+00 -4.122e-01 1.810e-02 1.594e-03
95 1 1.774e+00 -3.534e+00 -4.256e+00 -3.288e-01 -1.372e-02 1.887e-02
96 1 3.538e+00 -1.771e+00 -4.259e+00 -3.330e-01 -7.824e-03 1.906e-03
97 1 -1.776e+00 -3.534e+00 -4.255e+00 -3.578e-01 2.202e-03 5.527e-02
98 1 3.539e+00 1.779e+00 -4.258e+00 -3.860e-01 2.105e-03 7.357e-04
99 1 -3.540e+00 1.780e+00 -4.258e+00 -3.031e-01 6.815e-02 3.186e-02
100 1 -1.776e+00 3.544e+00 -4.256e+00 -3.176e-01 8.101e-02 2.023e-02
101 1 -3.539e+00 -1.771e+00 -4.259e+00 -3.458e-01 1.652e-02 5.697e-02
102 1 1.772e+00 3.543e+00 -4.256e+00 -3.844e-01 2.338e-02 7.771e-03
103 1 -1.505e-04 3.620e+00 4.663e+00 -6.431e-01 7.586e-02 4.965e-02
104 1 -3.617e+00 6.114e-03 4.661e+00 -4.892e-01 -4.766e-03 2.524e-02
105 1 3.613e+00 5.519e-03 4.661e+00 -5.114e-01 -1.844e-02 1.058e-02
106 1 -7.557e-04 -3.610e+00 4.661e+00 -4.694e-01 -3.446e-02 3.024e-02
107 1 5.296e+00 -1.764e+00 1.048e+00 -4.599e-01 -3.440e-02 -1.217e-02
108 1 1.766e+00 -5.292e+00 1.048e+00 -4.855e-01 -6.065e-02 3.943e-02
109 1 1.765e+00 5.304e+00 1.047e+00 -6.070e-01 1.463e-01 6.109e-03
110 1 -5.300e+00 -1.762e+00 1.050e+00 -4.832e-01 1.325e-02 1.229e-02
111 1 -1.769e+00 5.303e+00 1.048e+00 -5.486e-01 1.253e-01 2.681e-02
112 1 -5.299e+00 1.773e+00 1.048e+00 -4.353e-01 1.176e-02 1.159e-02
113 1 5.297e+00 1.773e+00 1.048e+00 -4.915e-01 1.274e-02 -2.260e-02
114 1 -1.768e+00 -5.294e+00 1.047e+00 -5.088e-01 -5.563e-02 5.381e-02
115 1 -1.987e-03 -5.271e+00 -7.243e-01 -4.891e-01 -5.989e-02 5.248e-02
116 1 5.274e+00 4.838e-03 -7.238e-01 -4.494e-01 -1.214e-02 -2.190e-02
117 1 -5.276e+00 4.993e-03 -7.248e-01 -4.245e-01 1.469e-02 1.837e-02
118 1 -1.509e-03 5.280e+00 -7.245e-01 -5.242e-01 1.384e-01 8.770e-03
119 1 -5.277e+00 4.976e-03 2.819e+00 -4.765e-01 9.554e-03 5.941e-03
120 1 -1.884e-03 5.282e+00 2.820e+00 -6.463e-01 1.411e-01 3.256e-02
121 1 -1.915e-04 -5.271e+00 2.822e+00 -4.873e-01 -5.779e-02 4.494e-02
122 1 5.275e+00 5.298e-03 2.820e+00 -4.832e-01 -2.189e-02 -1.069e-02
123 1 -1.793e+00 1.799e+00 4.601e+00 -5.987e-01 1.717e-02 5.184e-02
124 1 1.789e+00 -1.785e+00 4.600e+00 -5.252e-01 -3.235e-02 2.533e-02
125 1 1.792e+00 1.799e+00 4.601e+00 -6.298e-01 2.700e-02 3.740e-02
126 1 -1.794e+00 -1.787e+00 4.599e+00 -5.170e-01 -1.920e-02 3.400e-02
127 1 3.519e+00 -3.514e+00 1.046e+00 -5.044e-01 -4.610e-02 9.915e-03
128 1 -3.520e+00 3.524e+00 1.048e+00 -5.028e-01 6.134e-02 2.408e-02
129 1 3.518e+00 3.526e+00 1.049e+00 -5.964e-01 8.774e-02 -1.181e-02
130 1 -3.524e+00 -3.515e+00 1.047e+00 -5.421e-01 -1.263e-02 3.467e-02
131 1 -4.971e-04 4.537e-03 4.540e+00 -6.314e-01 -2.141e-02 4.588e-02
132 1 -3.561e+00 1.812e+00 2.811e+00 -5.881e-01 1.529e-02 2.784e-02
133 1 -1.808e+00 3.568e+00 2.813e+00 -6.899e-01 9.118e-02 4.712e-02
134 1 -3.564e+00 -1.803e+00 2.813e+00 -5.872e-01 -1.684e-03 2.127e-02
135 1 1.808e+00 3.567e+00 2.812e+00 -7.476e-01 1.180e-01 2.332e-02
136 1 1.808e+00 -3.557e+00 2.814e+00 -5.808e-01 -4.898e-02 2.615e-02
137 1 3.562e+00 -1.802e+00 2.813e+00 -5.799e-01 -3.958e-02 2.936e-03
138 1 -1.810e+00 -3.556e+00 2.813e+00 -5.921e-01 -3.557e-02 4.090e-02
139 1 3.561e+00 1.814e+00 2.812e+00 -6.466e-01 2.730e-02 -1.869e-03
140 1 1.766e+00 6.212e-03 -4.223e+00 -4.629e-01 2.776e-02 4.480e-03
141 1 -2.400e-03 -1.762e+00 -4.223e+00 -4.562e-01 2.163e-02 3.271e-02
142 1 -7.174e-06 1.768e+00 -4.223e+00 -4.627e-01 7.090e-02 1.438e-02
143 1 -1.767e+00 5.479e-03 -4.222e+00 -4.344e-01 6.330e-02 3.974e-02
144 1 3.614e+00 4.077e-03 -2.566e+00 -4.913e-01 -2.410e-04 -1.147e-02
145 1 -2.010e-03 -3.610e+00 -2.564e+00 -5.015e-01 -2.533e-02 4.551e-02
146 1 -3.097e-04 3.619e+00 -2.563e+00 -5.052e-01 1.020e-01 8.006e-03
147 1 -3.614e+00 5.562e-03 -2.563e+00 -4.472e-01 4.591e-02 4.254e-02
148 1 -2.020e-03 8.971e-03 2.103e+00 -6.635e-01 -1.343e-03 2.318e-02
149 1 2.270e-03 6.694e-04 1.204e-03 -6.173e-01 3.327e-02 -6.074e-03
150 1 1.807e+00 -3.558e+00 -7.170e-01 -5.699e-01 -4.779e-02 2.568e-02
151 1 3.560e+00 -1.805e+00 -7.162e-01 -5.524e-01 -2.413e-02 -1.100e-02
152 1 -1.808e+00 -3.558e+00 -7.157e-01 -6.027e-01 -3.298e-02 5.584e-02
153 1 3.561e+00 1.811e+00 -7.146e-01 -5.974e-01 3.616e-02 -2.067e-02
154 1 -3.563e+00 1.811e+00 -7.155e-01 -5.053e-01 5.288e-02 2.286e-02
155 1 -1.808e+00 3.565e+00 -7.157e-01 -5.606e-01 1.197e-01 1.892e-02
156 1 -3.562e+00 -1.804e+00 -7.136e-01 -5.694e-01 9.516e-03 3.786e-02
157 1 1.805e+00 3.567e+00 -7.138e-01 -6.399e-01 1.126e-01 -3.691e-03
158 1 -1.262e-03 -2.030e+00 -8.648e-01 -6.297e-01 -2.531e-03 1.572e-02
159 1 2.031e+00 7.952e-03 -8.647e-01 -6.295e-01 2.579e-02 -1.897e-02
160 1 -2.033e+00 5.607e-03 -8.629e-01 -5.970e-01 4.642e-02 1.443e-02
161 1 -1.436e-03 2.035e+00 -8.637e-01 -6.367e-01 9.776e-02 -2.509e-03
162 1 -2.036e+00 5.699e-03 2.960e+00 -6.942e-01 -6.446e-03 3.950e-02
163 1 8.279e-04 2.042e+00 2.962e+00 -7.927e-01 4.815e-02 4.972e-02
164 1 -2.376e-03 -2.026e+00 2.959e+00 -6.786e-01 -3.800e-02 3.640e-02
165 1 2.030e+00 3.237e-03 2.961e+00 -7.223e-01 -1.230e-02 2.039e-02
166 1 -2.309e-04 3.556e+00 1.048e+00 -7.738e-01 1.567e-01 2.226e-02
167 1 -3.550e+00 6.165e-03 1.049e+00 -6.317e-01 1.805e-02 1.668e-02
168 1 3.548e+00 4.000e-03 1.048e+00 -6.600e-01 -1.109e-02 -1.816e-02
169 1 -8.795e-04 -3.546e+00 1.048e+00 -6.776e-01 -6.182e-02 4.765e-02
170 1 1.791e+00 -1.788e+00 -2.504e+00 -5.423e-01 -5.319e-03 7.182e-03
171 1 -1.793e+00 -1.788e+00 -2.505e+00 -5.556e-01 1.738e-02 5.453e-02
172 1 1.790e+00 1.795e+00 -2.503e+00 -5.901e-01 5.214e-02 -6.084e-03
173 1 -1.791e+00 1.796e+00 -2.504e+00 -5.083e-01 1.002e-01 2.373e-02
174 1 -1.083e-03 3.419e-03 -2.443e+00 -5.864e-01 5.367e-02 7.890e-03
175 1 1.673e+00 -1.670e+00 1.051e+00 -6.971e-01 -2.886e-02 6.389e-03
176 1 -1.674e+00 1.680e+00 1.050e+00 -7.010e-01 6.266e-02 2.376e-02
177 1 1.670e+00 1.678e+00 1.049e+00 -7.651e-01 7.236e-02 -3.067e-03
178 1 -1.677e+00 -1.670e+00 1.050e+00 -7.041e-01 -8.481e-03 2.829e-02
ITEM: TIMESTEP
0
ITEM: NUMBER OF ATOMS
89
ITEM: BOX BOUNDS xy xz yz pp pp pp
                     0.00000000000000e+00 1.06200000000000e+01 0.00000000000000e+00
0.00000000000000e+00	1.06200000000000e+01	0.00000000000000e+00
0.00000000000000e+00	1.06200000000000e+01	0.00000000000000e+00
ITEM: ATOMS id type x y z DisplacementX DisplacementY DisplacementZ
179 1 -1.134e-03 3.947e-03 -5.984e+00 -3.952e-01 -7.560e-02 1.136e-02
180 1 3.539e+00 -3.537e+00 -2.490e+00 -5.525e-01 -1.448e-01 -1.493e-02
181 1 -3.541e+00 3.544e+00 -2.490e+00 -3.720e-01 -1.900e-02 3.527e-02
182 1 -3.542e+00 -3.536e+00 -2.492e+00 -5.231e-01 -6.870e-02 1.609e-02
183 1 3.541e+00 3.547e+00 -2.490e+00 -2.156e-01 -4.772e-02 -1.221e-02
184 1 1.772e+00 -3.535e+00 -4.257e+00 -5.565e-01 -1.523e-01 -6.969e-03
185 1 3.537e+00 -1.770e+00 -4.258e+00 -4.729e-01 -1.446e-01 -1.862e-02
186 1 -1.779e+00 -3.534e+00 -4.256e+00 -5.599e-01 -9.186e-02 1.592e-02
187 1 3.537e+00 1.778e+00 -4.257e+00 -2.345e-01 -7.827e-02 -1.116e-02
188 1 -3.541e+00 1.781e+00 -4.256e+00 -3.960e-01 -2.942e-02 3.482e-02
189 1 -1.776e+00 3.544e+00 -4.257e+00 -3.704e-01 -3.418e-02 3.448e-02
190 1 -3.542e+00 -1.771e+00 -4.256e+00 -4.945e-01 -6.287e-02 1.880e-02
191 1 1.775e+00 3.544e+00 -4.257e+00 -2.271e-01 -6.178e-02 3.027e-03
192 1 2.736e-06 3.620e+00 4.664e+00 -5.746e-01 -1.778e-03 4.024e-02
193 1 -3.615e+00 5.726e-03 4.660e+00 -4.377e-01 -7.937e-03 3.292e-02
194 1 3.612e+00 5.304e-03 4.661e+00 -5.088e-01 -4.047e-02 -2.839e-02
195 1 -1.033e-03 -3.609e+00 4.661e+00 -5.479e-01 -6.952e-02 2.018e-03
196 1 5.295e+00 -1.762e+00 1.046e+00 -5.039e-01 -6.184e-02 -3.745e-02
197 1 1.767e+00 -5.293e+00 1.047e+00 -7.116e-01 -1.347e-01 1.323e-02
198 1 1.765e+00 5.304e+00 1.047e+00 -4.721e-01 9.557e-03 1.118e-02
199 1 -5.300e+00 -1.762e+00 1.047e+00 -3.812e-01 -1.063e-02 6.564e-03
200 1 -1.768e+00 5.304e+00 1.049e+00 -4.795e-01 -1.119e-02 4.910e-02
201 1 -5.301e+00 1.773e+00 1.048e+00 -3.565e-01 -3.529e-03 1.523e-02
202 1 5.295e+00 1.773e+00 1.047e+00 -4.058e-01 -1.173e-02 -5.461e-02
203 1 -1.768e+00 -5.291e+00 1.046e+00 -6.476e-01 -1.162e-01 2.470e-02
204 1 8.855e-04 -5.271e+00 -7.238e-01 -7.237e-01 -1.408e-01 2.377e-02
205 1 5.273e+00 4.366e-03 -7.233e-01 -4.156e-01 -4.558e-02 -4.804e-02
206 1 -5.279e+00 3.732e-03 -7.233e-01 -3.496e-01 -5.701e-03 3.007e-03
207 1 -9.134e-04 5.281e+00 -7.237e-01 -4.228e-01 -7.580e-03 2.813e-02
208 1 -5.278e+00 4.996e-03 2.818e+00 -3.816e-01 -5.411e-03 1.684e-02
209 1 -2.171e-03 5.281e+00 2.819e+00 -5.482e-01 2.211e-03 4.212e-02
210 1 -6.167e-04 -5.272e+00 2.820e+00 -6.437e-01 -1.188e-01 1.703e-02
211 1 5.273e+00 6.149e-03 2.820e+00 -4.719e-01 -4.007e-02 -4.597e-02
212 1 -1.794e+00 1.798e+00 4.602e+00 -5.439e-01 -1.048e-02 4.846e-02
213 1 1.790e+00 -1.786e+00 4.601e+00 -5.651e-01 -6.053e-02 -1.198e-02
214 1 1.790e+00 1.796e+00 4.600e+00 -5.718e-01 -1.516e-02 2.705e-03
215 1 -1.794e+00 -1.787e+00 4.600e+00 -5.040e-01 -3.064e-02 1.909e-02
216 1 3.519e+00 -3.515e+00 1.048e+00 -6.690e-01 -9.816e-02 -1.685e-02
217 1 -3.524e+00 3.526e+00 1.046e+00 -4.486e-01 -4.492e-03 3.576e-02
218 1 3.520e+00 3.525e+00 1.048e+00 -4.550e-01 1.539e-02 -3.567e-02
219 1 -3.521e+00 -3.514e+00 1.047e+00 -5.358e-01 -5.072e-02 1.299e-02
220 1 -7.423e-04 6.334e-03 4.541e+00 -5.923e-01 -3.080e-02 1.344e-02
221 1 -3.565e+00 1.814e+00 2.813e+00 -5.099e-01 -5.977e-03 3.741e-02
222 1 -1.809e+00 3.568e+00 2.811e+00 -6.089e-01 -7.300e-03 5.629e-02
223 1 -3.564e+00 -1.804e+00 2.813e+00 -5.117e-01 -1.764e-02 1.617e-02
224 1 1.808e+00 3.569e+00 2.812e+00 -6.204e-01 9.218e-03 6.531e-03
225 1 1.806e+00 -3.560e+00 2.811e+00 -7.326e-01 -1.035e-01 -7.573e-03
226 1 3.561e+00 -1.802e+00 2.814e+00 -6.394e-01 -7.240e-02 -3.549e-02
227 1 -1.810e+00 -3.557e+00 2.814e+00 -6.464e-01 -7.647e-02 1.368e-02
228 1 3.561e+00 1.815e+00 2.813e+00 -5.645e-01 -1.260e-02 -4.403e-02
229 1 1.763e+00 4.182e-03 -4.223e+00 -4.959e-01 -1.170e-01 -1.262e-02
230 1 2.875e-04 -1.759e+00 -4.223e+00 -6.589e-01 -1.263e-01 3.345e-03
231 1 -2.183e-03 1.770e+00 -4.220e+00 -4.565e-01 -6.748e-02 1.379e-02
232 1 -1.766e+00 3.117e-03 -4.221e+00 -5.631e-01 -6.454e-02 2.056e-02
233 1 3.612e+00 4.822e-03 -2.563e+00 -4.660e-01 -9.777e-02 -3.606e-02
234 1 -1.760e-03 -3.611e+00 -2.566e+00 -7.743e-01 -1.455e-01 5.790e-03
235 1 -3.848e-04 3.617e+00 -2.564e+00 -4.240e-01 -3.317e-02 1.641e-02
236 1 -3.615e+00 4.531e-03 -2.564e+00 -5.063e-01 -2.599e-02 1.571e-02
237 1 -2.837e-03 9.658e-03 2.103e+00 -5.868e-01 -2.154e-02 -9.583e-03
238 1 3.388e-04 1.435e-05 -3.619e-04 -5.623e-01 -9.396e-03 -3.569e-02
239 1 1.806e+00 -3.558e+00 -7.161e-01 -8.310e-01 -1.450e-01 -5.699e-03
240 1 3.561e+00 -1.802e+00 -7.159e-01 -6.619e-01 -1.028e-01 -3.926e-02
241 1 -1.808e+00 -3.558e+00 -7.161e-01 -7.591e-01 -1.030e-01 1.576e-02
242 1 3.563e+00 1.813e+00 -7.171e-01 -4.404e-01 -2.856e-02 -4.977e-02
243 1 -3.562e+00 1.811e+00 -7.164e-01 -4.682e-01 -2.697e-03 1.673e-02
244 1 -1.808e+00 3.565e+00 -7.154e-01 -5.117e-01 -8.203e-03 3.443e-02
245 1 -3.564e+00 -1.804e+00 -7.173e-01 -5.623e-01 -3.188e-02 3.678e-03
246 1 1.805e+00 3.566e+00 -7.163e-01 -4.547e-01 -9.413e-03 -9.375e-03
247 1 -3.248e-03 -2.030e+00 -8.647e-01 -7.533e-01 -7.417e-02 -2.171e-02
248 1 2.032e+00 6.350e-03 -8.659e-01 -5.992e-01 -4.814e-02 -4.928e-02
249 1 -2.032e+00 4.814e-03 -8.630e-01 -5.748e-01 -6.998e-03 -1.263e-02
250 1 9.255e-05 2.034e+00 -8.622e-01 -5.330e-01 -6.346e-03 -1.247e-02
251 1 -2.035e+00 2.498e-03 2.961e+00 -6.159e-01 -1.334e-02 2.431e-02
252 1 -2.213e-03 2.041e+00 2.963e+00 -6.894e-01 -1.106e-02 2.608e-02
253 1 -2.930e-03 -2.024e+00 2.962e+00 -7.093e-01 -6.013e-02 -2.782e-03
254 1 2.033e+00 3.291e-03 2.959e+00 -6.826e-01 -4.318e-02 -2.657e-02
255 1 -1.075e-03 3.555e+00 1.047e+00 -6.367e-01 3.292e-04 2.819e-02
256 1 -3.551e+00 5.392e-03 1.048e+00 -5.183e-01 -1.148e-03 6.923e-03
257 1 3.549e+00 5.126e-03 1.048e+00 -6.218e-01 -4.767e-02 -6.013e-02
258 1 7.306e-05 -3.547e+00 1.047e+00 -8.739e-01 -1.333e-01 6.794e-03
259 1 1.791e+00 -1.787e+00 -2.505e+00 -7.433e-01 -1.537e-01 -2.518e-02
260 1 -1.794e+00 -1.786e+00 -2.503e+00 -7.322e-01 -8.249e-02 7.378e-03
261 1 1.791e+00 1.795e+00 -2.506e+00 -4.315e-01 -6.584e-02 -2.100e-02
262 1 -1.795e+00 1.796e+00 -2.502e+00 -5.466e-01 -2.684e-02 2.274e-02
263 1 -2.208e-03 2.501e-03 -2.442e+00 -6.319e-01 -6.076e-02 -1.681e-02
264 1 1.673e+00 -1.668e+00 1.048e+00 -7.753e-01 -7.757e-02 -3.189e-02
265 1 -1.675e+00 1.679e+00 1.049e+00 -5.935e-01 5.430e-04 1.878e-02
266 1 1.671e+00 1.679e+00 1.050e+00 -6.131e-01 -3.907e-03 -3.362e-02
267 1 -1.675e+00 -1.670e+00 1.049e+00 -6.799e-01 -3.591e-02 -2.686e-03
ITEM: TIMESTEP
0
ITEM: NUMBER OF ATOMS
89
ITEM: BOX BOUNDS xy xz yz pp pp pp
                     0.00000000000000e+00 1.06200000000000e+01 0.00000000000000e+00
0.00000000000000e+00	1.06200000000000e+01	0.00000000000000e+00
0.00000000000000e+00	1.06200000000000e+01	0.00000000000000e+00
ITEM: ATOMS id type x y z DisplacementX DisplacementY DisplacementZ
268 1 -7.252e-04 3.571e-03 -5.984e+00 -4.523e-01 -7.170e-02 3.337e-02
269 1 3.540e+00 -3.535e+00 -2.491e+00 -6.580e-01 -1.710e-01 -7.546e-04
270 1 -3.542e+00 3.544e+00 -2.491e+00 -5.095e-01 1.535e-02 7.772e-02
271 1 -3.543e+00 -3.536e+00 -2.491e+00 -6.171e-01 -7.675e-02 5.397e-02
272 1 3.540e+00 3.546e+00 -2.490e+00 -4.434e-01 -3.816e-02 -2.130e-02
273 1 1.774e+00 -3.536e+00 -4.257e+00 -6.651e-01 -1.675e-01 1.357e-02
274 1 3.538e+00 -1.771e+00 -4.258e+00 -6.045e-01 -1.569e-01 1.766e-03
275 1 -1.778e+00 -3.534e+00 -4.259e+00 -6.251e-01 -1.003e-01 5.021e-02
276 1 3.537e+00 1.781e+00 -4.258e+00 -4.279e-01 -7.126e-02 -1.200e-02
277 1 -3.540e+00 1.780e+00 -4.256e+00 -5.121e-01 1.433e-03 7.307e-02
278 1 -1.776e+00 3.544e+00 -4.256e+00 -4.935e-01 -6.896e-03 6.698e-02
279 1 -3.541e+00 -1.770e+00 -4.256e+00 -5.767e-01 -5.925e-02 6.074e-02
280 1 1.774e+00 3.545e+00 -4.257e+00 -4.214e-01 -4.913e-02 4.250e-03
281 1 -1.321e-03 3.622e+00 4.662e+00 -6.142e-01 2.812e-02 2.383e-02
282 1 -3.615e+00 6.352e-03 4.661e+00 -5.546e-01 -1.019e-02 5.331e-02
283 1 3.612e+00 5.771e-03 4.662e+00 -5.255e-01 -7.551e-02 -4.987e-02
284 1 -1.124e-03 -3.609e+00 4.659e+00 -5.633e-01 -9.256e-02 -5.645e-03
285 1 5.298e+00 -1.762e+00 1.051e+00 -5.215e-01 -1.398e-01 -4.473e-02
286 1 1.768e+00 -5.292e+00 1.049e+00 -6.730e-01 -1.835e-01 -8.307e-03
287 1 1.767e+00 5.302e+00 1.047e+00 -6.660e-01 4.176e-02 -3.328e-03
288 1 -5.299e+00 -1.763e+00 1.047e+00 -5.919e-01 -1.810e-02 5.158e-02
289 1 -1.769e+00 5.302e+00 1.046e+00 -6.242e-01 4.614e-02 6.774e-02
290 1 -5.302e+00 1.772e+00 1.048e+00 -5.257e-01 7.454e-03 6.592e-02
291 1 5.298e+00 1.771e+00 1.047e+00 -5.313e-01 -8.221e-02 -5.785e-02
292 1 -1.767e+00 -5.294e+00 1.047e+00 -7.146e-01 -1.445e-01 2.024e-02
293 1 -2.722e-03 -5.269e+00 -7.246e-01 -7.440e-01 -1.784e-01 1.032e-02
294 1 5.274e+00 7.162e-03 -7.237e-01 -5.200e-01 -1.105e-01 -4.417e-02
295 1 -5.277e+00 5.305e-03 -7.246e-01 -5.498e-01 1.117e-03 5.801e-02
296 1 -3.530e-03 5.282e+00 -7.239e-01 -6.308e-01 3.730e-02 3.700e-02
297 1 -5.278e+00 4.531e-03 2.820e+00 -5.538e-01 -8.724e-03 5.845e-02
298 1 -6.363e-04 5.283e+00 2.820e+00 -6.569e-01 5.025e-02 3.332e-02
299 1 -5.018e-04 -5.272e+00 2.818e+00 -6.446e-01 -1.539e-01 1.110e-03
300 1 5.275e+00 4.877e-03 2.820e+00 -5.118e-01 -1.077e-01 -5.712e-02
301 1 -1.794e+00 1.797e+00 4.602e+00 -6.110e-01 1.056e-02 4.899e-02
302 1 1.793e+00 -1.786e+00 4.600e+00 -5.648e-01 -7.973e-02 -3.175e-02
303 1 1.793e+00 1.797e+00 4.600e+00 -6.215e-01 -1.264e-02 -2.434e-02
304 1 -1.795e+00 -1.787e+00 4.600e+00 -6.063e-01 -3.934e-02 2.370e-02
305 1 3.520e+00 -3.516e+00 1.048e+00 -6.395e-01 -1.617e-01 -3.204e-02
306 1 -3.522e+00 3.525e+00 1.045e+00 -5.938e-01 3.009e-02 8.177e-02
307 1 3.520e+00 3.524e+00 1.046e+00 -6.483e-01 -6.866e-03 -4.684e-02
308 1 -3.524e+00 -3.516e+00 1.048e+00 -7.102e-01 -7.145e-02 4.005e-02
309 1 -6.164e-04 6.836e-03 4.541e+00 -6.673e-01 -1.717e-02 -2.132e-04
310 1 -3.564e+00 1.813e+00 2.811e+00 -6.553e-01 9.762e-03 7.558e-02
311 1 -1.809e+00 3.568e+00 2.810e+00 -7.121e-01 4.174e-02 6.827e-02
312 1 -3.564e+00 -1.805e+00 2.813e+00 -7.103e-01 -3.050e-02 5.043e-02
313 1 1.808e+00 3.570e+00 2.811e+00 -7.572e-01 2.664e-02 -1.559e-02
314 1 1.806e+00 -3.557e+00 2.815e+00 -7.005e-01 -1.512e-01 -2.562e-02
315 1 3.562e+00 -1.802e+00 2.811e+00 -6.277e-01 -1.330e-01 -5.293e-02
316 1 -1.808e+00 -3.557e+00 2.811e+00 -7.550e-01 -1.040e-01 2.051e-02
317 1 3.562e+00 1.811e+00 2.813e+00 -6.720e-01 -5.796e-02 -6.039e-02
318 1 1.765e+00 5.279e-03 -4.222e+00 -6.521e-01 -1.186e-01 1.047e-02
319 1 -1.056e-03 -1.761e+00 -4.223e+00 -7.532e-01 -1.360e-01 3.565e-02
320 1 -1.890e-04 1.770e+00 -4.221e+00 -6.050e-01 -5.540e-02 4.064e-02
321 1 -1.766e+00 6.033e-03 -4.220e+00 -6.745e-01 -5.066e-02 6.590e-02
322 1 3.612e+00 4.799e-03 -2.565e+00 -6.495e-01 -1.265e-01 -2.306e-02
323 1 -1.603e-03 -3.612e+00 -2.564e+00 -8.537e-01 -1.741e-01 2.430e-02
324 1 -4.147e-04 3.616e+00 -2.564e+00 -6.423e-01 -5.564e-03 3.898e-02
325 1 -3.613e+00 4.820e-03 -2.565e+00 -6.790e-01 -1.070e-02 7.456e-02
326 1 -2.827e-03 7.365e-03 2.104e+00 -7.270e-01 -9.078e-03 -6.902e-03
327 1 -3.606e-04 1.096e-03 1.095e-03 -7.352e-01 -1.209e-02 -7.864e-03
328 1 1.807e+00 -3.560e+00 -7.164e-01 -8.723e-01 -1.998e-01 -9.976e-03
329 1 3.562e+00 -1.804e+00 -7.158e-01 -7.470e-01 -1.681e-01 -3.403e-02
330 1 -1.810e+00 -3.557e+00 -7.156e-01 -8.836e-01 -1.321e-01 3.609e-02
331 1 3.562e+00 1.812e+00 -7.157e-01 -6.684e-01 -6.412e-02 -5.036e-02
332 1 -3.564e+00 1.813e+00 -7.164e-01 -6.789e-01 2.228e-02 8.277e-02
333 1 -1.807e+00 3.567e+00 -7.142e-01 -7.213e-01 3.754e-02 7.847e-02
334 1 -3.563e+00 -1.801e+00 -7.163e-01 -7.774e-01 -4.064e-02 5.927e-02
335 1 1.806e+00 3.567e+00 -7.153e-01 -7.304e-01 8.373e-03 -1.232e-02
336 1 -1.397e-03 -2.030e+00 -8.661e-01 -8.866e-01 -1.067e-01 4.340e-03
337 1 2.033e+00 5.651e-03 -8.633e-01 -7.779e-01 -7.716e-02 -3.159e-02
338 1 -2.032e+00 3.857e-03 -8.646e-01 -7.870e-01 -3.415e-03 4.359e-02
339 1 -4.498e-04 2.032e+00 -8.638e-01 -7.678e-01 1.295e-02 1.771e-02
340 1 -2.037e+00 5.420e-03 2.961e+00 -7.737e-01 -3.219e-03 4.249e-02
341 1 -1.238e-03 2.042e+00 2.962e+00 -8.040e-01 1.994e-02 1.540e-02
342 1 -2.093e-03 -2.026e+00 2.961e+00 -7.896e-01 -7.474e-02 -8.989e-03
343 1 2.034e+00 4.186e-03 2.963e+00 -7.568e-01 -5.692e-02 -4.547e-02
344 1 -1.206e-04 3.555e+00 1.050e+00 -8.520e-01 5.457e-02 3.494e-02
345 1 -3.550e+00 3.986e-03 1.049e+00 -7.637e-01 1.447e-03 6.720e-02
346 1 3.548e+00 5.126e-03 1.049e+00 -7.285e-01 -1.223e-01 -6.324e-02
347 1 -8.201e-04 -3.546e+00 1.048e+00 -9.204e-01 -1.771e-01 -4.943e-04
348 1 1.791e+00 -1.788e+00 -2.504e+00 -8.873e-01 -1.862e-01 4.663e-04
349 1 -1.792e+00 -1.788e+00 -2.504e+00 -8.697e-01 -9.358e-02 5.860e-02
350 1 1.789e+00 1.796e+00 -2.504e+00 -6.833e-01 -6.302e-02 -9.410e-03
351 1 -1.793e+00 1.796e+00 -2.504e+00 -7.384e-01 1.877e-03 7.882e-02
352 1 -1.620e-03 2.681e-03 -2.443e+00 -8.080e-01 -6.370e-02 2.295e-02
353 1 1.674e+00 -1.670e+00 1.051e+00 -8.401e-01 -1.239e-01 -3.578e-02
354 1 -1.674e+00 1.679e+00 1.047e+00 -8.007e-01 3.641e-02 5.728e-02
355 1 1.671e+00 1.681e+00 1.049e+00 -8.223e-01 -6.281e-03 -3.952e-02
356 1 -1.675e+00 -1.669e+00 1.048e+00 -8.827e-01 -5.008e-02 2.734e-02
ITEM: TIMESTEP
0
ITEM: NUMBER OF ATOMS
89
ITEM: BOX BOUNDS xy xz yz pp pp pp
                     0.00000000000000e+00 1.06200000000000e+01 0.00000000000000e+00
0.00000000000000e+00	1.06200000000000e+01	0.00000000000000e+00
0.00000000000000e+00	1.06200000000000e+01	0.00000000000000e+00
ITEM: ATOMS id type x y z DisplacementX DisplacementY DisplacementZ
357 1 -1.859e-03 3.202e-03 -5.984e+00 -4.017e-01 -1.527e-01 -5.605e-03
358 1 3.540e+00 -3.535e+00 -2.492e+00 -4.665e-01 -1.383e-01 8.512e-03
359 1 -3.543e+00 3.546e+00 -2.490e+00 -5.193e-01 -1.496e-01 5.187e-02
360 1 -3.543e+00 -3.538e+00 -2.492e+00 -5.113e-01 -7.906e-02 5.259e-02
361 1 3.538e+00 3.546e+00 -2.492e+00 -4.841e-01 -1.144e-01 -8.272e-04
362 1 1.773e+00 -3.536e+00 -4.258e+00 -4.496e-01 -1.383e-01 1.186e-02
363 1 3.536e+00 -1.770e+00 -4.258e+00 -4.259e-01 -1.441e-01 -1.462e-03
364 1 -1.776e+00 -3.533e+00 -4.256e+00 -4.878e-01 -8.691e-02 3.940e-02
365 1 3.537e+00 1.780e+00 -4.258e+00 -4.406e-01 -1.504e-01 -7.098e-03
366 1 -3.541e+00 1.779e+00 -4.255e+00 -5.008e-01 -1.643e-01 3.982e-02
367 1 -1.776e+00 3.544e+00 -4.256e+00 -5.048e-01 -1.792e-01 3.628e-02
368 1 -3.543e+00 -1.772e+00 -4.256e+00 -4.825e-01 -8.776e-02 4.159e-02
369 1 1.774e+00 3.543e+00 -4.256e+00 -4.630e-01 -1.603e-01 4.873e-03
370 1 4.199e-05 3.620e+00 4.661e+00 -7.199e-01 9.734e-02 5.814e-02
371 1 -3.616e+00 5.519e-03 4.660e+00 -5.800e-01 -3.569e-02 8.908e-02
372 1 3.613e+00 6.140e-03 4.660e+00 -5.170e-01 -1.212e-02 -1.532e-02
373 1 -1.945e-03 -3.607e+00 4.661e+00 -4.936e-01 -9.198e-02 -5.881e-03
374 1 5.298e+00 -1.762e+00 1.048e+00 -5.002e-01 -9.056e-02 -2.458e-03
375 1 1.765e+00 -5.293e+00 1.048e+00 -5.923e-01 -1.602e-01 1.785e-02
376 1 1.764e+00 5.302e+00 1.046e+00 -7.346e-01 7.741e-02 1.747e-02
377 1 -5.300e+00 -1.763e+00 1.048e+00 -5.661e-01 -1.104e-01 8.198e-02
378 1 -1.769e+00 5.303e+00 1.048e+00 -7.019e-01 3.682e-02 6.448e-02
379 1 -5.300e+00 1.773e+00 1.048e+00 -5.746e-01 -8.785e-02 8.897e-02
380 1 5.298e+00 1.774e+00 1.049e+00 -5.536e-01 -2.497e-02 -6.871e-03
381 1 -1.769e+00 -5.293e+00 1.048e+00 -5.973e-01 -1.543e-01 4.729e-02
382 1 -1.493e-03 -5.271e+00 -7.234e-01 -6.245e-01 -1.604e-01 4.360e-02
383 1 5.274e+00 5.329e-03 -7.236e-01 -5.119e-01 -8.070e-02 -1.394e-03
384 1 -5.279e+00 5.152e-03 -7.235e-01 -5.548e-01 -1.117e-01 7.343e-02
385 1 -9.060e-04 5.280e+00 -7.255e-01 -6.791e-01 3.151e-03 3.800e-02
386 1 -5.277e+00 5.775e-03 2.820e+00 -5.744e-01 -8.148e-02 9.528e-02
387 1 -2.786e-03 5.280e+00 2.819e+00 -7.644e-01 1.112e-01 4.825e-02
388 1 -1.148e-03 -5.272e+00 2.821e+00 -5.477e-01 -1.482e-01 1.339e-02
389 1 5.276e+00 4.002e-03 2.819e+00 -5.077e-01 -3.795e-02 -9.914e-03
390 1 -1.794e+00 1.797e+00 4.600e+00 -6.875e-01 3.040e-02 8.672e-02
391 1 1.791e+00 -1.784e+00 4.602e+00 -5.242e-01 -5.749e-02 -1.888e-02
392 1 1.790e+00 1.798e+00 4.602e+00 -6.679e-01 5.471e-02 1.767e-02
393 1 -1.793e+00 -1.788e+00 4.600e+00 -5.687e-01 -5.730e-02 3.990e-02
394 1 3.518e+00 -3.516e+00 1.049e+00 -5.887e-01 -1.301e-01 -3.487e-03
395 1 -3.523e+00 3.525e+00 1.046e+00 -6.712e-01 -3.177e-02 8.797e-02
396 1 3.518e+00 3.527e+00 1.045e+00 -7.054e-01 4.016e-02 -6.830e-03
397 1 -3.522e+00 -3.514e+00 1.047e+00 -6.232e-01 -1.275e-01 6.573e-02
398 1 -2.605e-03 6.652e-03 4.541e+00 -6.803e-01 -7.753e-03 2.768e-02
399 1 -3.564e+00 1.812e+00 2.812e+00 -7.317e-01 -3.730e-02 1.095e-01
400 1 -1.809e+00 3.571e+00 2.813e+00 -8.318e-01 6.148e-02 9.038e-02
401 1 -3.562e+00 -1.803e+00 2.813e+00 -6.792e-01 -9.585e-02 8.200e-02
402 1 1.808e+00 3.568e+00 2.811e+00 -8.568e-01 1.068e-01 2.053e-02
403 1 1.805e+00 -3.555e+00 2.813e+00 -6.373e-01 -1.340e-01 -1.402e-02
404 1 3.561e+00 -1.802e+00 2.812e+00 -6.022e-01 -8.345e-02 -1.983e-02
405 1 -1.808e+00 -3.559e+00 2.812e+00 -6.590e-01 -1.317e-01 3.486e-02
406 1 3.560e+00 1.814e+00 2.812e+00 -7.081e-01 2.282e-02 -1.098e-02
407 1 1.765e+00 4.015e-03 -4.221e+00 -5.739e-01 -1.901e-01 -1.222e-02