ITEM: TIMESTEP
0
ITEM: NUMBER OF ATOMS
89
ITEM: BOX BOUNDS xy xz yz pp pp pp
                     0.00000000000000e+00 1.06200000000000e+01 0.00000000000000e+00
0.00000000000000e+00	1.06200000000000e+01	0.00000000000000e+00
0.00000000000000e+00	1.06200000000000e+01	0.00000000000000e+00
ITEM: ATOMS id type x y z DisplacementX DisplacementY DisplacementZ
1 1 -1.099e-03 4.987e-03 -5.984e+00 -4.398e-01 -8.140e-02 9.576e-03
2 1 3.540e+00 -3.537e+00 -2.492e+00 -4.581e-01 -1.511e-01 -4.878e-02
3 1 -3.541e+00 3.547e+00 -2.491e+00 -4.115e-01 -8.688e-02 1.819e-02
4 1 -3.543e+00 -3.535e+00 -2.490e+00 -4.667e-01 -1.139e-01 1.069e-02
5 1 3.540e+00 3.547e+00 -2.493e+00 -5.426e-01 -6.850e-02 -1.594e-02
6 1 1.775e+00 -3.535e+00 -4.256e+00 -4.720e-01 -1.613e-01 -4.258e-02
7 1 3.538e+00 -1.770e+00 -4.257e+00 -4.649e-01 -1.425e-01 -4.887e-02
8 1 -1.777e+00 -3.533e+00 -4.256e+00 -4.720e-01 -1.339e-01 6.176e-04
9 1 3.537e+00 1.781e+00 -4.257e+00 -5.150e-01 -8.069e-02 -1.282e-02
10 1 -3.540e+00 1.779e+00 -4.256e+00 -4.241e-01 -9.102e-02 1.556e-02
11 1 -1.776e+00 3.543e+00 -4.255e+00 -4.412e-01 -9.715e-02 2.268e-02
12 1 -3.542e+00 -1.771e+00 -4.257e+00 -4.516e-01 -1.092e-01 8.414e-03
13 1 1.774e+00 3.544e+00 -4.257e+00 -5.187e-01 -8.096e-02 8.391e-03
14 1 -1.486e-03 3.620e+00 4.661e+00 -6.049e-01 2.810e-02 1.022e-02
15 1 -3.616e+00 5.599e-03 4.661e+00 -4.449e-01 1.327e-02 4.206e-03
16 1 3.613e+00 6.204e-03 4.662e+00 -3.877e-01 -1.123e-02 -4.690e-02
17 1 -1.068e-03 -3.609e+00 4.662e+00 -4.043e-01 -2.493e-02 5.127e-05
18 1 5.298e+00 -1.763e+00 1.046e+00 -4.245e-01 -7.511e-02 -5.012e-02
19 1 1.766e+00 -5.293e+00 1.046e+00 -5.103e-01 -1.254e-01 1.474e-02
20 1 1.767e+00 5.302e+00 1.047e+00 -6.833e-01 -4.802e-02 3.943e-03
21 1 -5.300e+00 -1.763e+00 1.047e+00 -4.513e-01 -3.112e-02 8.873e-03
22 1 -1.769e+00 5.303e+00 1.047e+00 -6.027e-01 -5.200e-02 3.621e-02
23 1 -5.299e+00 1.773e+00 1.049e+00 -4.246e-01 -3.524e-02 8.833e-03
24 1 5.297e+00 1.774e+00 1.048e+00 -5.285e-01 -5.300e-02 -6.340e-02
25 1 -1.770e+00 -5.293e+00 1.047e+00 -5.637e-01 -1.184e-01 3.583e-02
26 1 3.378e-04 -5.271e+00 -7.259e-01 -5.721e-01 -1.568e-01 2.385e-02
27 1 5.275e+00 4.614e-03 -7.259e-01 -4.946e-01 -7.497e-02 -6.058e-02
28 1 -5.277e+00 3.490e-03 -7.239e-01 -4.199e-01 -4.274e-02 6.632e-03
29 1 -1.893e-03 5.281e+00 -7.232e-01 -6.088e-01 -8.079e-02 2.738e-02
30 1 -5.276e+00 5.804e-03 2.820e+00 -4.410e-01 -1.523e-02 3.009e-03
31 1 -1.195e-03 5.282e+00 2.817e+00 -6.822e-01 -1.604e-02 2.362e-02
32 1 -4.224e-03 -5.271e+00 2.821e+00 -5.072e-01 -9.016e-02 2.470e-02
33 1 5.274e+00 5.653e-03 2.821e+00 -4.280e-01 -5.237e-02 -5.804e-02
34 1 -1.795e+00 1.796e+00 4.600e+00 -5.289e-01 3.043e-02 9.337e-03
35 1 1.790e+00 -1.787e+00 4.601e+00 -3.761e-01 -4.867e-03 -2.974e-02
36 1 1.791e+00 1.795e+00 4.600e+00 -5.253e-01 2.722e-02 -2.509e-02
37 1 -1.792e+00 -1.786e+00 4.600e+00 -4.419e-01 1.223e-02 -1.351e-03
38 1 3.521e+00 -3.514e+00 1.049e+00 -4.654e-01 -9.512e-02 -2.718e-02
39 1 -3.521e+00 3.525e+00 1.046e+00 -5.151e-01 -3.995e-02 2.051e-02
40 1 3.520e+00 3.526e+00 1.048e+00 -6.566e-01 -4.032e-02 -4.380e-02
41 1 -3.522e+00 -3.514e+00 1.049e+00 -5.428e-01 -6.370e-02 1.804e-02
42 1 -1.426e-03 7.374e-03 4.541e+00 -4.732e-01 3.270e-02 -1.688e-02
43 1 -3.562e+00 1.815e+00 2.813e+00 -5.472e-01 -6.129e-03 7.508e-03
44 1 -1.811e+00 3.569e+00 2.813e+00 -6.790e-01 -1.223e-03 2.471e-02
45 1 -3.565e+00 -1.802e+00 2.812e+00 -5.359e-01 -1.048e-02 2.542e-03
46 1 1.807e+00 3.568e+00 2.812e+00 -7.461e-01 1.149e-03 -1.432e-02
47 1 1.806e+00 -3.558e+00 2.812e+00 -5.000e-01 -6.933e-02 -1.074e-02
48 1 3.562e+00 -1.803e+00 2.812e+00 -4.554e-01 -4.811e-02 -5.325e-02
49 1 -1.808e+00 -3.556e+00 2.812e+00 -5.697e-01 -5.393e-02 1.565e-02
50 1 3.560e+00 1.811e+00 2.811e+00 -5.999e-01 -1.954e-02 -6.111e-02
51 1 1.765e+00 3.449e-03 -4.221e+00 -6.167e-01 -1.202e-01 -2.561e-02
52 1 -9.147e-05 -1.759e+00 -4.222e+00 -6.062e-01 -1.524e-01 -1.887e-02
53 1 -8.053e-04 1.770e+00 -4.222e+00 -6.125e-01 -1.052e-01 1.439e-02
54 1 -1.766e+00 3.173e-03 -4.222e+00 -5.798e-01 -1.125e-01 9.409e-03
55 1 3.616e+00 2.946e-03 -2.566e+00 -6.106e-01 -1.102e-01 -5.523e-02
56 1 -4.451e-04 -3.608e+00 -2.566e+00 -6.280e-01 -1.822e-01 -1.779e-02
57 1 -5.605e-04 3.616e+00 -2.562e+00 -6.305e-01 -1.036e-01 1.878e-02
58 1 -3.612e+00 6.106e-03 -2.564e+00 -5.312e-01 -9.109e-02 9.953e-03
59 1 -2.035e-03 8.370e-03 2.103e+00 -5.093e-01 1.373e-02 -3.558e-02
60 1 -1.095e-03 -8.786e-04 -2.129e-04 -5.315e-01 -3.305e-02 -4.747e-02
61 1 1.807e+00 -3.558e+00 -7.152e-01 -6.300e-01 -1.627e-01 -2.541e-02
62 1 3.561e+00 -1.802e+00 -7.149e-01 -5.799e-01 -1.211e-01 -6.280e-02
63 1 -1.809e+00 -3.558e+00 -7.173e-01 -6.647e-01 -1.405e-01 1.431e-02
64 1 3.561e+00 1.812e+00 -7.156e-01 -6.846e-01 -7.248e-02 -6.229e-02
65 1 -3.562e+00 1.812e+00 -7.165e-01 -5.294e-01 -6.415e-02 9.136e-03
66 1 -1.807e+00 3.566e+00 -7.166e-01 -6.269e-01 -8.003e-02 2.506e-02
67 1 -3.562e+00 -1.801e+00 -7.160e-01 -5.759e-01 -7.912e-02 6.598e-03
68 1 1.807e+00 3.565e+00 -7.167e-01 -7.468e-01 -7.481e-02 -1.651e-02
69 1 -1.967e-03 -2.030e+00 -8.649e-01 -6.408e-01 -1.137e-01 -3.521e-02
70 1 2.031e+00 3.627e-03 -8.670e-01 -6.415e-01 -7.718e-02 -6.838e-02
71 1 -2.032e+00 5.940e-03 -8.637e-01 -5.817e-01 -6.151e-02 -2.038e-02
72 1 2.334e-04 2.032e+00 -8.631e-01 -6.555e-01 -6.292e-02 -2.006e-02
73 1 -2.037e+00 6.454e-03 2.962e+00 -5.738e-01 2.202e-02 -8.477e-03
74 1 5.116e-05 2.040e+00 2.964e+00 -6.862e-01 3.457e-02 -1.222e-02
75 1 -3.007e-03 -2.027e+00 2.961e+00 -5.444e-01 -6.924e-03 -2.092e-02
76 1 2.031e+00 5.425e-03 2.962e+00 -5.494e-01 4.110e-03 -5.365e-02
77 1 1.997e-04 3.557e+00 1.049e+00 -8.082e-01 -4.304e-02 1.003e-02
78 1 -3.553e+00 3.839e-03 1.048e+00 -5.787e-01 -2.736e-02 -2.985e-03
79 1 3.550e+00 4.491e-03 1.046e+00 -6.219e-01 -6.572e-02 -7.817e-02
80 1 -1.060e-03 -3.546e+00 1.050e+00 -6.870e-01 -1.295e-01 8.420e-03
81 1 1.789e+00 -1.788e+00 -2.504e+00 -6.712e-01 -1.760e-01 -5.790e-02
82 1 -1.793e+00 -1.787e+00 -2.503e+00 -6.625e-01 -1.449e-01 -4.569e-03
83 1 1.793e+00 1.795e+00 -2.504e+00 -7.240e-01 -1.024e-01 -2.303e-02
84 1 -1.793e+00 1.796e+00 -2.503e+00 -6.204e-01 -1.090e-01 1.308e-02
85 1 -2.502e-04 5.458e-03 -2.443e+00 -6.619e-01 -1.084e-01 -2.786e-02
86 1 1.671e+00 -1.671e+00 1.051e+00 -5.917e-01 -6.969e-02 -4.827e-02
87 1 -1.674e+00 1.677e+00 1.051e+00 -6.334e-01 -1.965e-02 -2.331e-03
88 1 1.672e+00 1.676e+00 1.049e+00 -7.210e-01 -2.214e-02 -5.228e-02
89 1 -1.676e+00 -1.669e+00 1.049e+00 -6.273e-01 -4.704e-02 -8.668e-03
ITEM: TIMESTEP
0
ITEM: NUMBER OF ATOMS
89
ITEM: BOX BOUNDS xy xz yz pp pp pp
                     0.00000000000000e+00 1.06200000000000e+01 0.00000000000000e+00
0.00000000000000e+00	1.06200000000000e+01	0.00000000000000e+00
0.00000000000000e+00	1.06200000000000e+01	0.00000000000000e+00
ITEM: ATOMS id type x y z DisplacementX DisplacementY DisplacementZ
90 1 -1.293e-03 4.552e-03 -5.985e+00 -3.613e-01 -7.740e-02 9.100e-03
91 1 3.538e+00 -3.536e+00 -2.490e+00 -4.889e-01 -1.368e-01 1.690e-02
92 1 -3.542e+00 3.546e+00 -2.491e+00 -4.142e-01 -4.642e-02 2.260e-02
93 1 -3.544e+00 -3.537e+00 -2.491e+00 -5.447e-01 -1.139e-01 2.184e-02
94 1 3.541e+00 3.546e+00 -2.493e+00 -2.512e-01 -1.100e-01 -2.711e-02
95 1 1.773e+00 -3.535e+00 -4.257e+00 -4.893e-01 -1.209e-01 2.395e-02
96 1 3.538e+00 -1.772e+00 -4.258e+00 -4.084e-01 -1.278e-01 6.508e-03
97 1 -1.778e+00 -3.534e+00 -4.258e+00 -5.250e-01 -1.075e-01 2.668e-02
98 1 3.539e+00 1.780e+00 -4.258e+00 -2.389e-01 -1.399e-01 -3.153e-02
99 1 -3.542e+00 1.781e+00 -4.256e+00 -4.112e-01 -5.469e-02 1.781e-02
100 1 -1.776e+00 3.543e+00 -4.256e+00 -3.769e-01 -5.944e-02 1.818e-02
101 1 -3.540e+00 -1.768e+00 -4.258e+00 -4.895e-01 -9.085e-02 1.915e-02
102 1 1.772e+00 3.544e+00 -4.257e+00 -2.500e-01 -1.211e-01 -2.125e-02
103 1 -8.204e-04 3.620e+00 4.661e+00 -5.959e-01 5.634e-02 5.120e-02
104 1 -3.616e+00 6.505e-03 4.661e+00 -6.044e-01 -6.157e-02 1.666e-02
105 1 3.612e+00 5.762e-03 4.662e+00 -4.827e-01 -2.769e-02 -3.853e-02
106 1 -1.976e-03 -3.608e+00 4.662e+00 -6.515e-01 -1.085e-01 1.064e-02
107 1 5.297e+00 -1.761e+00 1.048e+00 -4.489e-01 -1.350e-01 -2.828e-02
108 1 1.767e+00 -5.294e+00 1.048e+00 -7.417e-01 -2.161e-01 3.895e-02
109 1 1.765e+00 5.303e+00 1.049e+00 -5.310e-01 3.714e-02 4.283e-02
110 1 -5.299e+00 -1.763e+00 1.049e+00 -6.208e-01 -1.281e-01 -1.461e-02
111 1 -1.768e+00 5.303e+00 1.047e+00 -5.734e-01 1.478e-02 7.510e-02
112 1 -5.299e+00 1.774e+00 1.048e+00 -5.923e-01 -8.905e-02 -2.463e-03
113 1 5.298e+00 1.772e+00 1.047e+00 -3.946e-01 -6.859e-02 -3.109e-02
114 1 -1.767e+00 -5.292e+00 1.046e+00 -7.571e-01 -2.055e-01 4.746e-02
115 1 -3.110e-03 -5.270e+00 -7.230e-01 -7.538e-01 -2.151e-01 5.040e-02
116 1 5.275e+00 5.436e-03 -7.229e-01 -3.691e-01 -1.292e-01 -2.641e-02
117 1 -5.278e+00 4.506e-03 -7.243e-01 -5.724e-01 -1.020e-01 -1.752e-02
118 1 -6.783e-04 5.279e+00 -7.246e-01 -4.932e-01 4.857e-04 5.281e-02
119 1 -5.278e+00 4.726e-03 2.820e+00 -6.175e-01 -1.080e-01 -6.851e-03
120 1 -1.261e-03 5.279e+00 2.821e+00 -6.091e-01 6.216e-02 7.009e-02
121 1 -1.471e-03 -5.271e+00 2.822e+00 -7.487e-01 -1.962e-01 3.843e-02
122 1 5.274e+00 4.464e-03 2.821e+00 -4.335e-01 -7.234e-02 -4.186e-02
123 1 -1.794e+00 1.797e+00 4.600e+00 -6.298e-01 5.395e-04 3.981e-02
124 1 1.788e+00 -1.786e+00 4.601e+00 -5.890e-01 -6.669e-02 -2.094e-02
125 1 1.790e+00 1.796e+00 4.599e+00 -5.590e-01 2.774e-02 -3.685e-03
126 1 -1.792e+00 -1.787e+00 4.602e+00 -6.456e-01 -7.266e-02 8.258e-03
127 1 3.519e+00 -3.515e+00 1.048e+00 -6.441e-01 -1.721e-01 -3.087e-03
128 1 -3.522e+00 3.526e+00 1.048e+00 -6.120e-01 -3.230e-02 4.404e-02
129 1 3.519e+00 3.523e+00 1.047e+00 -4.847e-01 2.534e-04 -5.226e-03
130 1 -3.523e+00 -3.516e+00 1.050e+00 -7.191e-01 -1.581e-01 1.548e-02
131 1 -2.357e-03 5.776e-03 4.540e+00 -6.455e-01 -1.499e-02 2.283e-03
132 1 -3.564e+00 1.812e+00 2.813e+00 -7.143e-01 -6.153e-02 2.651e-02
133 1 -1.809e+00 3.568e+00 2.812e+00 -7.132e-01 2.583e-02 7.324e-02
134 1 -3.564e+00 -1.802e+00 2.813e+00 -7.450e-01 -1.201e-01 2.442e-05
135 1 1.806e+00 3.568e+00 2.813e+00 -6.496e-01 5.754e-02 2.883e-02
136 1 1.808e+00 -3.556e+00 2.810e+00 -7.897e-01 -1.676e-01 6.694e-03
137 1 3.559e+00 -1.803e+00 2.813e+00 -6.133e-01 -1.083e-01 -3.554e-02
138 1 -1.809e+00 -3.557e+00 2.813e+00 -8.202e-01 -1.622e-01 2.632e-02
139 1 3.559e+00 1.816e+00 2.814e+00 -5.516e-01 -1.385e-02 -3.104e-02
140 1 1.762e+00 5.373e-03 -4.222e+00 -4.535e-01 -1.407e-01 -8.646e-03
141 1 4.800e-04 -1.759e+00 -4.221e+00 -5.991e-01 -1.211e-01 1.989e-02
142 1 -1.382e-03 1.769e+00 -4.222e+00 -4.504e-01 -1.041e-01 -1.773e-04
143 1 -1.766e+00 5.184e-03 -4.222e+00 -5.564e-01 -8.637e-02 1.544e-02
144 1 3.611e+00 3.996e-03 -2.565e+00 -4.270e-01 -1.624e-01 -2.147e-02
145 1 -2.776e-03 -3.610e+00 -2.566e+00 -7.352e-01 -1.675e-01 3.548e-02
146 1 -2.396e-03 3.617e+00 -2.563e+00 -4.609e-01 -7.423e-02 1.260e-02
147 1 -3.616e+00 6.330e-03 -2.562e+00 -6.071e-01 -8.518e-02 3.495e-03
148 1 -2.973e-03 1.037e-02 2.103e+00 -6.673e-01 -3.178e-02 -9.101e-03
149 1 1.015e-03 -2.135e-05 -9.430e-04 -6.387e-01 -4.637e-02 -1.873e-02
150 1 1.807e+00 -3.557e+00 -7.173e-01 -8.138e-01 -2.071e-01 2.584e-02
151 1 3.559e+00 -1.801e+00 -7.163e-01 -6.070e-01 -1.733e-01 -1.274e-02
152 1 -1.810e+00 -3.559e+00 -7.154e-01 -8.475e-01 -1.913e-01 3.467e-02
153 1 3.559e+00 1.813e+00 -7.157e-01 -4.507e-01 -1.020e-01 -2.833e-02
154 1 -3.565e+00 1.813e+00 -7.170e-01 -6.530e-01 -7.221e-02 6.624e-03
155 1 -1.809e+00 3.564e+00 -7.146e-01 -6.124e-01 -2.816e-02 4.703e-02
156 1 -3.561e+00 -1.802e+00 -7.160e-01 -7.462e-01 -1.369e-01 -3.814e-03
157 1 1.804e+00 3.567e+00 -7.165e-01 -5.138e-01 -3.613e-02 9.495e-03
158 1 -1.293e-03 -2.030e+00 -8.652e-01 -7.999e-01 -1.316e-01 3.760e-03
159 1 2.030e+00 6.128e-03 -8.648e-01 -6.054e-01 -1.026e-01 -2.667e-02
160 1 -2.032e+00 4.787e-03 -8.625e-01 -7.064e-01 -7.198e-02 -9.649e-03
161 1 -1.209e-03 2.035e+00 -8.634e-01 -6.016e-01 -3.982e-02 2.209e-03
162 1 -2.035e+00 4.139e-03 2.960e+00 -7.819e-01 -5.350e-02 1.296e-02
163 1 -6.275e-05 2.041e+00 2.961e+00 -7.426e-01 2.728e-02 2.982e-02
164 1 -1.461e-03 -2.026e+00 2.958e+00 -8.206e-01 -9.647e-02 -2.623e-03
165 1 2.032e+00 5.102e-03 2.960e+00 -6.898e-01 -3.413e-02 -3.072e-02
166 1 -1.225e-03 3.555e+00 1.047e+00 -7.211e-01 2.986e-02 6.131e-02
167 1 -3.551e+00 3.540e-03 1.047e+00 -7.981e-01 -1.124e-01 -1.253e-02
168 1 3.550e+00 7.144e-03 1.048e+00 -5.934e-01 -1.127e-01 -4.126e-02
169 1 -2.412e-03 -3.545e+00 1.049e+00 -9.716e-01 -2.253e-01 3.644e-02
170 1 1.791e+00 -1.788e+00 -2.504e+00 -6.821e-01 -1.665e-01 8.419e-03
171 1 -1.794e+00 -1.788e+00 -2.504e+00 -7.573e-01 -1.301e-01 1.784e-02
172 1 1.789e+00 1.795e+00 -2.505e+00 -4.512e-01 -1.337e-01 -2.661e-02
173 1 -1.793e+00 1.796e+00 -2.505e+00 -5.993e-01 -6.969e-02 1.322e-02
174 1 -1.927e-03 1.746e-03 -2.441e+00 -6.433e-01 -9.811e-02 -7.811e-03
175 1 1.673e+00 -1.669e+00 1.050e+00 -7.990e-01 -1.377e-01 -1.339e-02
176 1 -1.676e+00 1.678e+00 1.048e+00 -7.525e-01 -2.615e-02 2.404e-02
177 1 1.672e+00 1.678e+00 1.049e+00 -6.569e-01 -1.294e-02 -1.161e-02
178 1 -1.674e+00 -1.670e+00 1.049e+00 -8.662e-01 -1.233e-01 1.204e-03
ITEM: TIMESTEP
0
ITEM: NUMBER OF ATOMS
89
ITEM: BOX BOUNDS xy xz yz pp pp pp
                     0.00000000000000e+00 1.06200000000000e+01 0.00000000000000e+00
0.00000000000000e+00	1.06200000000000e+01	0.00000000000000e+00
0.00000000000000e+00	1.06200000000000e+01	0.00000000000000e+00
ITEM: ATOMS id type x y z DisplacementX DisplacementY DisplacementZ
179 1 -1.005e-03 5.550e-03 -5.984e+00 -3.503e-01 -1.936e-02 3.893e-03
180 1 3.539e+00 -3.537e+00 -2.492e+00 -4.900e-01 -9.378e-02 -2.119e-03
181 1 -3.543e+00 3.546e+00 -2.491e+00 -4.322e-01 -3.383e-02 2.729e-02
182 1 -3.542e+00 -3.536e+00 -2.489e+00 -5.892e-01 -1.366e-02 2.263e-02
183 1 3.541e+00 3.546e+00 -2.490e+00 -2.709e-01 -4.712e-02 -1.563e-02
184 1 1.775e+00 -3.535e+00 -4.259e+00 -4.872e-01 -6.044e-02 5.264e-03
185 1 3.539e+00 -1.772e+00 -4.256e+00 -4.098e-01 -6.762e-02 -4.533e-03
186 1 -1.777e+00 -3.535e+00 -4.257e+00 -5.647e-01 -1.268e-02 1.823e-02
187 1 3.537e+00 1.779e+00 -4.257e+00 -2.341e-01 -6.205e-02 -1.100e-02
188 1 -3.540e+00 1.778e+00 -4.256e+00 -4.400e-01 -3.047e-02 2.329e-02
189 1 -1.776e+00 3.543e+00 -4.256e+00 -3.907e-01 -3.911e-02 2.085e-02
190 1 -3.540e+00 -1.772e+00 -4.257e+00 -5.450e-01 -3.583e-03 1.945e-02
191 1 1.773e+00 3.541e+00 -4.256e+00 -2.426e-01 -5.440e-02 -2.426e-03
192 1 -1.235e-03 3.620e+00 4.664e+00 -6.749e-01 6.034e-02 1.162e-02
193 1 -3.615e+00 5.482e-03 4.663e+00 -5.268e-01 -1.593e-02 2.144e-02
194 1 3.613e+00 6.266e-03 4.662e+00 -4.655e-01 -8.277e-02 -4.865e-02
195 1 -1.235e-03 -3.608e+00 4.660e+00 -5.623e-01 -1.211e-01 -2.193e-02
196 1 5.298e+00 -1.763e+00 1.048e+00 -4.567e-01 -1.632e-01 -4.295e-02
197 1 1.765e+00 -5.294e+00 1.047e+00 -6.575e-01 -2.059e-01 -1.247e-02
198 1 1.766e+00 5.303e+00 1.046e+00 -6.649e-01 4.004e-02 -4.770e-03
199 1 -5.300e+00 -1.762e+00 1.049e+00 -5.799e-01 -2.633e-02 2.781e-02
200 1 -1.769e+00 5.305e+00 1.048e+00 -6.436e-01 2.149e-02 3.120e-02
201 1 -5.299e+00 1.771e+00 1.047e+00 -5.168e-01 -2.030e-02 2.044e-02
202 1 5.296e+00 1.772e+00 1.047e+00 -4.280e-01 -8.244e-02 -5.689e-02
203 1 -1.770e+00 -5.295e+00 1.048e+00 -6.699e-01 -1.471e-01 1.570e-02
204 1 -1.522e-03 -5.272e+00 -7.239e-01 -6.896e-01 -1.610e-01 9.526e-03
205 1 5.274e+00 4.216e-03 -7.235e-01 -4.087e-01 -1.175e-01 -4.300e-02
206 1 -5.277e+00 7.687e-03 -7.239e-01 -5.546e-01 -1.587e-02 2.132e-02
207 1 -3.585e-03 5.282e+00 -7.242e-01 -5.887e-01 4.218e-03 1.693e-02
208 1 -5.277e+00 5.416e-03 2.820e+00 -5.285e-01 -2.660e-02 2.386e-02
209 1 -1.033e-03 5.281e+00 2.820e+00 -7.284e-01 5.881e-02 1.741e-02
210 1 -1.504e-03 -5.270e+00 2.819e+00 -6.382e-01 -1.824e-01 -9.756e-03
211 1 5.274e+00 4.949e-03 2.821e+00 -4.327e-01 -1.233e-01 -5.658e-02
212 1 -1.794e+00 1.797e+00 4.598e+00 -6.306e-01 2.456e-02 1.634e-02
213 1 1.790e+00 -1.787e+00 4.600e+00 -5.529e-01 -1.034e-01 -4.483e-02
214 1 1.790e+00 1.799e+00 4.602e+00 -6.073e-01 8.412e-03 -2.398e-02
215 1 -1.792e+00 -1.787e+00 4.601e+00 -5.785e-01 -5.346e-02 2.386e-03
216 1 3.520e+00 -3.514e+00 1.049e+00 -6.154e-01 -1.915e-01 -3.318e-02
217 1 -3.523e+00 3.525e+00 1.047e+00 -5.903e-01 -6.829e-03 2.848e-02
218 1 3.520e+00 3.525e+00 1.049e+00 -5.814e-01 -2.016e-03 -4.213e-02
219 1 -3.521e+00 -3.516e+00 1.048e+00 -6.757e-01 -7.000e-02 2.635e-02
220 1 -2.019e-03 6.557e-03 4.540e+00 -6.458e-01 -1.592e-02 -1.817e-02
221 1 -3.563e+00 1.814e+00 2.813e+00 -6.467e-01 -6.464e-03 2.394e-02
222 1 -1.809e+00 3.566e+00 2.812e+00 -7.648e-01 4.302e-02 2.714e-02
223 1 -3.563e+00 -1.803e+00 2.812e+00 -6.707e-01 -4.278e-02 2.303e-02
224 1 1.806e+00 3.569e+00 2.812e+00 -7.708e-01 5.066e-02 -1.316e-02
225 1 1.806e+00 -3.558e+00 2.811e+00 -7.047e-01 -1.919e-01 -4.052e-02
226 1 3.560e+00 -1.802e+00 2.813e+00 -5.907e-01 -1.629e-01 -5.895e-02
227 1 -1.809e+00 -3.558e+00 2.814e+00 -7.224e-01 -1.229e-01 4.025e-03
228 1 3.562e+00 1.813e+00 2.812e+00 -5.918e-01 -5.034e-02 -5.669e-02
229 1 1.762e+00 5.470e-03 -4.221e+00 -4.462e-01 -5.741e-02 -1.014e-02
230 1 -6.291e-04 -1.760e+00 -4.222e+00 -6.150e-01 -3.297e-02 5.709e-03
231 1 -2.761e-03 1.768e+00 -4.221e+00 -4.479e-01 -4.224e-02 3.074e-03
232 1 -1.767e+00 5.816e-03 -4.220e+00 -5.862e-01 -1.793e-02 1.333e-02
233 1 3.613e+00 4.185e-03 -2.565e+00 -4.491e-01 -9.306e-02 -2.759e-02
234 1 1.016e-03 -3.609e+00 -2.567e+00 -7.394e-01 -8.207e-02 9.638e-03
235 1 -9.608e-04 3.618e+00 -2.564e+00 -4.969e-01 -3.589e-02 6.905e-03
236 1 -3.617e+00 3.686e-03 -2.564e+00 -6.506e-01 -1.098e-02 2.093e-02
237 1 -1.424e-03 7.638e-03 2.103e+00 -7.011e-01 -1.805e-02 -3.240e-02
238 1 2.013e-03 1.410e-03 8.373e-04 -6.875e-01 -2.179e-02 -3.980e-02
239 1 1.808e+00 -3.558e+00 -7.158e-01 -7.798e-01 -1.740e-01 -1.489e-02
240 1 3.562e+00 -1.803e+00 -7.162e-01 -6.264e-01 -1.563e-01 -3.540e-02
241 1 -1.808e+00 -3.558e+00 -7.157e-01 -8.277e-01 -9.562e-02 1.764e-02
242 1 3.561e+00 1.814e+00 -7.171e-01 -5.158e-01 -6.731e-02 -4.953e-02
243 1 -3.563e+00 1.811e+00 -7.151e-01 -6.451e-01 -2.053e-02 2.232e-02
244 1 -1.809e+00 3.566e+00 -7.174e-01 -6.602e-01 -1.277e-02 2.662e-02
245 1 -3.563e+00 -1.801e+00 -7.160e-01 -7.610e-01 -2.678e-02 2.293e-02
246 1 1.805e+00 3.566e+00 -7.154e-01 -6.163e-01 -8.073e-03 -1.670e-02
247 1 -7.610e-04 -2.030e+00 -8.676e-01 -8.144e-01 -7.590e-02 -2.339e-02
248 1 2.032e+00 4.955e-03 -8.628e-01 -6.560e-01 -6.801e-02 -4.761e-02
249 1 -2.034e+00 4.307e-03 -8.650e-01 -7.471e-01 -1.207e-02 -6.414e-03
250 1 -2.150e-03 2.034e+00 -8.622e-01 -6.746e-01 -1.140e-02 -1.700e-02
251 1 -2.037e+00 3.460e-03 2.963e+00 -7.479e-01 -1.283e-02 5.413e-03
252 1 -2.912e-03 2.040e+00 2.964e+00 -8.158e-01 3.621e-02 -6.648e-03
253 1 -1.678e-03 -2.025e+00 2.960e+00 -7.687e-01 -9.857e-02 -3.253e-02
254 1 2.032e+00 5.499e-03 2.961e+00 -7.094e-01 -6.242e-02 -5.397e-02
255 1 -7.657e-04 3.555e+00 1.049e+00 -8.537e-01 3.812e-02 8.867e-03
256 1 -3.553e+00 4.149e-03 1.048e+00 -7.474e-01 -2.092e-02 2.020e-02
257 1 3.548e+00 5.537e-03 1.048e+00 -6.269e-01 -1.329e-01 -6.678e-02
258 1 -1.699e-03 -3.544e+00 1.047e+00 -8.820e-01 -1.906e-01 -1.292e-02
259 1 1.790e+00 -1.790e+00 -2.505e+00 -6.913e-01 -9.588e-02 -1.439e-02
260 1 -1.794e+00 -1.787e+00 -2.506e+00 -8.059e-01 -2.439e-02 1.266e-02
261 1 1.789e+00 1.797e+00 -2.505e+00 -4.787e-01 -5.947e-02 -2.324e-02
262 1 -1.791e+00 1.797e+00 -2.505e+00 -6.356e-01 -3.338e-02 1.615e-02
263 1 -2.280e-03 2.702e-03 -2.442e+00 -6.815e-01 -3.058e-02 -1.945e-02
264 1 1.674e+00 -1.669e+00 1.050e+00 -7.985e-01 -1.401e-01 -5.291e-02
265 1 -1.675e+00 1.678e+00 1.051e+00 -7.838e-01 9.574e-03 4.437e-03
266 1 1.674e+00 1.679e+00 1.049e+00 -7.593e-01 -3.086e-03 -4.995e-02
267 1 -1.675e+00 -1.671e+00 1.049e+00 -8.451e-01 -5.670e-02 -4.211e-03
ITEM: TIMESTEP
0
ITEM: NUMBER OF ATOMS
89
ITEM: BOX BOUNDS xy xz yz pp pp pp
                     0.00000000000000e+00 1.06200000000000e+01 0.00000000000000e+00
0.00000000000000e+00	1.06200000000000e+01	0.00000000000000e+00
0.00000000000000e+00	1.06200000000000e+01	0.00000000000000e+00
ITEM: ATOMS id type x y z DisplacementX DisplacementY DisplacementZ
268 1 -6.559e-04 5.873e-03 -5.985e+00 -3.857e-01 -2.560e-02 3.524e-02
269 1 3.540e+00 -3.536e+00 -2.491e+00 -4.679e-01 -4.799e-02 2.157e-02
270 1 -3.540e+00 3.547e+00 -2.491e+00 -3.600e-01 -5.040e-02 3.213e-02
271 1 -3.543e+00 -3.536e+00 -2.492e+00 -5.575e-01 -4.227e-02 4.236e-02
272 1 3.540e+00 3.547e+00 -2.490e+00 -2.390e-01 -1.517e-02 8.270e-03
273 1 1.774e+00 -3.535e+00 -4.258e+00 -4.779e-01 -4.708e-02 3.256e-02
274 1 3.538e+00 -1.770e+00 -4.254e+00 -4.119e-01 -3.544e-02 2.166e-02
275 1 -1.775e+00 -3.533e+00 -4.257e+00 -5.712e-01 -4.554e-02 4.499e-02
276 1 3.538e+00 1.782e+00 -4.258e+00 -2.458e-01 -2.452e-02 1.267e-02
277 1 -3.541e+00 1.779e+00 -4.256e+00 -4.056e-01 -4.740e-02 3.755e-02
278 1 -1.776e+00 3.546e+00 -4.257e+00 -3.559e-01 -4.769e-02 3.921e-02
279 1 -3.540e+00 -1.771e+00 -4.257e+00 -5.422e-01 -4.009e-02 4.117e-02
280 1 1.774e+00 3.543e+00 -4.255e+00 -2.329e-01 -3.099e-02 2.141e-02
281 1 -1.197e-03 3.621e+00 4.661e+00 -5.737e-01 -4.751e-02 4.791e-02
282 1 -3.615e+00 6.324e-03 4.661e+00 -5.450e-01 -5.455e-02 7.190e-02
283 1 3.613e+00 5.757e-03 4.660e+00 -5.292e-01 -1.320e-02 -4.620e-03
284 1 -4.580e-04 -3.609e+00 4.663e+00 -5.370e-01 -3.637e-02 6.294e-02
285 1 5.297e+00 -1.764e+00 1.048e+00 -4.975e-01 -2.368e-02 -1.693e-02
286 1 1.766e+00 -5.292e+00 1.047e+00 -5.624e-01 -8.643e-02 4.146e-02
287 1 1.765e+00 5.304e+00 1.046e+00 -4.593e-01 -1.791e-04 8.863e-03
288 1 -5.300e+00 -1.763e+00 1.047e+00 -4.713e-01 -4.841e-02 3.865e-02
289 1 -1.768e+00 5.302e+00 1.045e+00 -4.150e-01 -5.400e-02 2.739e-02
290 1 -5.299e+00 1.772e+00 1.047e+00 -4.003e-01 -7.283e-02 2.279e-02
291 1 5.297e+00 1.772e+00 1.047e+00 -4.363e-01 6.809e-03 -2.821e-02
292 1 -1.767e+00 -5.293e+00 1.047e+00 -5.435e-01 -7.529e-02 5.854e-02
293 1 -8.654e-04 -5.270e+00 -7.235e-01 -5.783e-01 -8.747e-02 4.718e-02
294 1 5.276e+00 4.928e-03 -7.258e-01 -4.282e-01 -8.467e-03 -1.886e-02
295 1 -5.276e+00 5.074e-03 -7.235e-01 -4.213e-01 -4.974e-02 2.044e-02
296 1 -1.961e-03 5.279e+00 -7.240e-01 -3.825e-01 -1.833e-02 1.826e-02
297 1 -5.278e+00 5.202e-03 2.820e+00 -4.654e-01 -6.658e-02 4.464e-02
298 1 -3.488e-04 5.280e+00 2.820e+00 -5.084e-01 -3.595e-02 2.990e-02
299 1 -1.786e-03 -5.272e+00 2.820e+00 -5.300e-01 -7.461e-02 5.837e-02
300 1 5.275e+00 5.367e-03 2.820e+00 -4.808e-01 -1.129e-02 -2.694e-02
301 1 -1.792e+00 1.797e+00 4.599e+00 -6.064e-01 -5.795e-02 7.411e-02
302 1 1.791e+00 -1.785e+00 4.602e+00 -5.848e-01 -2.074e-02 3.556e-02
303 1 1.792e+00 1.797e+00 4.603e+00 -6.053e-01 -1.830e-02 2.430e-02
304 1 -1.794e+00 -1.786e+00 4.600e+00 -5.931e-01 -3.054e-02 8.044e-02
305 1 3.519e+00 -3.514e+00 1.048e+00 -5.875e-01 -5.601e-02 1.291e-02
306 1 -3.523e+00 3.527e+00 1.046e+00 -4.243e-01 -7.127e-02 2.925e-02
307 1 3.519e+00 3.525e+00 1.047e+00 -4.799e-01 1.784e-02 -1.285e-02
308 1 -3.521e+00 -3.516e+00 1.048e+00 -5.596e-01 -4.568e-02 5.645e-02
309 1 -1.517e-03 6.249e-03 4.542e+00 -6.980e-01 -2.337e-02 6.660e-02
310 1 -3.564e+00 1.812e+00 2.813e+00 -5.717e-01 -8.081e-02 5.692e-02
311 1 -1.808e+00 3.567e+00 2.812e+00 -5.940e-01 -6.883e-02 5.418e-02
312 1 -3.566e+00 -1.802e+00 2.812e+00 -6.212e-01 -4.827e-02 7.128e-02
313 1 1.804e+00 3.568e+00 2.811e+00 -6.307e-01 -1.134e-02 1.718e-02
314 1 1.805e+00 -3.558e+00 2.813e+00 -6.581e-01 -5.815e-02 4.435e-02
315 1 3.561e+00 -1.804e+00 2.812e+00 -6.356e-01 -2.792e-02 -1.910e-03
316 1 -1.808e+00 -3.558e+00 2.814e+00 -6.433e-01 -5.179e-02 7.757e-02
317 1 3.561e+00 1.812e+00 2.813e+00 -6.004e-01 1.265e-03 -1.813e-02
318 1 1.762e+00 4.073e-03 -4.222e+00 -4.827e-01 -2.959e-02 2.703e-02
319 1 -2.053e-03 -1.761e+00 -4.221e+00 -6.316e-01 -4.440e-02 4.536e-02
320 1 1.589e-04 1.769e+00 -4.221e+00 -4.505e-01 -3.762e-02 3.872e-02
321 1 -1.766e+00 4.786e-03 -4.221e+00 -5.925e-01 -4.013e-02 4.498e-02
322 1 3.611e+00 4.850e-03 -2.564e+00 -4.713e-01 -1.850e-02 2.147e-03
323 1 -1.831e-03 -3.609e+00 -2.564e+00 -6.935e-01 -6.686e-02 4.572e-02
324 1 -7.037e-04 3.617e+00 -2.563e+00 -4.027e-01 -3.199e-02 2.912e-02
325 1 -3.614e+00 5.223e-03 -2.565e+00 -5.763e-01 -4.307e-02 3.477e-02
326 1 -3.824e-04 8.169e-03 2.105e+00 -6.992e-01 -8.367e-03 4.019e-02
327 1 -4.256e-04 -9.130e-05 -9.502e-04 -6.506e-01 3.108e-03 8.813e-03
328 1 1.808e+00 -3.559e+00 -7.161e-01 -7.109e-01 -7.496e-02 3.158e-02
329 1 3.562e+00 -1.801e+00 -7.152e-01 -6.338e-01 -3.464e-02 -2.635e-03
330 1 -1.808e+00 -3.555e+00 -7.150e-01 -7.196e-01 -6.437e-02 5.504e-02
331 1 3.562e+00 1.812e+00 -7.170e-01 -4.855e-01 5.136e-03 -1.493e-02
332 1 -3.564e+00 1.812e+00 -7.162e-01 -5.001e-01 -6.101e-02 2.614e-02
333 1 -1.808e+00 3.567e+00 -7.156e-01 -4.742e-01 -4.865e-02 3.016e-02
334 1 -3.561e+00 -1.802e+00 -7.159e-01 -6.432e-01 -4.274e-02 4.152e-02
335 1 1.804e+00 3.565e+00 -7.163e-01 -4.674e-01 8.476e-04 7.965e-03
336 1 -6.010e-04 -2.030e+00 -8.654e-01 -7.623e-01 -3.202e-02 2.503e-02
337 1 2.032e+00 6.027e-03 -8.638e-01 -6.422e-01 -2.640e-03 -7.777e-03
338 1 -2.033e+00 4.814e-03 -8.622e-01 -6.604e-01 -2.002e-02 2.458e-02
339 1 3.049e-04 2.031e+00 -8.639e-01 -5.804e-01 -4.126e-03 1.335e-02
340 1 -2.036e+00 4.066e-03 2.960e+00 -7.502e-01 -4.231e-02 8.236e-02
341 1 -1.701e-04 2.042e+00 2.962e+00 -7.603e-01 -3.298e-02 5.692e-02
342 1 -1.350e-03 -2.027e+00 2.960e+00 -7.702e-01 -2.843e-02 6.933e-02
343 1 2.033e+00 7.061e-03 2.963e+00 -7.508e-01 -1.216e-02 1.910e-02
344 1 -2.102e-04 3.556e+00 1.049e+00 -6.195e-01 -2.683e-02 2.767e-02
345 1 -3.553e+00 3.881e-03 1.049e+00 -6.310e-01 -5.888e-02 4.461e-02
346 1 3.551e+00 3.192e-03 1.049e+00 -6.578e-01 -7.713e-03 -2.438e-02
347 1 -1.069e-04 -3.545e+00 1.048e+00 -7.662e-01 -8.136e-02 5.873e-02
348 1 1.790e+00 -1.787e+00 -2.504e+00 -6.841e-01 -4.607e-02 2.565e-02
349 1 -1.793e+00 -1.789e+00 -2.505e+00 -7.688e-01 -4.682e-02 4.742e-02
350 1 1.790e+00 1.797e+00 -2.504e+00 -4.548e-01 -1.784e-02 1.511e-02
351 1 -1.791e+00 1.794e+00 -2.506e+00 -5.608e-01 -4.641e-02 3.897e-02
352 1 -1.010e-04 4.120e-03 -2.444e+00 -6.717e-01 -1.733e-02 2.339e-02
353 1 1.673e+00 -1.670e+00 1.049e+00 -7.886e-01 -3.050e-02 1.672e-02
354 1 -1.673e+00 1.679e+00 1.051e+00 -6.622e-01 -4.196e-02 4.098e-02
355 1 1.673e+00 1.679e+00 1.049e+00 -6.930e-01 1.278e-02 -6.818e-04
356 1 -1.675e+00 -1.667e+00 1.048e+00 -7.698e-01 -2.988e-02 5.638e-02
ITEM: TIMESTEP
0
ITEM: NUMBER OF ATOMS
89
ITEM: BOX BOUNDS xy xz yz pp pp pp
                     0.00000000000000e+00 1.06200000000000e+01 0.00000000000000e+00
0.00000000000000e+00	1.06200000000000e+01	0.00000000000000e+00
0.00000000000000e+00	1.06200000000000e+01	0.00000000000000e+00
ITEM: ATOMS id type x y z DisplacementX DisplacementY DisplacementZ
357 1 -2.839e-04 6.313e-03 -5.985e+00 -3.756e-01 -1.549e-02 5.752e-02
358 1 3.539e+00 -3.536e+00 -2.491e+00 -4.358e-01 -4.216e-02 3.718e-02
359 1 -3.541e+00 3.545e+00 -2.490e+00 -4.836e-01 2.468e-02 1.013e-01
360 1 -3.544e+00 -3.536e+00 -2.491e+00 -4.426e-01 -3.899e-02 6.244e-02
361 1 3.540e+00 3.546e+00 -2.493e+00 -4.437e-01 -7.173e-02 -7.966e-03
362 1 1.774e+00 -3.536e+00 -4.256e+00 -4.296e-01 -5.431e-02 4.224e-02
363 1 3.538e+00 -1.768e+00 -4.255e+00 -4.171e-01 -5.249e-02 3.009e-02
364 1 -1.776e+00 -3.532e+00 -4.258e+00 -4.522e-01 -4.516e-02 6.555e-02
365 1 3.538e+00 1.782e+00 -4.258e+00 -4.060e-01 -8.515e-02 2.956e-03
366 1 -3.543e+00 1.780e+00 -4.257e+00 -4.642e-01 2.816e-02 1.058e-01
367 1 -1.775e+00 3.543e+00 -4.255e+00 -4.825e-01 1.629e-02 9.840e-02
368 1 -3.542e+00 -1.771e+00 -4.259e+00 -4.454e-01 -2.533e-02 7.580e-02
369 1 1.774e+00 3.544e+00 -4.257e+00 -4.300e-01 -7.902e-02 1.799e-02
370 1 -8.766e-04 3.620e+00 4.661e+00 -7.028e-01 3.491e-02 4.436e-02
371 1 -3.616e+00 6.047e-03 4.662e+00 -5.569e-01 -1.184e-02 5.581e-02
372 1 3.612e+00 4.782e-03 4.662e+00 -5.489e-01 7.202e-02 1.838e-04
373 1 -9.872e-04 -3.609e+00 4.661e+00 -4.359e-01 -3.453e-02 3.312e-02
374 1 5.298e+00 -1.762e+00 1.049e+00 -5.054e-01 6.750e-02 5.318e-03
375 1 1.768e+00 -5.295e+00 1.046e+00 -4.390e-01 -5.727e-02 4.393e-02
376 1 1.764e+00 5.303e+00 1.045e+00 -7.057e-01 2.375e-02 1.450e-02
377 1 -5.300e+00 -1.763e+00 1.049e+00 -4.654e-01 -1.507e-02 4.834e-02
378 1 -1.769e+00 5.303e+00 1.047e+00 -6.805e-01 -1.388e-02 6.518e-02
379 1 -5.301e+00 1.775e+00 1.048e+00 -5.108e-01 -9.440e-03 5.925e-02
380 1 5.298e+00 1.773e+00 1.049e+00 -5.536e-01 1.030e-01 -3.716e-02
381 1 -1.768e+00 -5.295e+00 1.047e+00 -4.166e-01 -7.457e-02 3.781e-02
382 1 -2.751e-04 -5.271e+00 -7.241e-01 -4.486e-01 -7.043e-02 4.635e-02
383 1 5.276e+00 4.601e-03 -7.241e-01 -5.045e-01 5.977e-02 -1.248e-02
384 1 -5.277e+00 5.137e-03 -7.235e-01 -4.564e-01 8.550e-05 5.896e-02
385 1 -1.267e-03 5.281e+00 -7.249e-01 -6.569e-01 -1.717e-02 4.770e-02
386 1 -5.277e+00 3.185e-03 2.820e+00 -5.234e-01 -1.895e-02 5.253e-02
387 1 -2.208e-03 5.281e+00 2.820e+00 -7.416e-01 2.268e-02 4.477e-02
388 1 -3.096e-03 -5.272e+00 2.820e+00 -4.095e-01 -7.017e-02 3.622e-02
389 1 5.275e+00 5.649e-03 2.821e+00 -5.397e-01 1.039e-01 -1.821e-02
390 1 -1.794e+00 1.796e+00 4.600e+00 -6.709e-01 5.924e-03 6.438e-02
391 1 1.789e+00 -1.786e+00 4.600e+00 -5.290e-01 1.436e-02 2.828e-02
392 1 1.792e+00 1.796e+00 4.601e+00 -6.718e-01 6.450e-02 1.936e-02
393 1 -1.795e+00 -1.787e+00 4.601e+00 -5.350e-01 -1.524e-02 4.667e-02
394 1 3.521e+00 -3.515e+00 1.050e+00 -5.141e-01 5.300e-03 3.714e-02
395 1 -3.522e+00 3.524e+00 1.047e+00 -6.230e-01 -1.118e-02 7.312e-02
396 1 3.518e+00 3.526e+00 1.048e+00 -6.700e-01 7.257e-02 -2.527e-02
397 1 -3.522e+00 -3.517e+00 1.048e+00 -4.697e-01 -3.943e-02 4.298e-02
398 1 3.692e-04 5.314e-03 4.540e+00 -6.621e-01 2.136e-02 4.640e-02
399 1 -3.563e+00 1.812e+00 2.811e+00 -6.831e-01 -1.245e-02 7.096e-02
400 1 -1.809e+00 3.567e+00 2.812e+00 -7.969e-01 4.890e-03 7.294e-02
401 1 -3.564e+00 -1.805e+00 2.811e+00 -5.859e-01 -1.981e-02 5.326e-02
402 1 1.807e+00 3.569e+00 2.812e+00 -8.251e-01 6.971e-02 1.296e-02
403 1 1.807e+00 -3.558e+00 2.811e+00 -5.411e-01 -2.739e-02 4.046e-02
404 1 3.560e+00 -1.803e+00 2.812e+00 -6.044e-01 5.967e-02 1.434e-02
405 1 -1.809e+00 -3.557e+00 2.813e+00 -5.207e-01 -5.135e-02 4.198e-02
406 1 3.561e+00 1.814e+00 2.812e+00 -7.092e-01 1.119e-01 -2.398e-02