ITEM: TIMESTEP
0
ITEM: NUMBER OF ATOMS
89
ITEM: BOX BOUNDS xy xz yz pp pp pp
                     0.00000000000000e+00 1.06200000000000e+01 0.00000000000000e+00
0.00000000000000e+00	1.06200000000000e+01	0.00000000000000e+00
0.00000000000000e+00	1.06200000000000e+01	0.00000000000000e+00
ITEM: ATOMS id type x y z DisplacementX DisplacementY DisplacementZ
1 1 -1.016e-03 -5.978e+00 -4.933e-04 -1.484e-02 -9.484e-03 1.137e-03
2 1 3.548e+00 -2.489e+00 3.545e+00 -1.896e-02 -2.728e-02 2.006e-02
3 1 -3.546e+00 -2.492e+00 -3.545e+00 -3.479e-03 4.687e-03 2.831e-03
4 1 -3.547e+00 -2.488e+00 3.546e+00 -2.037e-03 5.231e-03 -1.504e-03
5 1 3.547e+00 -2.491e+00 -3.546e+00 -1.966e-02 -2.666e-02 -2.062e-02
6 1 1.777e+00 -4.254e+00 3.544e+00 -1.811e-02 2.415e-02 -1.964e-02
7 1 3.544e+00 -4.254e+00 1.778e+00 -1.744e-02 -1.745e-02 3.346e-02
8 1 -1.776e+00 -4.256e+00 3.546e+00 -6.941e-03 2.479e-03 1.474e-03
9 1 3.544e+00 -4.253e+00 -1.776e+00 -1.851e-02 -1.782e-02 -3.322e-02
10 1 -3.545e+00 -4.254e+00 -1.779e+00 -3.409e-03 5.347e-03 1.346e-03
11 1 -1.778e+00 -4.256e+00 -3.545e+00 -4.522e-03 4.079e-03 -1.843e-03
12 1 -3.543e+00 -4.254e+00 1.777e+00 -4.843e-03 3.692e-03 4.872e-04
13 1 1.777e+00 -4.255e+00 -3.546e+00 -1.745e-02 2.476e-02 1.848e-02
14 1 -8.452e-05 4.667e+00 -3.619e+00 -5.799e-03 -6.971e-02 7.672e-02
15 1 -3.618e+00 4.670e+00 -1.524e-03 5.586e-02 -5.098e-02 2.948e-04
16 1 3.620e+00 4.669e+00 1.482e-03 -8.715e-02 -9.628e-02 1.832e-03
17 1 4.260e-04 4.668e+00 3.618e+00 -5.626e-03 -7.286e-02 -7.323e-02
18 1 5.302e+00 1.054e+00 1.769e+00 1.048e-02 3.617e-02 2.436e-02
19 1 1.772e+00 1.052e+00 5.302e+00 -1.271e-02 1.033e-02 6.795e-04
20 1 1.771e+00 1.052e+00 -5.301e+00 -9.203e-03 1.100e-02 -2.090e-03
21 1 -5.301e+00 1.053e+00 1.770e+00 2.304e-02 2.519e-03 -7.569e-03
22 1 -1.769e+00 1.052e+00 -5.303e+00 -1.082e-02 2.085e-02 -4.902e-03
23 1 -5.304e+00 1.054e+00 -1.770e+00 2.212e-02 3.250e-03 6.316e-03
24 1 5.303e+00 1.054e+00 -1.770e+00 1.310e-02 3.475e-02 -2.508e-02
25 1 -1.769e+00 1.051e+00 5.301e+00 -7.584e-03 2.051e-02 6.062e-03
26 1 -1.300e-03 -7.210e-01 5.281e+00 -1.343e-02 1.473e-02 2.047e-03
27 1 5.281e+00 -7.220e-01 -8.563e-05 -2.683e-02 1.450e-02 -7.468e-04
28 1 -5.280e+00 -7.224e-01 -9.507e-04 7.797e-03 1.244e-02 5.075e-04
29 1 -8.706e-04 -7.203e-01 -5.280e+00 -1.685e-02 1.405e-02 3.816e-04
30 1 -5.281e+00 2.826e+00 1.316e-03 -5.342e-03 -4.172e-03 6.941e-04
31 1 8.186e-04 2.825e+00 -5.282e+00 -4.323e-03 9.930e-03 -2.285e-02
32 1 -3.980e-04 2.829e+00 5.280e+00 -6.248e-03 8.992e-03 2.271e-02
33 1 5.280e+00 2.826e+00 6.495e-04 9.349e-02 8.511e-02 1.763e-04
34 1 -1.795e+00 4.607e+00 -1.794e+00 1.459e-02 -6.393e-03 1.227e-02
35 1 1.792e+00 4.606e+00 1.796e+00 -3.671e-02 -1.090e-02 -2.492e-02
36 1 1.796e+00 4.608e+00 -1.793e+00 -3.554e-02 -1.072e-02 2.341e-02
37 1 -1.794e+00 4.607e+00 1.793e+00 1.456e-02 -7.421e-03 -1.270e-02
38 1 3.524e+00 1.050e+00 3.525e+00 1.027e-03 5.015e-02 4.238e-02
39 1 -3.524e+00 1.053e+00 -3.524e+00 -2.541e-02 1.985e-02 -2.086e-02
40 1 3.525e+00 1.052e+00 -3.522e+00 8.738e-04 5.173e-02 -4.281e-02
41 1 -3.523e+00 1.055e+00 3.526e+00 -2.446e-02 1.894e-02 1.944e-02
42 1 -2.401e-04 4.547e+00 1.153e-03 -1.669e-02 2.619e-02 -7.076e-04
43 1 -3.565e+00 2.818e+00 -1.810e+00 1.599e-02 1.922e-02 3.254e-02
44 1 -1.809e+00 2.819e+00 -3.565e+00 2.570e-02 2.068e-02 1.904e-02
45 1 -3.566e+00 2.820e+00 1.810e+00 1.838e-02 1.923e-02 -3.125e-02
46 1 1.808e+00 2.819e+00 -3.566e+00 -5.164e-02 -1.309e-03 3.890e-02
47 1 1.811e+00 2.820e+00 3.566e+00 -5.145e-02 -1.807e-04 -4.234e-02
48 1 3.567e+00 2.819e+00 1.811e+00 -4.242e-02 3.953e-02 1.038e-03
49 1 -1.810e+00 2.820e+00 3.566e+00 2.602e-02 2.073e-02 -1.987e-02
50 1 3.566e+00 2.819e+00 -1.810e+00 -3.966e-02 4.078e-02 1.929e-03
51 1 1.768e+00 -4.219e+00 -6.495e-04 -1.079e-02 -4.294e-02 3.289e-04
52 1 3.932e-04 -4.220e+00 1.768e+00 -6.093e-03 -5.193e-02 3.942e-02
53 1 1.254e-03 -4.219e+00 -1.768e+00 -6.884e-03 -5.292e-02 -4.112e-02
54 1 -1.767e+00 -4.219e+00 2.149e-03 -8.522e-02 -1.035e-01 1.880e-03
55 1 3.618e+00 -2.563e+00 8.070e-04 5.660e-02 -1.827e-01 5.540e-04
56 1 1.849e-03 -2.564e+00 3.619e+00 -6.244e-03 4.759e-02 -5.156e-02
57 1 1.142e-03 -2.562e+00 -3.618e+00 -6.590e-03 4.730e-02 5.120e-02
58 1 -3.618e+00 -2.562e+00 1.397e-04 1.052e-01 8.766e-02 1.771e-03
59 1 -3.530e-04 2.105e+00 8.008e-04 -1.588e-01 -7.740e-01 8.363e-04
60 1 7.027e-04 -3.466e-04 2.571e-04 7.078e-01 -7.009e-01 1.214e-03
61 1 1.809e+00 -7.140e-01 3.566e+00 -5.026e-02 4.729e-03 -1.153e-02
62 1 3.565e+00 -7.128e-01 1.811e+00 1.084e-01 6.734e-03 2.263e-01
63 1 -1.812e+00 -7.122e-01 3.565e+00 -4.631e-02 7.382e-03 5.243e-02
64 1 3.566e+00 -7.142e-01 -1.810e+00 1.079e-01 6.297e-03 -2.247e-01
65 1 -3.566e+00 -7.106e-01 -1.809e+00 5.313e-02 6.341e-03 4.047e-02
66 1 -1.810e+00 -7.143e-01 -3.566e+00 -4.686e-02 5.981e-03 -5.270e-02
67 1 -3.565e+00 -7.135e-01 1.811e+00 5.295e-02 7.572e-03 -4.468e-02
68 1 1.810e+00 -7.129e-01 -3.566e+00 -5.054e-02 6.356e-03 1.116e-02
69 1 1.286e-03 -8.622e-01 2.035e+00 -1.548e-01 1.551e-01 3.077e-04
70 1 2.034e+00 -8.621e-01 2.959e-04 7.769e-01 1.497e-01 1.247e-03
71 1 -2.036e+00 -8.614e-01 7.557e-04 2.995e-01 1.566e-01 -8.041e-04
72 1 -3.631e-04 -8.622e-01 -2.036e+00 -1.565e-01 1.554e-01 -4.335e-04
73 1 -2.035e+00 2.967e+00 9.370e-04 1.761e-01 -5.288e-02 -9.695e-04
74 1 -3.697e-04 2.967e+00 -2.037e+00 -8.490e-03 -1.083e-01 2.246e-01
75 1 -3.250e-04 2.967e+00 2.036e+00 -6.185e-03 -1.056e-01 -2.252e-01
76 1 2.034e+00 2.967e+00 9.254e-04 -2.756e-01 -1.205e-01 5.270e-04
77 1 -2.494e-03 1.054e+00 -3.554e+00 -9.131e-03 4.862e-02 -1.133e-02
78 1 -3.552e+00 1.054e+00 1.377e-03 4.250e-02 1.048e-02 7.838e-05
79 1 3.555e+00 1.052e+00 2.342e-03 1.192e-01 2.750e-01 -1.218e-03
80 1 2.016e-03 1.052e+00 3.554e+00 -6.428e-03 5.041e-02 1.191e-02
81 1 1.794e+00 -2.501e+00 1.796e+00 -3.362e-02 1.184e-01 -1.184e-01
82 1 -1.796e+00 -2.503e+00 1.795e+00 -1.430e-03 2.108e-03 4.117e-04
83 1 1.795e+00 -2.500e+00 -1.794e+00 -3.541e-02 1.204e-01 1.201e-01
84 1 -1.794e+00 -2.502e+00 -1.794e+00 -1.559e-03 3.820e-03 2.148e-03
85 1 -3.906e-04 -2.440e+00 5.970e-04 -1.530e-01 -2.968e-01 -2.571e-05
86 1 1.675e+00 1.052e+00 1.674e+00 8.393e-02 -8.448e-02 -8.067e-04
87 1 -1.676e+00 1.051e+00 -1.676e+00 -1.209e-01 3.528e-02 -1.182e-01
88 1 1.675e+00 1.053e+00 -1.675e+00 8.244e-02 -8.519e-02 -1.059e-03
89 1 -1.675e+00 1.052e+00 1.675e+00 -1.194e-01 3.312e-02 1.183e-01
ITEM: TIMESTEP
0
ITEM: NUMBER OF ATOMS
89
ITEM: BOX BOUNDS xy xz yz pp pp pp
                     0.00000000000000e+00 1.06200000000000e+01 0.00000000000000e+00
0.00000000000000e+00	1.06200000000000e+01	0.00000000000000e+00
0.00000000000000e+00	1.06200000000000e+01	0.00000000000000e+00
ITEM: ATOMS id type x y z DisplacementX DisplacementY DisplacementZ
90 1 -1.265e-03 -5.977e+00 -1.340e-03 -2.810e-03 -7.693e-03 1.643e-03
91 1 3.545e+00 -2.489e+00 3.545e+00 5.794e-04 -5.053e-03 -2.404e-03
92 1 -3.545e+00 -2.489e+00 -3.545e+00 -2.716e-04 -3.853e-03 4.797e-03
93 1 -3.546e+00 -2.489e+00 3.545e+00 5.464e-04 -5.126e-03 -4.921e-03
94 1 3.545e+00 -2.489e+00 -3.545e+00 1.537e-04 -3.457e-03 4.486e-03
95 1 1.777e+00 -4.257e+00 3.544e+00 1.336e-03 5.336e-04 -4.797e-03
96 1 3.545e+00 -4.255e+00 1.779e+00 -2.014e-04 5.322e-03 -1.268e-02
97 1 -1.778e+00 -4.256e+00 3.543e+00 -3.112e-03 2.330e-03 -5.461e-03
98 1 3.545e+00 -4.255e+00 -1.777e+00 -9.865e-04 5.449e-03 1.506e-02
99 1 -3.544e+00 -4.255e+00 -1.776e+00 -1.396e-03 5.506e-03 1.624e-02
100 1 -1.779e+00 -4.255e+00 -3.543e+00 -9.429e-04 2.149e-03 6.727e-03
101 1 -3.545e+00 -4.255e+00 1.777e+00 -2.431e-04 4.327e-03 -1.490e-02
102 1 1.778e+00 -4.255e+00 -3.544e+00 1.880e-03 2.843e-03 7.490e-03
103 1 2.368e-03 4.669e+00 -3.618e+00 -3.808e-04 2.722e-03 2.635e-03
104 1 -3.619e+00 4.671e+00 -1.379e-03 9.485e-02 -9.066e-02 -1.668e-03
105 1 3.619e+00 4.666e+00 1.225e-03 -9.380e-02 -9.407e-02 -1.277e-03
106 1 -9.117e-04 4.668e+00 3.618e+00 2.749e-03 7.480e-04 -4.619e-03
107 1 5.301e+00 1.053e+00 1.770e+00 -2.079e-02 1.035e-03 3.754e-03
108 1 1.769e+00 1.053e+00 5.301e+00 -1.328e-03 -5.969e-04 -3.078e-02
109 1 1.770e+00 1.053e+00 -5.303e+00 -2.737e-03 2.148e-04 2.943e-02
110 1 -5.302e+00 1.053e+00 1.771e+00 2.171e-02 -6.876e-04 3.664e-03
111 1 -1.770e+00 1.054e+00 -5.302e+00 3.005e-03 9.943e-04 2.953e-02
112 1 -5.301e+00 1.053e+00 -1.770e+00 2.004e-02 -3.267e-04 -4.782e-03
113 1 5.302e+00 1.053e+00 -1.771e+00 -2.145e-02 1.683e-03 -4.111e-03
114 1 -1.770e+00 1.053e+00 5.303e+00 1.199e-03 9.987e-05 -3.184e-02
115 1 3.640e-04 -7.194e-01 5.279e+00 -1.947e-04 4.805e-03 -9.693e-03
116 1 5.280e+00 -7.200e-01 9.240e-04 2.407e-02 4.858e-03 2.799e-04
117 1 -5.280e+00 -7.194e-01 -2.369e-03 -2.263e-02 2.526e-03 -5.260e-04
118 1 1.102e-03 -7.237e-01 -5.278e+00 7.656e-04 6.365e-03 7.804e-03
119 1 -5.280e+00 2.826e+00 -1.304e-03 -2.166e-02 -5.017e-03 -5.642e-04
120 1 3.325e-04 2.826e+00 -5.280e+00 1.215e-03 -6.463e-03 9.605e-03
121 1 -1.887e-04 2.825e+00 5.282e+00 -1.204e-03 -6.433e-03 -9.305e-03
122 1 5.279e+00 2.826e+00 3.021e-04 2.423e-02 -4.882e-03 1.637e-03
123 1 -1.794e+00 4.607e+00 -1.795e+00 -1.783e-02 1.079e-02 2.766e-02
124 1 1.793e+00 4.608e+00 1.795e+00 1.538e-02 7.909e-03 -2.899e-02
125 1 1.793e+00 4.605e+00 -1.795e+00 1.607e-02 1.337e-02 2.783e-02
126 1 -1.794e+00 4.606e+00 1.793e+00 -1.443e-02 1.086e-02 -2.959e-02
127 1 3.524e+00 1.052e+00 3.526e+00 9.539e-02 -3.023e-03 8.931e-02
128 1 -3.526e+00 1.054e+00 -3.524e+00 -9.341e-02 9.843e-04 -9.149e-02
129 1 3.525e+00 1.052e+00 -3.524e+00 9.457e-02 -1.053e-04 -8.935e-02
130 1 -3.525e+00 1.052e+00 3.524e+00 -9.453e-02 -6.940e-04 9.079e-02
131 1 3.095e-04 4.548e+00 -2.089e-04 9.122e-04 5.870e-02 4.669e-04
132 1 -3.566e+00 2.821e+00 -1.809e+00 -4.912e-04 4.264e-02 4.343e-02
133 1 -1.809e+00 2.820e+00 -3.564e+00 1.478e-02 2.887e-02 1.303e-02
134 1 -3.566e+00 2.818e+00 1.810e+00 -7.533e-04 4.414e-02 -4.341e-02
135 1 1.810e+00 2.819e+00 -3.564e+00 -1.546e-02 3.003e-02 1.061e-02
136 1 1.811e+00 2.816e+00 3.566e+00 -1.543e-02 2.644e-02 -1.168e-02
137 1 3.567e+00 2.818e+00 1.812e+00 6.783e-04 4.446e-02 -4.525e-02
138 1 -1.810e+00 2.818e+00 3.564e+00 1.797e-02 2.615e-02 -1.224e-02
139 1 3.565e+00 2.820e+00 -1.808e+00 3.973e-04 4.459e-02 4.362e-02
140 1 1.770e+00 -4.220e+00 -2.356e-04 4.130e-03 -3.000e-02 8.554e-04
141 1 2.691e-04 -4.220e+00 1.768e+00 -1.628e-03 -7.691e-03 9.300e-03
142 1 -2.089e-04 -4.219e+00 -1.768e+00 8.872e-04 -6.361e-03 -5.581e-03
143 1 -1.768e+00 -4.219e+00 1.383e-03 -1.939e-03 -2.940e-02 7.135e-04
144 1 3.620e+00 -2.563e+00 -5.286e-04 -9.319e-02 9.079e-02 7.000e-04
145 1 3.118e-04 -2.563e+00 3.619e+00 -9.810e-05 -4.195e-03 -2.717e-03
146 1 1.491e-03 -2.562e+00 -3.618e+00 -1.578e-03 -3.262e-03 4.566e-03
147 1 -3.619e+00 -2.562e+00 -7.080e-04 9.293e-02 8.946e-02 -5.814e-04
148 1 -1.483e-03 2.106e+00 1.442e-04 -1.971e-04 -1.053e+00 -1.052e+00
149 1 3.422e-04 -1.318e-03 3.208e-05 -2.866e-06 1.050e+00 1.053e+00
150 1 1.810e+00 -7.139e-01 3.565e+00 -1.674e-02 -3.105e-02 -1.295e-02
151 1 3.567e+00 -7.132e-01 1.810e+00 -2.747e-04 -4.527e-02 -4.415e-02
152 1 -1.810e+00 -7.142e-01 3.564e+00 1.555e-02 -2.997e-02 -1.172e-02
153 1 3.565e+00 -7.131e-01 -1.808e+00 -1.093e-03 -4.204e-02 4.290e-02
154 1 -3.567e+00 -7.126e-01 -1.809e+00 -1.564e-03 -4.530e-02 4.428e-02
155 1 -1.810e+00 -7.136e-01 -3.565e+00 1.618e-02 -2.604e-02 1.054e-02
156 1 -3.566e+00 -7.121e-01 1.809e+00 9.471e-04 -4.346e-02 -4.350e-02
157 1 1.809e+00 -7.132e-01 -3.567e+00 -1.611e-02 -2.819e-02 1.092e-02
158 1 2.546e-04 -8.610e-01 2.036e+00 1.183e-04 -1.231e-01 -1.196e-01
159 1 2.035e+00 -8.628e-01 -6.072e-04 -3.595e-01 2.376e-01 -5.775e-04
160 1 -2.035e+00 -8.612e-01 -4.053e-04 3.581e-01 2.390e-01 1.959e-03
161 1 -1.014e-03 -8.599e-01 -2.036e+00 -4.603e-04 -1.198e-01 1.207e-01
162 1 -2.037e+00 2.966e+00 -1.505e-04 3.586e-01 -2.381e-01 3.645e-04
163 1 -3.192e-04 2.967e+00 -2.035e+00 -1.271e-03 1.227e-01 1.215e-01
164 1 5.930e-04 2.967e+00 2.035e+00 1.263e-03 1.195e-01 -1.222e-01
165 1 2.035e+00 2.968e+00 -7.651e-04 -3.598e-01 -2.391e-01 -1.478e-03
166 1 -8.584e-04 1.052e+00 -3.553e+00 1.528e-03 2.342e-03 6.031e-02
167 1 -3.556e+00 1.053e+00 -2.452e-04 -7.368e-04 3.456e-04 2.122e-03
168 1 3.552e+00 1.053e+00 5.717e-04 -8.868e-04 -2.690e-04 -1.472e-03
169 1 1.566e-03 1.051e+00 3.553e+00 -1.381e-04 1.723e-04 -6.102e-02
170 1 1.793e+00 -2.501e+00 1.794e+00 1.636e-02 -1.201e-02 -2.832e-02
171 1 -1.794e+00 -2.501e+00 1.794e+00 -1.625e-02 -1.291e-02 -2.716e-02
172 1 1.795e+00 -2.502e+00 -1.794e+00 1.745e-02 -1.104e-02 2.836e-02
173 1 -1.793e+00 -2.501e+00 -1.795e+00 -1.460e-02 -1.095e-02 2.789e-02
174 1 6.910e-04 -2.441e+00 4.430e-04 1.048e-03 -6.056e-02 -2.604e-04
175 1 1.676e+00 1.052e+00 1.676e+00 3.596e-01 4.710e-04 2.386e-01
176 1 -1.676e+00 1.052e+00 -1.675e+00 -3.592e-01 3.972e-04 -2.365e-01
177 1 1.676e+00 1.053e+00 -1.678e+00 3.613e-01 1.186e-03 -2.386e-01
178 1 -1.676e+00 1.053e+00 1.677e+00 -3.591e-01 -4.875e-04 2.385e-01
ITEM: TIMESTEP
0
ITEM: NUMBER OF ATOMS
89
ITEM: BOX BOUNDS xy xz yz pp pp pp
                     0.00000000000000e+00 1.06200000000000e+01 0.00000000000000e+00
0.00000000000000e+00	1.06200000000000e+01	0.00000000000000e+00
0.00000000000000e+00	1.06200000000000e+01	0.00000000000000e+00
ITEM: ATOMS id type x y z DisplacementX DisplacementY DisplacementZ
179 1 -8.464e-04 -5.979e+00 6.806e-04 3.815e-04 -9.274e-03 1.482e-03
180 1 3.546e+00 -2.489e+00 3.546e+00 -2.550e-03 -4.927e-03 1.308e-03
181 1 -3.547e+00 -2.491e+00 -3.543e+00 5.344e-03 -3.149e-03 -1.873e-03
182 1 -3.545e+00 -2.490e+00 3.547e+00 4.606e-03 -1.490e-03 1.536e-03
183 1 3.546e+00 -2.489e+00 -3.543e+00 -5.529e-03 -2.981e-03 -6.479e-04
184 1 1.778e+00 -4.254e+00 3.544e+00 -1.222e-02 5.172e-03 1.621e-03
185 1 3.543e+00 -4.256e+00 1.778e+00 -3.391e-03 2.268e-03 2.238e-03
186 1 -1.778e+00 -4.255e+00 3.544e+00 1.411e-02 4.944e-03 -1.445e-03
187 1 3.545e+00 -4.257e+00 -1.778e+00 -4.524e-03 1.240e-03 -1.689e-03
188 1 -3.545e+00 -4.255e+00 -1.779e+00 5.008e-03 8.300e-04 -1.282e-03
189 1 -1.777e+00 -4.255e+00 -3.543e+00 1.363e-02 5.999e-03 1.737e-04
190 1 -3.544e+00 -4.256e+00 1.777e+00 4.877e-03 6.865e-04 7.492e-04
191 1 1.780e+00 -4.257e+00 -3.544e+00 -1.158e-02 3.809e-03 -2.272e-04
192 1 -9.113e-04 4.668e+00 -3.619e+00 1.350e-03 -9.041e-02 9.598e-02
193 1 -3.618e+00 4.669e+00 -1.421e-03 3.054e-03 4.488e-03 -4.700e-05
194 1 3.617e+00 4.669e+00 9.080e-04 -3.269e-03 2.375e-03 -9.404e-04
195 1 7.996e-05 4.670e+00 3.617e+00 3.887e-04 -9.150e-02 -9.447e-02
196 1 5.301e+00 1.053e+00 1.771e+00 -3.207e-02 -1.305e-03 -1.618e-03
197 1 1.769e+00 1.052e+00 5.304e+00 5.033e-03 4.842e-04 -2.005e-02
198 1 1.770e+00 1.054e+00 -5.303e+00 4.502e-03 -4.073e-04 2.186e-02
199 1 -5.300e+00 1.054e+00 1.771e+00 3.232e-02 1.368e-03 -4.528e-03
200 1 -1.771e+00 1.052e+00 -5.302e+00 -3.282e-03 1.092e-04 2.068e-02
201 1 -5.301e+00 1.052e+00 -1.770e+00 3.104e-02 2.480e-03 1.090e-03
202 1 5.302e+00 1.053e+00 -1.771e+00 -3.143e-02 1.150e-03 2.714e-03
203 1 -1.770e+00 1.053e+00 5.300e+00 -3.710e-03 -2.582e-04 -1.999e-02
204 1 2.289e-03 -7.214e-01 5.279e+00 4.537e-04 2.153e-03 2.274e-02
205 1 5.279e+00 -7.214e-01 1.773e-03 -7.976e-03 5.161e-03 -9.392e-05
206 1 -5.280e+00 -7.215e-01 -3.532e-04 8.719e-03 5.606e-03 5.444e-04
207 1 -3.637e-04 -7.197e-01 -5.280e+00 -1.741e-04 5.950e-03 -2.348e-02
208 1 -5.281e+00 2.828e+00 5.793e-04 1.018e-02 -4.329e-03 -3.765e-05
209 1 5.273e-04 2.827e+00 -5.281e+00 1.192e-03 -2.328e-03 -2.305e-02
210 1 -9.235e-04 2.825e+00 5.279e+00 3.194e-04 -4.916e-03 2.355e-02
211 1 5.278e+00 2.826e+00 -8.634e-04 -9.932e-03 -7.536e-03 -4.594e-04
212 1 -1.793e+00 4.606e+00 -1.795e+00 2.864e-02 1.054e-02 -1.614e-02
213 1 1.795e+00 4.607e+00 1.795e+00 -2.978e-02 1.039e-02 1.621e-02
214 1 1.796e+00 4.606e+00 -1.795e+00 -2.785e-02 1.110e-02 -1.509e-02
215 1 -1.796e+00 4.607e+00 1.794e+00 2.908e-02 1.303e-02 1.546e-02
216 1 3.526e+00 1.053e+00 3.526e+00 9.097e-02 -5.788e-04 9.387e-02
217 1 -3.525e+00 1.052e+00 -3.522e+00 -9.079e-02 9.749e-04 -9.297e-02
218 1 3.524e+00 1.053e+00 -3.524e+00 9.213e-02 -6.821e-04 -9.374e-02
219 1 -3.525e+00 1.053e+00 3.524e+00 -8.934e-02 9.439e-04 9.347e-02
220 1 -2.444e-04 4.548e+00 5.694e-04 -2.200e-04 5.850e-02 -7.606e-04
221 1 -3.565e+00 2.818e+00 -1.810e+00 1.127e-02 2.870e-02 1.501e-02
222 1 -1.811e+00 2.818e+00 -3.566e+00 4.535e-02 4.402e-02 2.593e-04
223 1 -3.567e+00 2.817e+00 1.809e+00 1.183e-02 2.997e-02 -1.593e-02
224 1 1.809e+00 2.820e+00 -3.566e+00 -4.481e-02 4.210e-02 -2.566e-03
225 1 1.810e+00 2.818e+00 3.566e+00 -4.518e-02 4.229e-02 1.212e-03
226 1 3.564e+00 2.820e+00 1.810e+00 -1.357e-02 2.689e-02 -1.457e-02
227 1 -1.810e+00 2.819e+00 3.565e+00 4.416e-02 4.406e-02 2.816e-04
228 1 3.568e+00 2.820e+00 -1.810e+00 -1.507e-02 2.631e-02 1.627e-02
229 1 1.767e+00 -4.219e+00 -8.675e-04 6.705e-03 -7.902e-03 2.108e-04
230 1 -1.174e-03 -4.220e+00 1.768e+00 7.419e-04 -2.962e-02 2.519e-03
231 1 -2.428e-03 -4.218e+00 -1.769e+00 1.891e-03 -2.972e-02 -2.272e-03
232 1 -1.769e+00 -4.217e+00 -4.372e-05 -4.164e-03 -7.196e-03 1.645e-03
233 1 3.619e+00 -2.561e+00 5.757e-04 -3.282e-03 -3.819e-03 -6.167e-04
234 1 -7.475e-04 -2.562e+00 3.619e+00 -2.025e-03 9.107e-02 -9.405e-02
235 1 -5.786e-04 -2.563e+00 -3.617e+00 -5.795e-04 8.950e-02 9.199e-02
236 1 -3.620e+00 -2.564e+00 5.293e-04 5.307e-03 -2.584e-03 1.886e-03
237 1 -2.438e-04 2.108e+00 -2.312e-04 -1.053e+00 -1.052e+00 -5.446e-04
238 1 -4.841e-04 -1.524e-03 -2.255e-04 1.051e+00 1.051e+00 6.117e-04
239 1 1.810e+00 -7.138e-01 3.567e+00 -4.503e-02 -4.508e-02 5.768e-04
240 1 3.566e+00 -7.138e-01 1.809e+00 -1.298e-02 -3.005e-02 -1.658e-02
241 1 -1.809e+00 -7.139e-01 3.564e+00 4.465e-02 -4.144e-02 2.528e-04
242 1 3.566e+00 -7.141e-01 -1.811e+00 -1.211e-02 -2.940e-02 1.406e-02
243 1 -3.566e+00 -7.120e-01 -1.811e+00 1.386e-02 -2.618e-02 1.502e-02
244 1 -1.810e+00 -7.115e-01 -3.568e+00 4.512e-02 -4.254e-02 -6.734e-04
245 1 -3.566e+00 -7.121e-01 1.808e+00 1.358e-02 -2.663e-02 -1.617e-02
246 1 1.810e+00 -7.140e-01 -3.566e+00 -4.361e-02 -4.395e-02 -2.747e-03
247 1 5.936e-04 -8.625e-01 2.036e+00 -2.252e-04 2.378e-01 -3.576e-01
248 1 2.034e+00 -8.605e-01 -7.477e-04 -1.198e-01 -1.224e-01 -3.916e-04
249 1 -2.035e+00 -8.606e-01 5.579e-04 1.211e-01 -1.192e-01 1.234e-03
250 1 -6.359e-04 -8.622e-01 -2.035e+00 -6.258e-04 2.375e-01 3.574e-01
251 1 -2.033e+00 2.967e+00 -1.086e-03 1.187e-01 1.219e-01 4.922e-04
252 1 1.420e-03 2.966e+00 -2.035e+00 1.402e-03 -2.382e-01 3.598e-01
253 1 -3.678e-04 2.967e+00 2.035e+00 2.830e-04 -2.396e-01 -3.584e-01
254 1 2.035e+00 2.967e+00 -1.015e-03 -1.237e-01 1.192e-01 2.031e-04
255 1 -4.105e-04 1.053e+00 -3.554e+00 -5.908e-04 -1.973e-03 -1.019e-03
256 1 -3.556e+00 1.052e+00 -2.474e-03 5.983e-02 6.910e-04 1.261e-03
257 1 3.554e+00 1.053e+00 1.243e-05 -5.963e-02 -2.452e-04 -4.408e-04
258 1 -6.869e-04 1.053e+00 3.556e+00 -7.677e-05 -1.760e-03 -2.175e-04
259 1 1.793e+00 -2.502e+00 1.794e+00 -2.934e-02 -1.250e-02 1.598e-02
260 1 -1.795e+00 -2.503e+00 1.796e+00 2.956e-02 -1.143e-02 1.577e-02
261 1 1.794e+00 -2.501e+00 -1.792e+00 -2.678e-02 -1.156e-02 -1.541e-02
262 1 -1.793e+00 -2.500e+00 -1.793e+00 2.763e-02 -1.092e-02 -1.651e-02
263 1 1.132e-03 -2.440e+00 -7.392e-04 -5.542e-05 -5.943e-02 3.747e-04
264 1 1.675e+00 1.052e+00 1.677e+00 2.370e-01 6.428e-04 3.624e-01
265 1 -1.674e+00 1.052e+00 -1.675e+00 -2.384e-01 -4.342e-04 -3.593e-01
266 1 1.674e+00 1.052e+00 -1.675e+00 2.388e-01 1.875e-04 -3.617e-01
267 1 -1.674e+00 1.053e+00 1.676e+00 -2.389e-01 -2.157e-04 3.606e-01
ITEM: TIMESTEP
0
ITEM: NUMBER OF ATOMS
89
ITEM: BOX BOUNDS xy xz yz pp pp pp
                     0.00000000000000e+00 1.06200000000000e+01 0.00000000000000e+00
0.00000000000000e+00	1.06200000000000e+01	0.00000000000000e+00
0.00000000000000e+00	1.06200000000000e+01	0.00000000000000e+00
ITEM: ATOMS id type x y z DisplacementX DisplacementY DisplacementZ
268 1 8.938e-04 -5.979e+00 -3.459e-04 4.149e-05 -1.007e-02 -1.723e-03
269 1 3.544e+00 -2.488e+00 3.545e+00 -1.220e-03 -4.094e-03 -2.400e-03
270 1 -3.545e+00 -2.488e+00 -3.546e+00 1.264e-03 -4.271e-03 2.080e-03
271 1 -3.547e+00 -2.491e+00 3.545e+00 -6.558e-04 -2.169e-03 -4.977e-03
272 1 3.546e+00 -2.491e+00 -3.546e+00 6.262e-04 -4.320e-03 2.763e-03
273 1 1.779e+00 -4.256e+00 3.544e+00 3.250e-03 1.171e-03 -8.189e-03
274 1 3.545e+00 -4.257e+00 1.777e+00 -4.668e-04 5.131e-03 -1.527e-02
275 1 -1.779e+00 -4.255e+00 3.545e+00 -3.084e-03 1.606e-03 -5.985e-03
276 1 3.543e+00 -4.255e+00 -1.777e+00 -3.404e-04 3.850e-03 1.210e-02
277 1 -3.542e+00 -4.257e+00 -1.776e+00 5.120e-04 5.461e-03 1.491e-02
278 1 -1.779e+00 -4.255e+00 -3.544e+00 -3.566e-03 1.524e-03 4.940e-03
279 1 -3.544e+00 -4.257e+00 1.778e+00 5.894e-04 4.832e-03 -1.434e-02
280 1 1.777e+00 -4.254e+00 -3.546e+00 3.383e-03 1.037e-03 5.509e-03
281 1 -3.930e-04 4.668e+00 -3.619e+00 -2.926e-04 1.476e-03 4.708e-03
282 1 -3.620e+00 4.668e+00 -6.425e-04 9.397e-02 -9.023e-02 1.892e-03
283 1 3.620e+00 4.668e+00 5.934e-05 -9.461e-02 -8.940e-02 2.080e-03
284 1 -1.411e-03 4.668e+00 3.619e+00 -7.142e-05 2.056e-03 -3.218e-03
285 1 5.302e+00 1.054e+00 1.771e+00 -2.316e-02 -6.617e-04 3.315e-03
286 1 1.769e+00 1.052e+00 5.302e+00 -2.507e-03 -3.966e-04 -3.094e-02
287 1 1.771e+00 1.052e+00 -5.303e+00 -1.923e-03 4.970e-04 3.133e-02
288 1 -5.301e+00 1.052e+00 1.770e+00 1.995e-02 5.653e-04 3.739e-03
289 1 -1.771e+00 1.053e+00 -5.302e+00 3.044e-03 -8.693e-06 2.950e-02
290 1 -5.303e+00 1.053e+00 -1.771e+00 2.144e-02 -2.072e-03 -2.677e-03
291 1 5.302e+00 1.052e+00 -1.771e+00 -2.104e-02 2.512e-04 -3.888e-03
292 1 -1.771e+00 1.054e+00 5.303e+00 7.769e-04 6.713e-04 -3.028e-02
293 1 1.352e-03 -7.201e-01 5.280e+00 -1.429e-03 6.255e-03 -9.608e-03
294 1 5.280e+00 -7.215e-01 1.883e-03 2.254e-02 3.439e-03 3.165e-04
295 1 -5.281e+00 -7.216e-01 1.206e-03 -2.286e-02 3.151e-03 -4.390e-04
296 1 -6.126e-04 -7.192e-01 -5.281e+00 6.078e-04 4.606e-03 9.307e-03
297 1 -5.281e+00 2.827e+00 3.315e-04 -2.287e-02 -3.946e-03 -8.814e-04
298 1 -1.205e-03 2.828e+00 -5.280e+00 -1.031e-03 -6.858e-03 1.069e-02
299 1 3.333e-04 2.829e+00 5.280e+00 -3.163e-04 -6.620e-03 -9.584e-03
300 1 5.280e+00 2.827e+00 -1.952e-04 2.475e-02 -3.993e-03 -7.009e-04
301 1 -1.792e+00 4.605e+00 -1.794e+00 -1.438e-02 1.069e-02 3.004e-02
302 1 1.794e+00 4.607e+00 1.795e+00 1.705e-02 1.061e-02 -2.750e-02
303 1 1.794e+00 4.607e+00 -1.794e+00 1.707e-02 1.082e-02 2.859e-02
304 1 -1.794e+00 4.608e+00 1.793e+00 -1.835e-02 1.195e-02 -2.873e-02
305 1 3.525e+00 1.053e+00 3.526e+00 9.321e-02 2.921e-04 8.929e-02
306 1 -3.524e+00 1.053e+00 -3.526e+00 -9.372e-02 -1.032e-03 -8.868e-02
307 1 3.525e+00 1.053e+00 -3.526e+00 9.499e-02 3.681e-04 -9.126e-02
308 1 -3.527e+00 1.055e+00 3.525e+00 -9.519e-02 8.289e-04 9.079e-02
309 1 2.069e-04 4.547e+00 -1.363e-04 1.261e-03 6.022e-02 1.372e-03
310 1 -3.566e+00 2.819e+00 -1.811e+00 -8.844e-04 4.435e-02 4.538e-02
311 1 -1.809e+00 2.818e+00 -3.566e+00 1.484e-02 2.704e-02 1.362e-02
312 1 -3.566e+00 2.819e+00 1.810e+00 -2.297e-03 4.489e-02 -4.276e-02
313 1 1.810e+00 2.819e+00 -3.566e+00 -1.483e-02 2.756e-02 1.113e-02
314 1 1.809e+00 2.819e+00 3.566e+00 -1.645e-02 3.148e-02 -1.395e-02
315 1 3.565e+00 2.819e+00 1.810e+00 1.339e-03 4.373e-02 -4.503e-02
316 1 -1.811e+00 2.818e+00 3.567e+00 1.566e-02 2.886e-02 -1.051e-02
317 1 3.567e+00 2.818e+00 -1.809e+00 1.660e-03 4.335e-02 4.441e-02
318 1 1.766e+00 -4.218e+00 5.371e-04 3.654e-03 -2.930e-02 2.277e-04
319 1 -2.011e-04 -4.218e+00 1.769e+00 -2.443e-03 -7.571e-03 3.941e-03
320 1 -2.388e-03 -4.218e+00 -1.768e+00 -4.355e-04 -9.674e-03 -7.146e-03
321 1 -1.768e+00 -4.219e+00 1.148e-03 -3.539e-03 -2.994e-02 -4.356e-04
322 1 3.619e+00 -2.562e+00 5.052e-04 -9.342e-02 8.968e-02 3.033e-05
323 1 4.213e-04 -2.563e+00 3.618e+00 6.708e-04 -2.090e-03 -3.614e-03
324 1 -2.879e-04 -2.564e+00 -3.621e+00 3.944e-06 -2.674e-03 3.566e-03
325 1 -3.618e+00 -2.563e+00 -1.327e-04 9.457e-02 8.951e-02 -1.137e-03
326 1 -3.445e-04 2.106e+00 -1.339e-03 -5.642e-04 -1.050e+00 1.052e+00
327 1 -4.360e-04 -9.862e-04 -7.651e-04 -2.140e-04 1.051e+00 -1.053e+00
328 1 1.810e+00 -7.137e-01 3.566e+00 -1.481e-02 -2.567e-02 -1.194e-02
329 1 3.566e+00 -7.141e-01 1.809e+00 -4.321e-04 -4.393e-02 -4.470e-02
330 1 -1.809e+00 -7.136e-01 3.566e+00 1.486e-02 -2.844e-02 -1.179e-02
331 1 3.566e+00 -7.123e-01 -1.810e+00 2.042e-03 -4.612e-02 4.476e-02
332 1 -3.563e+00 -7.127e-01 -1.812e+00 6.984e-04 -4.333e-02 4.485e-02
333 1 -1.809e+00 -7.129e-01 -3.568e+00 1.453e-02 -2.822e-02 1.042e-02
334 1 -3.565e+00 -7.140e-01 1.810e+00 -3.314e-04 -4.378e-02 -4.530e-02
335 1 1.808e+00 -7.140e-01 -3.565e+00 -1.508e-02 -2.854e-02 1.160e-02
336 1 -1.318e-03 -8.608e-01 2.035e+00 -2.019e-03 -1.206e-01 -1.215e-01
337 1 2.033e+00 -8.629e-01 -4.673e-04 -3.604e-01 2.383e-01 -2.077e-04
338 1 -2.034e+00 -8.636e-01 3.076e-04 3.595e-01 2.383e-01 -5.012e-04
339 1 1.056e-03 -8.608e-01 -2.034e+00 -1.925e-03 -1.220e-01 1.203e-01
340 1 -2.036e+00 2.967e+00 -1.675e-04 3.587e-01 -2.389e-01 1.013e-03
341 1 -2.864e-03 2.967e+00 -2.034e+00 -4.270e-04 1.227e-01 1.218e-01
342 1 -1.268e-03 2.968e+00 2.036e+00 5.393e-04 1.229e-01 -1.213e-01
343 1 2.037e+00 2.968e+00 9.301e-04 -3.592e-01 -2.380e-01 1.119e-03
344 1 -1.079e-03 1.053e+00 -3.553e+00 -2.108e-04 -2.399e-03 6.026e-02
345 1 -3.554e+00 1.053e+00 1.947e-03 -6.434e-05 1.177e-03 -1.699e-04
346 1 3.553e+00 1.053e+00 -1.600e-04 1.707e-03 -2.197e-04 -1.460e-03
347 1 -9.484e-04 1.054e+00 3.554e+00 -8.030e-04 9.498e-04 -5.987e-02
348 1 1.795e+00 -2.502e+00 1.796e+00 1.619e-02 -1.194e-02 -2.939e-02
349 1 -1.795e+00 -2.501e+00 1.794e+00 -1.549e-02 -1.128e-02 -2.973e-02
350 1 1.795e+00 -2.501e+00 -1.794e+00 1.542e-02 -1.229e-02 2.814e-02
351 1 -1.793e+00 -2.501e+00 -1.794e+00 -1.646e-02 -1.201e-02 2.873e-02
352 1 4.308e-04 -2.442e+00 5.691e-04 9.150e-04 -5.818e-02 -8.438e-04
353 1 1.675e+00 1.054e+00 1.676e+00 3.616e-01 1.622e-03 2.382e-01
354 1 -1.675e+00 1.053e+00 -1.675e+00 -3.591e-01 -1.242e-03 -2.384e-01
355 1 1.676e+00 1.052e+00 -1.674e+00 3.600e-01 -1.179e-03 -2.398e-01
356 1 -1.677e+00 1.051e+00 1.676e+00 -3.614e-01 4.855e-04 2.391e-01
ITEM: TIMESTEP
0
ITEM: NUMBER OF ATOMS
89
ITEM: BOX BOUNDS xy xz yz pp pp pp
                     0.00000000000000e+00 1.06200000000000e+01 0.00000000000000e+00
0.00000000000000e+00	1.06200000000000e+01	0.00000000000000e+00
0.00000000000000e+00	1.06200000000000e+01	0.00000000000000e+00
ITEM: ATOMS id type x y z DisplacementX DisplacementY DisplacementZ
357 1 7.680e-04 -5.978e+00 -6.218e-04 8.470e-03 -2.869e-04 5.792e-05
358 1 3.546e+00 -2.491e+00 3.546e+00 -3.277e-03 2.041e-02 -1.858e-03
359 1 -3.545e+00 -2.490e+00 -3.546e+00 -2.453e-02 1.699e-02 -2.171e-02
360 1 -3.546e+00 -2.488e+00 3.544e+00 -2.337e-02 1.672e-02 1.970e-02
361 1 3.544e+00 -2.489e+00 -3.546e+00 -4.809e-03 1.948e-02 4.409e-03
362 1 1.778e+00 -4.254e+00 3.544e+00 7.327e-03 6.094e-03 -2.573e-04
363 1 3.542e+00 -4.255e+00 1.781e+00 3.213e-03 1.107e-02 2.174e-03
364 1 -1.778e+00 -4.253e+00 3.545e+00 1.916e-02 -6.501e-02 7.473e-02
365 1 3.545e+00 -4.254e+00 -1.780e+00 1.702e-03 1.273e-02 -2.363e-03
366 1 -3.543e+00 -4.254e+00 -1.779e+00 -9.511e-03 -5.163e-03 -1.579e-02
367 1 -1.780e+00 -4.256e+00 -3.544e+00 1.895e-02 -6.527e-02 -7.394e-02
368 1 -3.544e+00 -4.257e+00 1.780e+00 -9.109e-03 -4.991e-03 1.582e-02
369 1 1.777e+00 -4.255e+00 -3.545e+00 7.410e-03 5.864e-03 -1.728e-03
370 1 -9.749e-04 4.669e+00 -3.617e+00 1.896e-02 -6.937e-02 7.344e-02
371 1 -3.618e+00 4.668e+00 -7.895e-04 9.280e-02 -1.054e-01 -1.236e-04
372 1 3.621e+00 4.669e+00 1.459e-03 -5.399e-02 -5.289e-02 -9.969e-04
373 1 -6.599e-04 4.666e+00 3.618e+00 1.976e-02 -6.577e-02 -7.401e-02
374 1 5.301e+00 1.054e+00 1.772e+00 -1.614e-02 5.125e-03 -6.157e-03
375 1 1.769e+00 1.053e+00 5.303e+00 1.235e-02 4.855e-03 2.474e-03
376 1 1.770e+00 1.052e+00 -5.302e+00 1.356e-02 4.372e-03 -1.522e-03
377 1 -5.300e+00 1.053e+00 1.769e+00 -2.141e-02 6.662e-03 3.897e-02
378 1 -1.769e+00 1.052e+00 -5.299e+00 1.025e-02 1.451e-02 2.132e-02
379 1 -5.302e+00 1.053e+00 -1.770e+00 -2.192e-02 5.703e-03 -4.110e-02
380 1 5.302e+00 1.052e+00 -1.768e+00 -1.563e-02 6.377e-03 6.079e-03
381 1 -1.771e+00 1.052e+00 5.303e+00 1.107e-02 1.370e-02 -2.229e-02
382 1 -6.115e-04 -7.228e-01 5.281e+00 1.089e-02 1.670e-02 2.329e-02
383 1 5.279e+00 -7.213e-01 1.069e-03 1.877e-03 1.460e-02 3.644e-04
384 1 -5.281e+00 -7.197e-01 1.281e-03 -3.281e-02 1.392e-02 6.332e-05
385 1 -5.194e-05 -7.212e-01 -5.282e+00 1.058e-02 1.425e-02 -2.371e-02
386 1 -5.280e+00 2.826e+00 2.485e-03 -9.730e-02 8.067e-02 -1.195e-03
387 1 -3.755e-05 2.827e+00 -5.278e+00 2.137e-02 8.069e-03 -2.837e-02
388 1 7.551e-04 2.827e+00 5.281e+00 2.218e-02 5.362e-03 2.663e-02
389 1 5.279e+00 2.826e+00 1.688e-04 5.285e-03 -2.871e-03 -1.779e-03
390 1 -1.793e+00 4.605e+00 -1.796e+00 3.666e-02 -4.022e-02 2.777e-02
391 1 1.793e+00 4.607e+00 1.795e+00 -7.281e-03 -6.184e-03 -1.708e-02
392 1 1.794e+00 4.608e+00 -1.795e+00 -9.135e-03 -5.403e-03 1.660e-02
393 1 -1.794e+00 4.606e+00 1.793e+00 3.545e-02 -4.479e-02 -2.571e-02
394 1 3.525e+00 1.053e+00 3.526e+00 1.941e-02 5.140e-03 2.085e-02
395 1 -3.527e+00 1.053e+00 -3.525e+00 -4.590e-02 5.244e-03 -4.618e-02
396 1 3.525e+00 1.052e+00 -3.525e+00 1.848e-02 5.304e-03 -1.950e-02
397 1 -3.523e+00 1.052e+00 3.524e+00 -4.321e-02 5.282e-03 4.239e-02
398 1 1.239e-03 4.545e+00 -1.234e-03 1.228e-02 1.741e-02 1.214e-03
399 1 -3.566e+00 2.817e+00 -1.809e+00 1.061e-02 3.107e-02 1.590e-02
400 1 -1.809e+00 2.818e+00 -3.567e+00 5.023e-02 9.015e-02 -5.288e-02
401 1 -3.567e+00 2.820e+00 1.810e+00 1.376e-02 2.750e-02 -1.633e-02
402 1 1.810e+00 2.818e+00 -3.566e+00 -2.316e-02 1.563e-02 1.928e-02
403 1 1.811e+00 2.818e+00 3.566e+00 -2.467e-02 1.897e-02 -1.856e-02
404 1 3.566e+00 2.820e+00 1.810e+00 -1.876e-02 1.406e-02 -2.920e-02
405 1 -1.810e+00 2.818e+00 3.565e+00 5.173e-02 8.746e-02 5.345e-02
406 1 3.564e+00 2.820e+00 -1.811e+00 -1.799e-02 1.406e-02 2.996e-02
407 1 1.768e+00 -4.220e+00 4.474e-05 8.886e-02 -1.020e-01 2.252e-03
408 1 5.807e-04 -4.218e+00 1.767e+00 3.464e-02 -4.246e-02 2.473e-02
409 1 2.351e-04 -4.219e+00 -1.768e+00 3.425e-02 -4.150e-02 -2.465e-02
410 1 -1.767e+00 -4.219e+00 2.493e-04 5.383e-03 1.935e-02 6.246e-04
411 1 3.619e+00 -2.564e+00 1.110e-03 -9.792e-02 8.502e-02 1.211e-03