ITEM: TIMESTEP
0
ITEM: NUMBER OF ATOMS
89
ITEM: BOX BOUNDS xy xz yz pp pp pp
                     0.00000000000000e+00 1.06200000000000e+01 0.00000000000000e+00
0.00000000000000e+00	1.06200000000000e+01	0.00000000000000e+00
0.00000000000000e+00	1.06200000000000e+01	0.00000000000000e+00
ITEM: ATOMS id type x y z DisplacementX DisplacementY DisplacementZ
1 1 -6.270e-04 -5.978e+00 -6.961e-04 -1.504e-02 -9.044e-03 -7.540e-04
2 1 3.545e+00 -2.490e+00 3.546e+00 -1.876e-02 -2.732e-02 2.110e-02
3 1 -3.544e+00 -2.490e+00 -3.546e+00 -3.297e-03 4.949e-03 2.272e-03
4 1 -3.546e+00 -2.489e+00 3.547e+00 -4.159e-03 6.141e-03 -1.749e-03
5 1 3.547e+00 -2.490e+00 -3.547e+00 -2.120e-02 -2.686e-02 -2.068e-02
6 1 1.778e+00 -4.257e+00 3.543e+00 -2.003e-02 2.396e-02 -2.091e-02
7 1 3.543e+00 -4.257e+00 1.780e+00 -1.744e-02 -1.951e-02 3.402e-02
8 1 -1.778e+00 -4.255e+00 3.543e+00 -2.346e-03 3.389e-03 1.152e-03
9 1 3.545e+00 -4.256e+00 -1.778e+00 -1.850e-02 -1.771e-02 -3.232e-02
10 1 -3.543e+00 -4.255e+00 -1.778e+00 -2.047e-03 3.703e-03 -3.833e-04
11 1 -1.778e+00 -4.257e+00 -3.544e+00 -3.176e-03 1.746e-03 -3.721e-04
12 1 -3.543e+00 -4.256e+00 1.778e+00 -4.314e-03 4.103e-03 7.213e-04
13 1 1.777e+00 -4.256e+00 -3.545e+00 -1.874e-02 2.306e-02 2.122e-02
14 1 1.357e-03 4.668e+00 -3.619e+00 -6.381e-03 -7.212e-02 7.466e-02
15 1 -3.619e+00 4.668e+00 -4.766e-04 5.440e-02 -4.814e-02 2.649e-04
16 1 3.617e+00 4.667e+00 -1.657e-03 -8.649e-02 -9.564e-02 9.308e-04
17 1 -1.105e-03 4.669e+00 3.619e+00 -4.588e-03 -7.206e-02 -7.480e-02
18 1 5.301e+00 1.052e+00 1.769e+00 1.025e-02 3.365e-02 2.351e-02
19 1 1.770e+00 1.053e+00 5.303e+00 -1.106e-02 1.139e-02 -4.420e-04
20 1 1.769e+00 1.054e+00 -5.300e+00 -1.261e-02 1.123e-02 -1.203e-04
21 1 -5.301e+00 1.053e+00 1.770e+00 2.262e-02 4.512e-03 -7.209e-03
22 1 -1.771e+00 1.051e+00 -5.301e+00 -9.182e-03 2.270e-02 -4.776e-03
23 1 -5.301e+00 1.053e+00 -1.769e+00 2.306e-02 3.412e-03 7.120e-03
24 1 5.303e+00 1.052e+00 -1.771e+00 1.362e-02 3.479e-02 -2.175e-02
25 1 -1.772e+00 1.053e+00 5.301e+00 -1.085e-02 2.170e-02 6.437e-03
26 1 1.127e-03 -7.219e-01 5.280e+00 -1.382e-02 1.358e-02 2.344e-04
27 1 5.279e+00 -7.192e-01 1.391e-03 -2.696e-02 1.189e-02 -2.816e-04
28 1 -5.278e+00 -7.215e-01 1.277e-04 7.824e-03 1.390e-02 2.558e-04
29 1 -1.749e-03 -7.209e-01 -5.280e+00 -1.416e-02 1.594e-02 3.958e-04
30 1 -5.279e+00 2.827e+00 3.847e-05 -2.442e-03 -5.952e-03 6.250e-04
31 1 -1.341e-03 2.827e+00 -5.280e+00 -6.710e-03 1.079e-02 -2.213e-02
32 1 -2.759e-04 2.828e+00 5.281e+00 -5.506e-03 9.887e-03 2.449e-02
33 1 5.279e+00 2.828e+00 -4.976e-04 9.258e-02 8.240e-02 1.421e-04
34 1 -1.793e+00 4.608e+00 -1.796e+00 1.347e-02 -6.120e-03 1.329e-02
35 1 1.793e+00 4.607e+00 1.794e+00 -3.644e-02 -1.190e-02 -2.236e-02
36 1 1.793e+00 4.607e+00 -1.795e+00 -3.590e-02 -1.112e-02 2.482e-02
37 1 -1.794e+00 4.605e+00 1.794e+00 1.379e-02 -7.332e-03 -1.099e-02
38 1 3.524e+00 1.052e+00 3.525e+00 1.043e-03 4.965e-02 4.110e-02
39 1 -3.526e+00 1.053e+00 -3.526e+00 -2.329e-02 1.806e-02 -1.907e-02
40 1 3.525e+00 1.053e+00 -3.525e+00 9.737e-04 5.063e-02 -4.018e-02
41 1 -3.524e+00 1.053e+00 3.523e+00 -2.585e-02 2.031e-02 1.922e-02
42 1 -6.399e-04 4.547e+00 -1.709e-03 -1.530e-02 2.682e-02 6.246e-05
43 1 -3.566e+00 2.818e+00 -1.811e+00 1.599e-02 1.879e-02 3.013e-02
44 1 -1.810e+00 2.817e+00 -3.565e+00 2.627e-02 2.000e-02 1.782e-02
45 1 -3.568e+00 2.819e+00 1.811e+00 1.730e-02 1.969e-02 -3.079e-02
46 1 1.810e+00 2.819e+00 -3.567e+00 -4.967e-02 -9.399e-04 4.206e-02
47 1 1.811e+00 2.819e+00 3.567e+00 -5.119e-02 -1.779e-03 -3.928e-02
48 1 3.565e+00 2.818e+00 1.809e+00 -4.055e-02 4.148e-02 -1.114e-03
49 1 -1.810e+00 2.817e+00 3.567e+00 2.652e-02 1.901e-02 -2.017e-02
50 1 3.565e+00 2.819e+00 -1.811e+00 -4.227e-02 4.098e-02 8.097e-04
51 1 1.768e+00 -4.219e+00 -7.499e-05 -8.899e-03 -4.225e-02 -9.807e-05
52 1 -1.228e-03 -4.221e+00 1.768e+00 -6.978e-03 -5.300e-02 4.104e-02
53 1 -1.247e-03 -4.219e+00 -1.766e+00 -5.531e-03 -5.359e-02 -4.092e-02
54 1 -1.767e+00 -4.218e+00 -1.422e-03 -8.516e-02 -1.040e-01 1.335e-03
55 1 3.618e+00 -2.562e+00 5.242e-04 5.737e-02 -1.805e-01 1.984e-03
56 1 -1.375e-03 -2.562e+00 3.619e+00 -6.782e-03 4.600e-02 -5.265e-02
57 1 9.184e-04 -2.563e+00 -3.619e+00 -6.088e-03 4.751e-02 5.315e-02
58 1 -3.619e+00 -2.564e+00 -1.066e-03 1.070e-01 8.897e-02 1.340e-04
59 1 -1.804e-04 2.104e+00 -5.482e-04 -1.576e-01 -7.726e-01 1.522e-03
60 1 2.961e-04 6.256e-04 3.031e-04 7.065e-01 -7.001e-01 1.178e-03
61 1 1.810e+00 -7.135e-01 3.568e+00 -5.111e-02 6.534e-03 -1.144e-02
62 1 3.564e+00 -7.141e-01 1.810e+00 1.076e-01 7.022e-03 2.254e-01
63 1 -1.810e+00 -7.127e-01 3.564e+00 -4.663e-02 6.719e-03 5.419e-02
64 1 3.565e+00 -7.119e-01 -1.809e+00 1.075e-01 7.691e-03 -2.267e-01
65 1 -3.566e+00 -7.127e-01 -1.810e+00 5.448e-02 7.094e-03 4.319e-02
66 1 -1.809e+00 -7.119e-01 -3.566e+00 -4.763e-02 6.455e-03 -5.338e-02
67 1 -3.567e+00 -7.140e-01 1.811e+00 5.413e-02 8.868e-03 -4.324e-02
68 1 1.810e+00 -7.129e-01 -3.566e+00 -5.056e-02 7.626e-03 1.073e-02
69 1 2.230e-04 -8.637e-01 2.034e+00 -1.574e-01 1.545e-01 4.583e-04
70 1 2.035e+00 -8.624e-01 -1.664e-03 7.782e-01 1.527e-01 1.348e-03
71 1 -2.035e+00 -8.629e-01 1.220e-03 3.001e-01 1.568e-01 -1.006e-03
72 1 8.468e-06 -8.602e-01 -2.035e+00 -1.534e-01 1.543e-01 -3.638e-04
73 1 -2.035e+00 2.968e+00 -1.036e-04 1.774e-01 -5.387e-02 -2.015e-04
74 1 -4.532e-04 2.966e+00 -2.034e+00 -1.042e-02 -1.079e-01 2.238e-01
75 1 -3.134e-04 2.968e+00 2.034e+00 -8.420e-03 -1.082e-01 -2.232e-01
76 1 2.037e+00 2.967e+00 -2.147e-03 -2.769e-01 -1.206e-01 5.173e-04
77 1 -1.317e-03 1.052e+00 -3.553e+00 -8.461e-03 5.135e-02 -1.239e-02
78 1 -3.555e+00 1.053e+00 2.086e-03 4.023e-02 9.849e-03 9.951e-05
79 1 3.553e+00 1.052e+00 5.341e-04 1.169e-01 2.746e-01 1.723e-03
80 1 -3.174e-03 1.052e+00 3.554e+00 -7.306e-03 4.984e-02 1.166e-02
81 1 1.796e+00 -2.501e+00 1.797e+00 -3.293e-02 1.204e-01 -1.192e-01
82 1 -1.796e+00 -2.502e+00 1.794e+00 5.387e-04 2.440e-03 -3.344e-04
83 1 1.794e+00 -2.503e+00 -1.794e+00 -3.456e-02 1.198e-01 1.206e-01
84 1 -1.793e+00 -2.500e+00 -1.792e+00 -1.253e-03 1.235e-03 5.810e-04
85 1 -3.367e-05 -2.441e+00 -3.159e-03 -1.518e-01 -2.967e-01 -1.794e-03
86 1 1.675e+00 1.053e+00 1.674e+00 8.296e-02 -8.119e-02 3.620e-05
87 1 -1.676e+00 1.053e+00 -1.676e+00 -1.214e-01 3.493e-02 -1.202e-01
88 1 1.674e+00 1.051e+00 -1.675e+00 8.281e-02 -8.417e-02 -2.878e-04
89 1 -1.676e+00 1.054e+00 1.676e+00 -1.203e-01 3.584e-02 1.191e-01
ITEM: TIMESTEP
0
ITEM: NUMBER OF ATOMS
89
ITEM: BOX BOUNDS xy xz yz pp pp pp
                     0.00000000000000e+00 1.06200000000000e+01 0.00000000000000e+00
0.00000000000000e+00	1.06200000000000e+01	0.00000000000000e+00
0.00000000000000e+00	1.06200000000000e+01	0.00000000000000e+00
ITEM: ATOMS id type x y z DisplacementX DisplacementY DisplacementZ
90 1 -2.481e-05 -5.980e+00 3.230e-04 -9.684e-05 -9.128e-03 -1.553e-04
91 1 3.548e+00 -2.488e+00 3.546e+00 1.433e-03 -4.415e-03 -4.731e-03
92 1 -3.548e+00 -2.489e+00 -3.545e+00 4.757e-04 -2.985e-03 5.449e-03
93 1 -3.545e+00 -2.488e+00 3.547e+00 -2.908e-03 -2.855e-03 -3.144e-03
94 1 3.547e+00 -2.488e+00 -3.547e+00 -3.456e-04 -2.967e-03 4.781e-03
95 1 1.778e+00 -4.253e+00 3.545e+00 2.407e-03 2.207e-03 -6.188e-03
96 1 3.544e+00 -4.254e+00 1.780e+00 3.249e-04 5.421e-03 -1.185e-02
97 1 -1.778e+00 -4.257e+00 3.544e+00 -3.131e-03 1.616e-03 -4.718e-03
98 1 3.545e+00 -4.255e+00 -1.778e+00 -1.821e-03 5.730e-03 1.380e-02
99 1 -3.544e+00 -4.255e+00 -1.778e+00 6.975e-04 4.066e-03 1.392e-02
100 1 -1.778e+00 -4.257e+00 -3.544e+00 -1.397e-03 1.051e-03 6.145e-03
101 1 -3.544e+00 -4.254e+00 1.778e+00 5.229e-04 5.555e-03 -1.358e-02
102 1 1.779e+00 -4.256e+00 -3.543e+00 2.077e-03 3.028e-03 7.567e-03
103 1 -1.661e-04 4.668e+00 -3.618e+00 -1.230e-03 2.550e-03 2.555e-03
104 1 -3.619e+00 4.671e+00 3.485e-04 9.681e-02 -9.234e-02 -3.604e-04
105 1 3.618e+00 4.668e+00 -3.783e-04 -9.337e-02 -9.107e-02 6.636e-04
106 1 -2.183e-03 4.667e+00 3.619e+00 -5.796e-04 2.744e-03 -4.986e-03
107 1 5.300e+00 1.052e+00 1.769e+00 -2.112e-02 6.533e-04 3.758e-03
108 1 1.770e+00 1.053e+00 5.301e+00 -2.477e-03 6.145e-04 -3.165e-02
109 1 1.769e+00 1.052e+00 -5.303e+00 -2.636e-03 2.034e-04 3.129e-02
110 1 -5.303e+00 1.054e+00 1.771e+00 2.072e-02 -5.468e-04 3.264e-03
111 1 -1.769e+00 1.053e+00 -5.302e+00 5.700e-03 1.616e-03 2.936e-02
112 1 -5.302e+00 1.054e+00 -1.770e+00 2.271e-02 2.074e-03 -4.935e-03
113 1 5.303e+00 1.051e+00 -1.769e+00 -2.177e-02 -2.505e-04 -1.510e-03
114 1 -1.771e+00 1.054e+00 5.301e+00 3.489e-03 -1.718e-03 -3.026e-02
115 1 -8.696e-04 -7.211e-01 5.281e+00 2.070e-04 5.138e-03 -8.199e-03
116 1 5.280e+00 -7.204e-01 -1.799e-03 2.320e-02 4.519e-03 1.562e-03
117 1 -5.278e+00 -7.216e-01 1.195e-03 -2.327e-02 1.800e-03 4.122e-04
118 1 7.222e-04 -7.204e-01 -5.280e+00 3.987e-04 6.709e-03 8.355e-03
119 1 -5.278e+00 2.826e+00 4.292e-04 -2.354e-02 -2.299e-03 -6.067e-04
120 1 -8.457e-04 2.825e+00 -5.280e+00 5.998e-04 -4.866e-03 9.455e-03
121 1 1.263e-03 2.827e+00 5.281e+00 -5.747e-04 -6.228e-03 -9.469e-03
122 1 5.278e+00 2.826e+00 1.274e-03 2.381e-02 -2.446e-03 -2.457e-03
123 1 -1.795e+00 4.607e+00 -1.794e+00 -1.527e-02 1.158e-02 2.827e-02
124 1 1.794e+00 4.607e+00 1.796e+00 1.674e-02 1.248e-02 -2.933e-02
125 1 1.794e+00 4.608e+00 -1.793e+00 1.732e-02 1.242e-02 2.763e-02
126 1 -1.796e+00 4.608e+00 1.794e+00 -1.640e-02 1.036e-02 -3.046e-02
127 1 3.524e+00 1.052e+00 3.524e+00 9.357e-02 -1.673e-04 9.130e-02
128 1 -3.524e+00 1.051e+00 -3.524e+00 -9.351e-02 1.455e-03 -9.118e-02
129 1 3.523e+00 1.053e+00 -3.524e+00 9.427e-02 1.510e-03 -9.239e-02
130 1 -3.524e+00 1.053e+00 3.524e+00 -9.398e-02 -2.886e-03 9.187e-02
131 1 -1.373e-03 4.548e+00 7.422e-04 -8.567e-04 5.879e-02 -1.185e-03
132 1 -3.565e+00 2.820e+00 -1.811e+00 -7.897e-04 4.314e-02 4.332e-02
133 1 -1.811e+00 2.817e+00 -3.565e+00 1.394e-02 2.836e-02 1.322e-02
134 1 -3.568e+00 2.820e+00 1.808e+00 1.651e-05 4.435e-02 -4.348e-02
135 1 1.811e+00 2.819e+00 -3.565e+00 -1.615e-02 2.716e-02 1.298e-02
136 1 1.809e+00 2.819e+00 3.566e+00 -1.796e-02 2.703e-02 -1.149e-02
137 1 3.567e+00 2.819e+00 1.810e+00 4.282e-04 4.295e-02 -4.324e-02
138 1 -1.810e+00 2.819e+00 3.567e+00 1.777e-02 2.653e-02 -1.059e-02
139 1 3.568e+00 2.818e+00 -1.810e+00 -1.373e-03 4.374e-02 4.563e-02
140 1 1.766e+00 -4.219e+00 -5.887e-04 2.947e-03 -3.007e-02 1.745e-03
141 1 -5.848e-04 -4.219e+00 1.768e+00 -2.522e-03 -8.236e-03 8.519e-03
142 1 -2.549e-05 -4.217e+00 -1.767e+00 1.943e-03 -9.216e-03 -5.638e-03
143 1 -1.770e+00 -4.219e+00 -2.675e-04 -1.916e-03 -3.022e-02 1.364e-03
144 1 3.618e+00 -2.562e+00 -5.092e-04 -9.352e-02 9.202e-02 1.539e-03
145 1 1.341e-03 -2.564e+00 3.618e+00 -6.810e-05 -3.606e-03 -3.289e-03
146 1 1.325e-03 -2.563e+00 -3.618e+00 -1.448e-03 -2.810e-03 3.957e-03
147 1 -3.619e+00 -2.563e+00 3.216e-04 9.168e-02 9.283e-02 4.776e-04
148 1 -1.945e-04 2.106e+00 1.571e-03 -1.542e-04 -1.050e+00 -1.053e+00
149 1 6.228e-04 9.098e-04 1.621e-03 -1.699e-03 1.052e+00 1.054e+00
150 1 1.809e+00 -7.123e-01 3.566e+00 -1.685e-02 -2.968e-02 -1.162e-02
151 1 3.566e+00 -7.127e-01 1.810e+00 -3.623e-04 -4.508e-02 -4.385e-02
152 1 -1.811e+00 -7.147e-01 3.565e+00 1.545e-02 -2.823e-02 -1.044e-02
153 1 3.565e+00 -7.131e-01 -1.811e+00 -3.590e-04 -4.437e-02 4.505e-02
154 1 -3.566e+00 -7.117e-01 -1.811e+00 1.660e-04 -4.292e-02 4.440e-02
155 1 -1.810e+00 -7.128e-01 -3.565e+00 1.702e-02 -2.717e-02 1.293e-02
156 1 -3.565e+00 -7.128e-01 1.809e+00 1.280e-03 -4.346e-02 -4.298e-02
157 1 1.810e+00 -7.140e-01 -3.566e+00 -1.444e-02 -2.684e-02 1.394e-02
158 1 -4.389e-04 -8.608e-01 2.035e+00 -3.429e-04 -1.205e-01 -1.200e-01
159 1 2.035e+00 -8.622e-01 9.478e-04 -3.606e-01 2.390e-01 -7.311e-04
160 1 -2.034e+00 -8.619e-01 -1.503e-03 3.593e-01 2.385e-01 -5.104e-04
161 1 2.841e-04 -8.624e-01 -2.036e+00 -8.557e-04 -1.203e-01 1.224e-01
162 1 -2.035e+00 2.968e+00 1.206e-03 3.595e-01 -2.395e-01 5.259e-04
163 1 -7.111e-04 2.966e+00 -2.037e+00 -2.152e-04 1.224e-01 1.199e-01
164 1 1.114e-04 2.967e+00 2.035e+00 1.615e-03 1.189e-01 -1.245e-01
165 1 2.036e+00 2.967e+00 -2.983e-04 -3.599e-01 -2.398e-01 9.906e-04
166 1 -1.690e-03 1.051e+00 -3.554e+00 -3.378e-04 1.686e-03 5.875e-02
167 1 -3.553e+00 1.053e+00 -2.020e-05 1.069e-04 -7.712e-04 1.502e-03
168 1 3.555e+00 1.053e+00 -8.377e-04 -7.488e-06 -2.666e-04 -1.109e-03
169 1 -2.742e-04 1.051e+00 3.553e+00 -1.825e-04 -1.125e-03 -6.047e-02
170 1 1.797e+00 -2.500e+00 1.795e+00 1.672e-02 -1.384e-02 -2.777e-02
171 1 -1.793e+00 -2.502e+00 1.794e+00 -1.774e-02 -1.134e-02 -2.646e-02
172 1 1.794e+00 -2.502e+00 -1.794e+00 1.513e-02 -1.088e-02 2.885e-02
173 1 -1.793e+00 -2.503e+00 -1.793e+00 -1.479e-02 -1.062e-02 3.076e-02
174 1 -2.304e-03 -2.443e+00 -4.132e-04 7.079e-04 -5.968e-02 3.694e-05
175 1 1.676e+00 1.054e+00 1.675e+00 3.588e-01 9.753e-04 2.365e-01
176 1 -1.677e+00 1.053e+00 -1.677e+00 -3.582e-01 -2.881e-04 -2.371e-01
177 1 1.675e+00 1.051e+00 -1.676e+00 3.604e-01 1.393e-04 -2.387e-01
178 1 -1.676e+00 1.053e+00 1.677e+00 -3.617e-01 -2.146e-04 2.379e-01
ITEM: TIMESTEP
0
ITEM: NUMBER OF ATOMS
89
ITEM: BOX BOUNDS xy xz yz pp pp pp
                     0.00000000000000e+00 1.06200000000000e+01 0.00000000000000e+00
0.00000000000000e+00	1.06200000000000e+01	0.00000000000000e+00
0.00000000000000e+00	1.06200000000000e+01	0.00000000000000e+00
ITEM: ATOMS id type x y z DisplacementX DisplacementY DisplacementZ
179 1 6.977e-04 -5.979e+00 7.850e-04 6.241e-04 -6.773e-03 1.963e-03
180 1 3.546e+00 -2.489e+00 3.545e+00 -2.737e-03 -5.020e-03 1.436e-03
181 1 -3.545e+00 -2.489e+00 -3.545e+00 4.389e-03 -2.949e-03 -1.254e-03
182 1 -3.547e+00 -2.490e+00 3.544e+00 3.560e-03 -3.176e-03 1.053e-03
183 1 3.546e+00 -2.489e+00 -3.545e+00 -2.603e-03 -4.259e-03 -1.125e-03
184 1 1.778e+00 -4.255e+00 3.545e+00 -1.271e-02 4.063e-03 2.193e-04
185 1 3.544e+00 -4.255e+00 1.779e+00 -4.346e-03 2.042e-03 2.753e-03
186 1 -1.778e+00 -4.256e+00 3.544e+00 1.320e-02 6.358e-03 4.803e-04
187 1 3.544e+00 -4.255e+00 -1.776e+00 -5.073e-03 2.204e-03 -4.054e-03
188 1 -3.543e+00 -4.256e+00 -1.779e+00 5.197e-03 3.782e-03 -8.850e-04
189 1 -1.777e+00 -4.255e+00 -3.545e+00 1.566e-02 4.861e-03 -5.035e-04
190 1 -3.544e+00 -4.255e+00 1.778e+00 4.774e-03 2.590e-03 3.044e-03
191 1 1.780e+00 -4.256e+00 -3.545e+00 -1.295e-02 5.132e-03 -1.284e-03
192 1 -1.186e-03 4.668e+00 -3.619e+00 5.510e-04 -9.064e-02 9.296e-02
193 1 -3.617e+00 4.668e+00 3.142e-04 1.238e-03 4.416e-03 1.256e-03
194 1 3.618e+00 4.669e+00 1.017e-03 -4.961e-03 3.435e-03 -1.505e-04
195 1 3.304e-04 4.668e+00 3.618e+00 -1.916e-03 -9.213e-02 -9.312e-02
196 1 5.299e+00 1.053e+00 1.769e+00 -3.214e-02 -1.719e-03 -1.403e-03
197 1 1.771e+00 1.053e+00 5.302e+00 4.270e-03 2.382e-04 -2.112e-02
198 1 1.770e+00 1.051e+00 -5.301e+00 4.367e-03 -2.415e-04 2.035e-02
199 1 -5.302e+00 1.052e+00 1.771e+00 3.125e-02 1.622e-03 -2.262e-03
200 1 -1.771e+00 1.053e+00 -5.302e+00 -3.232e-03 6.339e-04 1.968e-02
201 1 -5.302e+00 1.053e+00 -1.769e+00 2.940e-02 1.938e-03 3.337e-03
202 1 5.301e+00 1.053e+00 -1.770e+00 -2.929e-02 6.639e-05 2.032e-03
203 1 -1.771e+00 1.052e+00 5.301e+00 -2.048e-03 -6.549e-05 -2.101e-02
204 1 3.255e-04 -7.212e-01 5.278e+00 5.250e-04 5.246e-03 2.297e-02
205 1 5.280e+00 -7.207e-01 -2.894e-04 -8.312e-03 6.032e-03 4.474e-04
206 1 -5.279e+00 -7.202e-01 -1.780e-04 8.833e-03 7.836e-03 5.893e-04
207 1 -2.866e-04 -7.212e-01 -5.278e+00 7.031e-04 4.824e-03 -2.382e-02
208 1 -5.281e+00 2.826e+00 -1.073e-03 9.104e-03 -5.508e-03 2.598e-03
209 1 6.924e-04 2.827e+00 -5.279e+00 -1.771e-03 -4.596e-03 -2.197e-02
210 1 5.770e-05 2.825e+00 5.280e+00 -1.838e-03 -2.381e-03 2.303e-02
211 1 5.279e+00 2.825e+00 2.685e-04 -1.016e-02 -8.149e-03 -3.745e-04
212 1 -1.794e+00 4.609e+00 -1.795e+00 2.781e-02 1.373e-02 -1.618e-02
213 1 1.795e+00 4.606e+00 1.796e+00 -2.910e-02 1.101e-02 1.642e-02
214 1 1.794e+00 4.604e+00 -1.794e+00 -2.907e-02 8.837e-03 -1.502e-02
215 1 -1.795e+00 4.604e+00 1.793e+00 2.815e-02 1.249e-02 1.790e-02
216 1 3.525e+00 1.052e+00 3.525e+00 9.012e-02 -9.766e-04 9.321e-02
217 1 -3.525e+00 1.053e+00 -3.524e+00 -9.011e-02 -6.543e-04 -9.345e-02
218 1 3.526e+00 1.053e+00 -3.524e+00 9.018e-02 8.231e-04 -9.316e-02
219 1 -3.523e+00 1.053e+00 3.524e+00 -8.998e-02 -8.290e-04 9.261e-02
220 1 1.955e-03 4.549e+00 -1.355e-03 5.596e-04 5.918e-02 -7.949e-04
221 1 -3.567e+00 2.820e+00 -1.810e+00 1.100e-02 2.862e-02 1.628e-02
222 1 -1.810e+00 2.820e+00 -3.566e+00 4.452e-02 4.508e-02 -5.103e-04
223 1 -3.565e+00 2.819e+00 1.810e+00 1.121e-02 2.945e-02 -1.318e-02
224 1 1.810e+00 2.819e+00 -3.565e+00 -4.350e-02 4.306e-02 -1.734e-03
225 1 1.810e+00 2.819e+00 3.566e+00 -4.597e-02 4.357e-02 1.041e-03
226 1 3.567e+00 2.818e+00 1.810e+00 -1.155e-02 2.624e-02 -1.633e-02
227 1 -1.808e+00 2.818e+00 3.567e+00 4.215e-02 4.505e-02 -2.035e-03
228 1 3.565e+00 2.818e+00 -1.810e+00 -1.290e-02 2.639e-02 1.524e-02
229 1 1.768e+00 -4.219e+00 1.417e-03 7.813e-03 -9.086e-03 -7.331e-04
230 1 -1.540e-03 -4.219e+00 1.768e+00 2.200e-03 -2.791e-02 3.804e-03
231 1 1.921e-05 -4.218e+00 -1.768e+00 6.142e-04 -2.921e-02 -1.913e-03
232 1 -1.768e+00 -4.219e+00 -1.162e-03 -4.710e-03 -7.372e-03 1.117e-03
233 1 3.619e+00 -2.562e+00 -5.092e-04 -3.857e-03 -2.910e-03 1.064e-03
234 1 1.000e-03 -2.564e+00 3.618e+00 -5.811e-04 9.221e-02 -9.408e-02
235 1 9.769e-04 -2.564e+00 -3.617e+00 1.424e-03 9.075e-02 9.345e-02
236 1 -3.617e+00 -2.563e+00 -3.427e-04 3.451e-03 -1.523e-03 -4.260e-04
237 1 4.586e-04 2.105e+00 2.010e-03 -1.051e+00 -1.050e+00 5.712e-04
238 1 2.259e-04 -1.708e-03 -1.106e-03 1.052e+00 1.051e+00 1.415e-03
239 1 1.810e+00 -7.139e-01 3.565e+00 -4.324e-02 -4.219e-02 2.107e-03
240 1 3.567e+00 -7.131e-01 1.810e+00 -1.174e-02 -2.826e-02 -1.429e-02
241 1 -1.811e+00 -7.141e-01 3.566e+00 4.434e-02 -4.308e-02 3.656e-06
242 1 3.565e+00 -7.118e-01 -1.811e+00 -1.215e-02 -2.799e-02 1.521e-02
243 1 -3.565e+00 -7.140e-01 -1.810e+00 1.257e-02 -2.570e-02 1.512e-02
244 1 -1.809e+00 -7.141e-01 -3.567e+00 4.396e-02 -4.373e-02 -6.543e-05
245 1 -3.566e+00 -7.143e-01 1.809e+00 1.351e-02 -2.781e-02 -1.591e-02
246 1 1.812e+00 -7.118e-01 -3.568e+00 -4.262e-02 -4.468e-02 2.957e-04
247 1 -1.215e-03 -8.611e-01 2.036e+00 -4.534e-04 2.373e-01 -3.588e-01
248 1 2.036e+00 -8.617e-01 -1.231e-03 -1.209e-01 -1.218e-01 -3.994e-04
249 1 -2.035e+00 -8.615e-01 8.341e-04 1.214e-01 -1.208e-01 7.394e-05
250 1 5.278e-04 -8.617e-01 -2.035e+00 -1.523e-03 2.390e-01 3.606e-01
251 1 -2.034e+00 2.965e+00 -7.509e-04 1.204e-01 1.218e-01 2.683e-04
252 1 2.330e-04 2.966e+00 -2.036e+00 9.001e-06 -2.375e-01 3.592e-01
253 1 7.265e-04 2.969e+00 2.036e+00 2.393e-05 -2.379e-01 -3.571e-01
254 1 2.037e+00 2.969e+00 2.106e-03 -1.224e-01 1.196e-01 1.113e-03
255 1 -1.090e-03 1.053e+00 -3.556e+00 -1.551e-03 1.962e-04 -1.031e-03
256 1 -3.554e+00 1.053e+00 5.015e-04 6.137e-02 1.102e-03 -6.064e-05
257 1 3.555e+00 1.053e+00 -1.631e-04 -6.135e-02 -1.637e-03 1.712e-04
258 1 -5.919e-04 1.051e+00 3.553e+00 9.702e-04 1.048e-04 1.247e-03
259 1 1.794e+00 -2.503e+00 1.795e+00 -2.663e-02 -1.084e-02 1.590e-02
260 1 -1.794e+00 -2.501e+00 1.794e+00 3.010e-02 -9.101e-03 1.643e-02
261 1 1.795e+00 -2.502e+00 -1.795e+00 -2.826e-02 -1.213e-02 -1.571e-02
262 1 -1.795e+00 -2.502e+00 -1.795e+00 2.976e-02 -1.269e-02 -1.729e-02
263 1 -2.533e-04 -2.442e+00 -9.033e-04 1.286e-03 -6.055e-02 1.039e-03
264 1 1.677e+00 1.051e+00 1.676e+00 2.393e-01 -1.170e-03 3.604e-01
265 1 -1.677e+00 1.054e+00 -1.674e+00 -2.378e-01 1.710e-03 -3.611e-01
266 1 1.675e+00 1.051e+00 -1.676e+00 2.388e-01 -1.956e-04 -3.602e-01
267 1 -1.677e+00 1.053e+00 1.674e+00 -2.389e-01 1.180e-03 3.603e-01
ITEM: TIMESTEP
0
ITEM: NUMBER OF ATOMS
89
ITEM: BOX BOUNDS xy xz yz pp pp pp
                     0.00000000000000e+00 1.06200000000000e+01 0.00000000000000e+00
0.00000000000000e+00	1.06200000000000e+01	0.00000000000000e+00
0.00000000000000e+00	1.06200000000000e+01	0.00000000000000e+00
ITEM: ATOMS id type x y z DisplacementX DisplacementY DisplacementZ
268 1 -1.547e-03 -5.979e+00 5.432e-04 3.231e-04 -9.708e-03 4.079e-04
269 1 3.547e+00 -2.489e+00 3.548e+00 1.018e-04 -1.341e-03 -6.643e-03
270 1 -3.548e+00 -2.490e+00 -3.548e+00 1.993e-03 -3.746e-03 3.665e-03
271 1 -3.547e+00 -2.488e+00 3.546e+00 1.244e-04 -1.929e-03 -4.027e-03
272 1 3.548e+00 -2.490e+00 -3.544e+00 6.326e-04 -2.438e-03 4.577e-03
273 1 1.776e+00 -4.254e+00 3.544e+00 2.801e-03 1.549e-03 -6.070e-03
274 1 3.543e+00 -4.257e+00 1.778e+00 -5.922e-04 5.178e-03 -1.400e-02
275 1 -1.778e+00 -4.255e+00 3.544e+00 -2.253e-03 3.850e-03 -7.077e-03
276 1 3.544e+00 -4.256e+00 -1.777e+00 -1.286e-03 4.233e-03 1.393e-02
277 1 -3.544e+00 -4.254e+00 -1.778e+00 -4.808e-04 6.127e-03 1.381e-02
278 1 -1.776e+00 -4.257e+00 -3.544e+00 -2.470e-03 3.214e-03 4.188e-03
279 1 -3.543e+00 -4.255e+00 1.779e+00 2.099e-04 5.560e-03 -1.593e-02
280 1 1.779e+00 -4.255e+00 -3.545e+00 3.388e-03 1.762e-03 3.753e-03
281 1 7.930e-04 4.667e+00 -3.617e+00 1.416e-03 1.913e-03 5.095e-03
282 1 -3.620e+00 4.668e+00 -1.486e-03 9.461e-02 -8.898e-02 1.705e-04
283 1 3.619e+00 4.667e+00 -1.124e-03 -9.306e-02 -9.264e-02 2.237e-03
284 1 1.520e-03 4.669e+00 3.619e+00 1.463e-03 4.106e-03 -1.919e-03
285 1 5.301e+00 1.053e+00 1.770e+00 -1.986e-02 8.841e-04 3.736e-03
286 1 1.769e+00 1.053e+00 5.302e+00 -3.008e-03 9.993e-04 -3.344e-02
287 1 1.770e+00 1.055e+00 -5.303e+00 -2.377e-03 -8.769e-04 3.151e-02
288 1 -5.303e+00 1.052e+00 1.770e+00 2.083e-02 -1.921e-04 4.403e-03
289 1 -1.772e+00 1.052e+00 -5.302e+00 2.349e-03 -3.461e-03 3.165e-02
290 1 -5.302e+00 1.053e+00 -1.771e+00 2.050e-02 -3.483e-05 -3.291e-03
291 1 5.303e+00 1.053e+00 -1.771e+00 -2.122e-02 -2.780e-04 -3.667e-03
292 1 -1.771e+00 1.053e+00 5.301e+00 2.345e-03 1.360e-03 -3.089e-02
293 1 -1.762e-03 -7.197e-01 5.281e+00 1.165e-03 7.368e-03 -8.367e-03
294 1 5.280e+00 -7.211e-01 -4.161e-04 2.406e-02 1.943e-03 -5.101e-04
295 1 -5.281e+00 -7.233e-01 -4.270e-04 -2.334e-02 3.341e-03 -5.201e-05
296 1 1.080e-04 -7.209e-01 -5.280e+00 -3.486e-04 5.278e-03 8.915e-03
297 1 -5.280e+00 2.826e+00 -4.362e-04 -2.347e-02 -3.375e-03 -8.042e-04
298 1 4.876e-04 2.825e+00 -5.279e+00 5.622e-04 -9.332e-03 9.747e-03
299 1 3.570e-04 2.829e+00 5.282e+00 -1.510e-03 -6.377e-03 -8.765e-03
300 1 5.279e+00 2.827e+00 -7.539e-04 2.232e-02 -1.258e-03 1.860e-03
301 1 -1.794e+00 4.608e+00 -1.794e+00 -1.604e-02 1.259e-02 2.856e-02
302 1 1.793e+00 4.608e+00 1.795e+00 1.552e-02 1.213e-02 -2.791e-02
303 1 1.797e+00 4.608e+00 -1.795e+00 1.588e-02 9.894e-03 2.937e-02
304 1 -1.793e+00 4.606e+00 1.792e+00 -1.747e-02 1.168e-02 -2.695e-02
305 1 3.525e+00 1.054e+00 3.524e+00 9.166e-02 1.780e-04 9.069e-02
306 1 -3.524e+00 1.054e+00 -3.525e+00 -9.453e-02 -9.761e-04 -9.138e-02
307 1 3.524e+00 1.053e+00 -3.524e+00 9.594e-02 -1.261e-03 -9.099e-02
308 1 -3.524e+00 1.052e+00 3.523e+00 -9.344e-02 2.911e-04 9.003e-02
309 1 1.323e-03 4.546e+00 -1.917e-03 6.599e-04 6.027e-02 -1.347e-04
310 1 -3.566e+00 2.820e+00 -1.811e+00 1.385e-03 4.287e-02 4.451e-02
311 1 -1.811e+00 2.818e+00 -3.565e+00 1.390e-02 2.825e-02 1.157e-02
312 1 -3.566e+00 2.818e+00 1.810e+00 -7.688e-04 4.365e-02 -4.584e-02
313 1 1.810e+00 2.817e+00 -3.566e+00 -1.547e-02 2.680e-02 1.195e-02
314 1 1.810e+00 2.820e+00 3.566e+00 -1.369e-02 2.654e-02 -1.041e-02
315 1 3.564e+00 2.819e+00 1.810e+00 1.575e-03 4.617e-02 -4.335e-02
316 1 -1.809e+00 2.819e+00 3.566e+00 1.588e-02 2.785e-02 -1.343e-02
317 1 3.568e+00 2.818e+00 -1.810e+00 3.932e-04 4.330e-02 4.573e-02
318 1 1.767e+00 -4.219e+00 6.221e-04 3.178e-03 -3.008e-02 6.392e-04
319 1 8.520e-04 -4.218e+00 1.766e+00 2.077e-04 -8.800e-03 3.221e-03
320 1 1.273e-03 -4.220e+00 -1.767e+00 -5.401e-05 -7.857e-03 -6.257e-03
321 1 -1.768e+00 -4.218e+00 1.817e-03 -4.145e-03 -3.216e-02 1.247e-03
322 1 3.620e+00 -2.562e+00 1.849e-03 -9.386e-02 9.238e-02 5.671e-04
323 1 -6.966e-04 -2.561e+00 3.620e+00 6.790e-05 -2.125e-03 -2.271e-03
324 1 -4.699e-04 -2.563e+00 -3.619e+00 1.108e-03 -2.650e-03 2.788e-03
325 1 -3.616e+00 -2.563e+00 1.276e-03 9.355e-02 9.072e-02 -2.703e-04
326 1 -5.200e-04 2.105e+00 -1.223e-04 -2.976e-04 -1.050e+00 1.051e+00
327 1 2.683e-04 -8.930e-04 -2.198e-04 -6.237e-04 1.052e+00 -1.054e+00
328 1 1.811e+00 -7.118e-01 3.565e+00 -1.680e-02 -2.639e-02 -1.080e-02
329 1 3.566e+00 -7.138e-01 1.809e+00 -5.059e-04 -4.358e-02 -4.387e-02
330 1 -1.811e+00 -7.135e-01 3.565e+00 1.510e-02 -2.775e-02 -1.345e-02
331 1 3.566e+00 -7.146e-01 -1.808e+00 8.218e-04 -4.520e-02 4.211e-02
332 1 -3.565e+00 -7.136e-01 -1.812e+00 -1.028e-04 -4.349e-02 4.408e-02
333 1 -1.810e+00 -7.134e-01 -3.567e+00 1.528e-02 -2.819e-02 1.218e-02
334 1 -3.566e+00 -7.127e-01 1.810e+00 -1.512e-03 -4.432e-02 -4.550e-02
335 1 1.810e+00 -7.125e-01 -3.566e+00 -1.584e-02 -2.778e-02 1.174e-02
336 1 1.095e-03 -8.620e-01 2.035e+00 1.190e-03 -1.215e-01 -1.231e-01
337 1 2.036e+00 -8.627e-01 1.080e-04 -3.595e-01 2.412e-01 6.588e-04
338 1 -2.035e+00 -8.610e-01 -3.257e-04 3.583e-01 2.372e-01 -1.762e-04
339 1 1.420e-03 -8.626e-01 -2.036e+00 -2.546e-05 -1.198e-01 1.211e-01
340 1 -2.036e+00 2.968e+00 -1.343e-04 3.607e-01 -2.398e-01 -1.103e-03
341 1 -4.504e-04 2.966e+00 -2.035e+00 -1.317e-03 1.193e-01 1.213e-01
342 1 -7.485e-05 2.968e+00 2.036e+00 7.902e-04 1.236e-01 -1.220e-01
343 1 2.037e+00 2.966e+00 1.457e-04 -3.563e-01 -2.396e-01 1.154e-03
344 1 -2.510e-03 1.053e+00 -3.553e+00 2.376e-04 -3.904e-04 6.062e-02
345 1 -3.555e+00 1.053e+00 1.564e-03 -1.184e-03 3.869e-04 -1.507e-03
346 1 3.554e+00 1.051e+00 9.477e-04 1.429e-03 -6.284e-04 -4.085e-04
347 1 -9.593e-04 1.053e+00 3.553e+00 2.292e-03 1.567e-03 -6.034e-02
348 1 1.795e+00 -2.501e+00 1.795e+00 1.599e-02 -1.021e-02 -2.802e-02
349 1 -1.796e+00 -2.500e+00 1.794e+00 -1.625e-02 -1.275e-02 -2.764e-02
350 1 1.794e+00 -2.501e+00 -1.796e+00 1.717e-02 -1.196e-02 2.914e-02
351 1 -1.794e+00 -2.502e+00 -1.793e+00 -1.505e-02 -1.154e-02 2.798e-02
352 1 1.029e-04 -2.442e+00 -1.859e-04 2.764e-03 -5.984e-02 1.619e-03
353 1 1.678e+00 1.051e+00 1.675e+00 3.595e-01 1.207e-03 2.373e-01
354 1 -1.675e+00 1.054e+00 -1.677e+00 -3.613e-01 -1.260e-03 -2.377e-01
355 1 1.677e+00 1.053e+00 -1.675e+00 3.598e-01 -1.563e-03 -2.371e-01
356 1 -1.674e+00 1.051e+00 1.676e+00 -3.589e-01 -5.380e-04 2.378e-01
ITEM: TIMESTEP
0
ITEM: NUMBER OF ATOMS
89
ITEM: BOX BOUNDS xy xz yz pp pp pp
                     0.00000000000000e+00 1.06200000000000e+01 0.00000000000000e+00
0.00000000000000e+00	1.06200000000000e+01	0.00000000000000e+00
0.00000000000000e+00	1.06200000000000e+01	0.00000000000000e+00
ITEM: ATOMS id type x y z DisplacementX DisplacementY DisplacementZ
357 1 2.521e-04 -5.979e+00 -8.257e-04 7.689e-03 1.311e-03 1.251e-03
358 1 3.547e+00 -2.491e+00 3.547e+00 -4.449e-03 1.785e-02 -6.458e-04
359 1 -3.546e+00 -2.491e+00 -3.546e+00 -2.236e-02 1.510e-02 -1.988e-02
360 1 -3.543e+00 -2.489e+00 3.548e+00 -2.331e-02 1.645e-02 1.934e-02
361 1 3.546e+00 -2.488e+00 -3.547e+00 -3.681e-03 1.860e-02 2.331e-03
362 1 1.779e+00 -4.257e+00 3.544e+00 6.040e-03 6.829e-03 2.109e-03
363 1 3.544e+00 -4.257e+00 1.778e+00 1.513e-03 1.086e-02 1.671e-03
364 1 -1.778e+00 -4.253e+00 3.545e+00 1.775e-02 -6.553e-02 7.517e-02
365 1 3.543e+00 -4.254e+00 -1.777e+00 1.958e-03 1.052e-02 -3.378e-03
366 1 -3.543e+00 -4.255e+00 -1.777e+00 -1.130e-02 -5.343e-03 -1.640e-02
367 1 -1.779e+00 -4.255e+00 -3.546e+00 1.604e-02 -6.625e-02 -7.571e-02
368 1 -3.544e+00 -4.254e+00 1.778e+00 -9.633e-03 -5.504e-03 1.514e-02
369 1 1.778e+00 -4.255e+00 -3.543e+00 7.814e-03 8.689e-03 -2.680e-03
370 1 2.718e-04 4.667e+00 -3.618e+00 1.815e-02 -6.636e-02 7.395e-02
371 1 -3.619e+00 4.667e+00 4.167e-04 9.227e-02 -1.028e-01 -1.831e-03
372 1 3.619e+00 4.667e+00 -9.067e-04 -5.413e-02 -5.331e-02 1.929e-04
373 1 1.746e-03 4.668e+00 3.618e+00 1.724e-02 -6.792e-02 -7.304e-02
374 1 5.302e+00 1.052e+00 1.770e+00 -1.528e-02 4.869e-03 -6.428e-03
375 1 1.769e+00 1.052e+00 5.302e+00 1.513e-02 5.626e-03 3.133e-03
376 1 1.769e+00 1.052e+00 -5.303e+00 1.486e-02 4.931e-03 -1.764e-03
377 1 -5.303e+00 1.052e+00 1.771e+00 -2.378e-02 5.590e-03 3.890e-02
378 1 -1.770e+00 1.052e+00 -5.301e+00 8.606e-03 1.516e-02 2.061e-02
379 1 -5.303e+00 1.053e+00 -1.769e+00 -2.305e-02 5.985e-03 -4.075e-02
380 1 5.301e+00 1.054e+00 -1.769e+00 -1.545e-02 6.554e-03 6.066e-03
381 1 -1.770e+00 1.052e+00 5.300e+00 1.162e-02 1.459e-02 -2.098e-02
382 1 -1.513e-04 -7.210e-01 5.281e+00 1.218e-02 1.414e-02 2.376e-02
383 1 5.280e+00 -7.185e-01 5.158e-04 -4.313e-04 1.597e-02 6.368e-04
384 1 -5.280e+00 -7.203e-01 6.846e-05 -3.163e-02 1.509e-02 7.046e-04
385 1 -1.673e-04 -7.200e-01 -5.283e+00 9.070e-03 1.704e-02 -2.133e-02
386 1 -5.280e+00 2.826e+00 1.161e-04 -9.569e-02 8.081e-02 -7.040e-04
387 1 -5.750e-04 2.824e+00 -5.281e+00 2.283e-02 5.964e-03 -2.673e-02
388 1 1.249e-04 2.829e+00 5.280e+00 2.030e-02 6.752e-03 2.620e-02
389 1 5.281e+00 2.826e+00 -7.878e-04 3.330e-03 -2.349e-03 -1.394e-04
390 1 -1.794e+00 4.607e+00 -1.795e+00 3.562e-02 -4.363e-02 2.597e-02
391 1 1.794e+00 4.607e+00 1.796e+00 -8.774e-03 -5.699e-03 -1.629e-02
392 1 1.795e+00 4.606e+00 -1.795e+00 -8.480e-03 -5.941e-03 1.591e-02
393 1 -1.795e+00 4.607e+00 1.794e+00 3.601e-02 -4.281e-02 -2.724e-02
394 1 3.524e+00 1.052e+00 3.524e+00 1.832e-02 5.513e-03 2.010e-02
395 1 -3.526e+00 1.052e+00 -3.524e+00 -4.430e-02 5.017e-03 -4.174e-02
396 1 3.526e+00 1.054e+00 -3.525e+00 1.911e-02 6.143e-03 -1.965e-02
397 1 -3.525e+00 1.053e+00 3.524e+00 -4.325e-02 5.246e-03 4.275e-02
398 1 2.418e-04 4.546e+00 -6.203e-06 1.033e-02 1.678e-02 4.796e-04
399 1 -3.563e+00 2.821e+00 -1.812e+00 1.240e-02 2.868e-02 1.505e-02
400 1 -1.809e+00 2.819e+00 -3.564e+00 5.065e-02 8.845e-02 -5.247e-02
401 1 -3.566e+00 2.817e+00 1.811e+00 1.358e-02 2.881e-02 -1.697e-02
402 1 1.812e+00 2.819e+00 -3.568e+00 -2.498e-02 1.671e-02 1.962e-02
403 1 1.812e+00 2.819e+00 3.565e+00 -2.386e-02 1.601e-02 -1.773e-02
404 1 3.565e+00 2.819e+00 1.810e+00 -2.065e-02 1.501e-02 -2.788e-02
405 1 -1.808e+00 2.818e+00 3.565e+00 4.989e-02 8.865e-02 5.427e-02
406 1 3.565e+00 2.820e+00 -1.809e+00 -1.850e-02 1.384e-02 3.195e-02
407 1 1.768e+00 -4.218e+00 2.104e-05 8.927e-02 -1.027e-01 -6.253e-04
408 1 -5.279e-04 -4.221e+00 1.767e+00 3.423e-02 -4.265e-02 2.581e-02
409 1 -2.462e-04 -4.217e+00 -1.770e+00 3.378e-02 -4.220e-02 -2.667e-02
410 1 -1.766e+00 -4.218e+00 -8.304e-04 5.741e-03 1.577e-02 9.031e-05
411 1 3.619e+00 -2.563e+00 1.031e-03 -9.678e-02 8.335e-02 -2.426e-03