ITEM: TIMESTEP
0
ITEM: NUMBER OF ATOMS
89
ITEM: BOX BOUNDS xy xz yz pp pp pp
                     0.00000000000000e+00 1.06200000000000e+01 0.00000000000000e+00
0.00000000000000e+00	1.06200000000000e+01	0.00000000000000e+00
0.00000000000000e+00	1.06200000000000e+01	0.00000000000000e+00
ITEM: ATOMS id type x y z DisplacementX DisplacementY DisplacementZ
1 1 -1.769e-04 -5.978e+00 1.915e-03 -1.402e-02 -6.926e-03 -1.053e-04
2 1 3.545e+00 -2.489e+00 3.545e+00 -1.918e-02 -2.756e-02 2.171e-02
3 1 -3.548e+00 -2.489e+00 -3.545e+00 -2.622e-03 4.740e-03 2.385e-03
4 1 -3.545e+00 -2.489e+00 3.546e+00 -1.394e-03 4.179e-03 -1.925e-03
5 1 3.544e+00 -2.489e+00 -3.546e+00 -2.257e-02 -2.721e-02 -2.133e-02
6 1 1.778e+00 -4.256e+00 3.543e+00 -1.910e-02 2.313e-02 -2.042e-02
7 1 3.546e+00 -4.256e+00 1.778e+00 -1.920e-02 -1.662e-02 3.373e-02
8 1 -1.779e+00 -4.255e+00 3.545e+00 -4.858e-03 2.217e-03 1.604e-03
9 1 3.543e+00 -4.255e+00 -1.777e+00 -1.954e-02 -1.836e-02 -3.242e-02
10 1 -3.544e+00 -4.255e+00 -1.778e+00 -6.741e-03 3.276e-03 5.433e-05
11 1 -1.778e+00 -4.255e+00 -3.545e+00 -4.851e-03 2.139e-03 -2.566e-03
12 1 -3.545e+00 -4.256e+00 1.779e+00 -2.907e-03 4.197e-03 -7.694e-04
13 1 1.778e+00 -4.253e+00 -3.546e+00 -1.734e-02 2.406e-02 1.767e-02
14 1 1.137e-04 4.669e+00 -3.618e+00 -3.014e-03 -7.223e-02 7.577e-02
15 1 -3.618e+00 4.669e+00 1.694e-03 5.366e-02 -4.955e-02 -5.058e-04
16 1 3.619e+00 4.668e+00 7.037e-04 -8.420e-02 -9.574e-02 5.816e-04
17 1 8.131e-04 4.667e+00 3.618e+00 -6.594e-03 -7.226e-02 -7.380e-02
18 1 5.302e+00 1.053e+00 1.768e+00 1.021e-02 3.360e-02 2.449e-02
19 1 1.771e+00 1.052e+00 5.302e+00 -1.180e-02 9.948e-03 1.497e-03
20 1 1.769e+00 1.051e+00 -5.302e+00 -1.161e-02 1.073e-02 1.304e-04
21 1 -5.305e+00 1.054e+00 1.770e+00 2.155e-02 4.753e-03 -9.639e-03
22 1 -1.770e+00 1.054e+00 -5.302e+00 -9.426e-03 2.084e-02 -4.401e-03
23 1 -5.302e+00 1.053e+00 -1.768e+00 2.291e-02 4.744e-03 7.027e-03
24 1 5.301e+00 1.051e+00 -1.771e+00 1.159e-02 3.405e-02 -2.129e-02
25 1 -1.770e+00 1.053e+00 5.301e+00 -9.903e-03 2.009e-02 5.439e-03
26 1 4.236e-04 -7.215e-01 5.279e+00 -1.289e-02 1.356e-02 -1.267e-03
27 1 5.280e+00 -7.210e-01 -1.755e-04 -2.555e-02 1.481e-02 -9.691e-04
28 1 -5.280e+00 -7.212e-01 -1.309e-03 8.174e-03 1.640e-02 -2.964e-04
29 1 -4.543e-04 -7.209e-01 -5.281e+00 -1.472e-02 1.470e-02 -8.718e-04
30 1 -5.281e+00 2.825e+00 -1.009e-03 -2.613e-03 -4.710e-03 -9.385e-05
31 1 -5.412e-04 2.826e+00 -5.279e+00 -4.747e-03 8.237e-03 -2.484e-02
32 1 -2.441e-03 2.825e+00 5.281e+00 -6.636e-03 1.185e-02 2.156e-02
33 1 5.280e+00 2.825e+00 4.665e-04 9.445e-02 8.350e-02 -3.471e-04
34 1 -1.795e+00 4.606e+00 -1.794e+00 1.427e-02 -6.559e-03 1.352e-02
35 1 1.794e+00 4.605e+00 1.796e+00 -3.343e-02 -1.309e-02 -2.427e-02
36 1 1.794e+00 4.607e+00 -1.794e+00 -3.449e-02 -1.211e-02 2.517e-02
37 1 -1.794e+00 4.607e+00 1.794e+00 1.383e-02 -5.921e-03 -1.262e-02
38 1 3.524e+00 1.054e+00 3.525e+00 1.834e-03 5.089e-02 4.188e-02
39 1 -3.527e+00 1.052e+00 -3.526e+00 -2.495e-02 2.172e-02 -2.131e-02
40 1 3.525e+00 1.053e+00 -3.525e+00 1.366e-03 5.160e-02 -4.157e-02
41 1 -3.524e+00 1.052e+00 3.524e+00 -2.375e-02 1.898e-02 2.073e-02
42 1 -8.828e-05 4.547e+00 -1.621e-03 -1.554e-02 2.587e-02 1.123e-03
43 1 -3.565e+00 2.820e+00 -1.811e+00 1.769e-02 1.865e-02 3.152e-02
44 1 -1.811e+00 2.817e+00 -3.566e+00 2.637e-02 2.310e-02 1.950e-02
45 1 -3.565e+00 2.821e+00 1.812e+00 1.654e-02 2.038e-02 -3.107e-02
46 1 1.811e+00 2.819e+00 -3.566e+00 -5.132e-02 -2.469e-03 4.022e-02
47 1 1.809e+00 2.819e+00 3.566e+00 -4.926e-02 -1.027e-03 -4.232e-02
48 1 3.566e+00 2.821e+00 1.811e+00 -3.885e-02 4.145e-02 -1.016e-03
49 1 -1.809e+00 2.821e+00 3.567e+00 2.667e-02 1.982e-02 -2.016e-02
50 1 3.567e+00 2.819e+00 -1.806e+00 -3.984e-02 3.936e-02 1.107e-03
51 1 1.767e+00 -4.217e+00 -1.463e-03 -8.352e-03 -4.257e-02 9.980e-05
52 1 1.774e-03 -4.220e+00 1.767e+00 -5.972e-03 -5.305e-02 3.988e-02
53 1 -4.482e-04 -4.219e+00 -1.770e+00 -7.172e-03 -5.095e-02 -4.230e-02
54 1 -1.767e+00 -4.219e+00 7.288e-05 -8.701e-02 -1.048e-01 7.033e-04
55 1 3.619e+00 -2.564e+00 -1.394e-04 5.657e-02 -1.818e-01 6.345e-06
56 1 4.180e-04 -2.562e+00 3.617e+00 -6.883e-03 4.486e-02 -5.555e-02
57 1 -9.260e-04 -2.563e+00 -3.619e+00 -7.689e-03 4.509e-02 5.151e-02
58 1 -3.620e+00 -2.562e+00 -3.648e-04 1.048e-01 8.904e-02 -3.713e-05
59 1 1.761e-03 2.105e+00 -6.256e-04 -1.572e-01 -7.717e-01 3.840e-04
60 1 -8.723e-04 -9.341e-05 -2.981e-04 7.071e-01 -7.016e-01 -7.769e-04
61 1 1.810e+00 -7.146e-01 3.564e+00 -5.075e-02 7.098e-03 -1.128e-02
62 1 3.566e+00 -7.146e-01 1.811e+00 1.085e-01 7.557e-03 2.273e-01
63 1 -1.811e+00 -7.142e-01 3.567e+00 -4.725e-02 7.727e-03 5.256e-02
64 1 3.563e+00 -7.133e-01 -1.809e+00 1.088e-01 5.761e-03 -2.262e-01
65 1 -3.566e+00 -7.129e-01 -1.811e+00 5.288e-02 7.258e-03 4.374e-02
66 1 -1.809e+00 -7.136e-01 -3.567e+00 -4.517e-02 7.450e-03 -5.223e-02
67 1 -3.565e+00 -7.124e-01 1.811e+00 5.461e-02 6.820e-03 -4.465e-02
68 1 1.810e+00 -7.135e-01 -3.569e+00 -5.122e-02 6.308e-03 1.165e-02
69 1 -3.668e-04 -8.627e-01 2.036e+00 -1.551e-01 1.570e-01 -7.767e-04
70 1 2.036e+00 -8.623e-01 2.293e-04 7.782e-01 1.498e-01 3.919e-04
71 1 -2.035e+00 -8.606e-01 -3.433e-04 3.001e-01 1.578e-01 2.872e-03
72 1 -6.073e-04 -8.616e-01 -2.035e+00 -1.540e-01 1.536e-01 -3.268e-03
73 1 -2.034e+00 2.969e+00 -7.436e-04 1.756e-01 -5.238e-02 -5.786e-04
74 1 1.322e-03 2.965e+00 -2.036e+00 -6.861e-03 -1.066e-01 2.267e-01
75 1 7.653e-04 2.967e+00 2.035e+00 -9.413e-03 -1.054e-01 -2.251e-01
76 1 2.036e+00 2.965e+00 -1.248e-03 -2.762e-01 -1.198e-01 3.027e-04
77 1 -4.596e-04 1.054e+00 -3.553e+00 -7.888e-03 4.949e-02 -1.402e-02
78 1 -3.553e+00 1.054e+00 3.832e-04 3.994e-02 8.074e-03 7.876e-04
79 1 3.554e+00 1.053e+00 -5.802e-04 1.194e-01 2.735e-01 1.153e-03
80 1 -4.937e-04 1.051e+00 3.555e+00 -9.444e-03 5.198e-02 1.159e-02
81 1 1.795e+00 -2.500e+00 1.794e+00 -3.354e-02 1.203e-01 -1.185e-01
82 1 -1.794e+00 -2.501e+00 1.794e+00 -1.088e-03 9.682e-05 1.688e-03
83 1 1.796e+00 -2.502e+00 -1.794e+00 -3.440e-02 1.205e-01 1.183e-01
84 1 -1.795e+00 -2.501e+00 -1.794e+00 -2.268e-04 2.743e-03 1.397e-03
85 1 2.981e-04 -2.442e+00 1.835e-03 -1.528e-01 -2.972e-01 -1.372e-03
86 1 1.675e+00 1.051e+00 1.679e+00 8.379e-02 -8.284e-02 -2.884e-04
87 1 -1.675e+00 1.053e+00 -1.676e+00 -1.188e-01 3.613e-02 -1.178e-01
88 1 1.677e+00 1.052e+00 -1.677e+00 8.175e-02 -8.265e-02 6.572e-04
89 1 -1.676e+00 1.055e+00 1.675e+00 -1.208e-01 3.634e-02 1.184e-01
ITEM: TIMESTEP
0
ITEM: NUMBER OF ATOMS
89
ITEM: BOX BOUNDS xy xz yz pp pp pp
                     0.00000000000000e+00 1.06200000000000e+01 0.00000000000000e+00
0.00000000000000e+00	1.06200000000000e+01	0.00000000000000e+00
0.00000000000000e+00	1.06200000000000e+01	0.00000000000000e+00
ITEM: ATOMS id type x y z DisplacementX DisplacementY DisplacementZ
90 1 7.402e-04 -5.979e+00 1.631e-03 -8.325e-04 -7.296e-03 2.271e-03
91 1 3.545e+00 -2.490e+00 3.546e+00 2.379e-04 -4.655e-03 -5.952e-03
92 1 -3.547e+00 -2.488e+00 -3.547e+00 -1.504e-04 -4.730e-03 4.527e-03
93 1 -3.546e+00 -2.488e+00 3.546e+00 -5.818e-04 -3.989e-03 -3.556e-03
94 1 3.546e+00 -2.489e+00 -3.545e+00 8.691e-06 -3.928e-03 5.501e-03
95 1 1.779e+00 -4.254e+00 3.545e+00 3.672e-03 1.649e-03 -5.368e-03
96 1 3.545e+00 -4.254e+00 1.777e+00 -9.694e-05 5.554e-03 -1.248e-02
97 1 -1.777e+00 -4.254e+00 3.544e+00 -1.836e-03 -4.524e-04 -4.529e-03
98 1 3.542e+00 -4.256e+00 -1.779e+00 -6.275e-04 6.582e-03 1.542e-02
99 1 -3.543e+00 -4.254e+00 -1.778e+00 -8.522e-04 5.892e-03 1.495e-02
100 1 -1.777e+00 -4.254e+00 -3.546e+00 -2.934e-03 3.639e-03 5.424e-03
101 1 -3.544e+00 -4.254e+00 1.779e+00 -9.747e-05 7.389e-03 -1.469e-02
102 1 1.778e+00 -4.256e+00 -3.544e+00 7.494e-04 3.765e-03 4.826e-03
103 1 -6.832e-04 4.669e+00 -3.619e+00 8.707e-05 3.919e-03 1.841e-03
104 1 -3.619e+00 4.668e+00 5.200e-04 9.248e-02 -9.236e-02 -3.082e-04
105 1 3.618e+00 4.669e+00 2.224e-04 -9.389e-02 -9.230e-02 -8.177e-04
106 1 3.540e-04 4.668e+00 3.618e+00 -1.329e-03 2.395e-03 -4.622e-03
107 1 5.301e+00 1.053e+00 1.770e+00 -2.112e-02 7.218e-04 4.287e-03
108 1 1.770e+00 1.053e+00 5.302e+00 -2.654e-03 -1.106e-03 -3.101e-02
109 1 1.769e+00 1.053e+00 -5.302e+00 -2.467e-03 1.468e-04 3.011e-02
110 1 -5.300e+00 1.053e+00 1.770e+00 2.128e-02 7.522e-05 5.136e-03
111 1 -1.770e+00 1.050e+00 -5.303e+00 1.808e-03 1.573e-03 3.195e-02
112 1 -5.302e+00 1.052e+00 -1.771e+00 2.128e-02 1.210e-03 -2.513e-03
113 1 5.302e+00 1.052e+00 -1.768e+00 -2.048e-02 -1.914e-04 -4.294e-03
114 1 -1.770e+00 1.052e+00 5.302e+00 2.152e-03 -1.188e-03 -3.159e-02
115 1 -4.365e-04 -7.207e-01 5.279e+00 -1.113e-03 5.576e-03 -8.299e-03
116 1 5.278e+00 -7.205e-01 3.153e-04 2.315e-02 2.981e-03 5.591e-04
117 1 -5.280e+00 -7.213e-01 1.064e-03 -2.213e-02 3.495e-03 3.240e-04
118 1 1.177e-03 -7.206e-01 -5.279e+00 1.667e-04 7.483e-03 1.010e-02
119 1 -5.278e+00 2.826e+00 2.656e-05 -2.280e-02 -4.360e-03 1.849e-03
120 1 2.077e-03 2.829e+00 -5.281e+00 -1.452e-04 -5.858e-03 8.438e-03
121 1 -2.415e-03 2.828e+00 5.279e+00 1.297e-03 -9.491e-03 -6.766e-03
122 1 5.279e+00 2.825e+00 -2.617e-04 2.222e-02 -4.769e-03 -2.262e-03
123 1 -1.796e+00 4.606e+00 -1.793e+00 -1.657e-02 1.245e-02 2.815e-02
124 1 1.794e+00 4.607e+00 1.795e+00 1.444e-02 1.009e-02 -2.927e-02
125 1 1.794e+00 4.608e+00 -1.794e+00 1.682e-02 1.145e-02 2.814e-02
126 1 -1.794e+00 4.608e+00 1.795e+00 -1.544e-02 1.099e-02 -2.895e-02
127 1 3.522e+00 1.053e+00 3.525e+00 9.409e-02 -1.843e-03 9.152e-02
128 1 -3.526e+00 1.052e+00 -3.523e+00 -9.545e-02 7.590e-04 -9.056e-02
129 1 3.524e+00 1.052e+00 -3.525e+00 9.462e-02 -7.069e-04 -9.396e-02
130 1 -3.526e+00 1.054e+00 3.524e+00 -9.395e-02 -1.628e-04 8.973e-02
131 1 -1.339e-03 4.546e+00 7.418e-04 8.741e-06 6.076e-02 -6.465e-04
132 1 -3.566e+00 2.819e+00 -1.810e+00 -6.062e-04 4.201e-02 4.357e-02
133 1 -1.810e+00 2.819e+00 -3.565e+00 1.340e-02 2.853e-02 1.122e-02
134 1 -3.565e+00 2.817e+00 1.810e+00 -1.856e-03 4.541e-02 -4.350e-02
135 1 1.810e+00 2.819e+00 -3.566e+00 -1.502e-02 2.803e-02 1.123e-02
136 1 1.811e+00 2.819e+00 3.566e+00 -1.480e-02 2.641e-02 -1.210e-02
137 1 3.566e+00 2.819e+00 1.810e+00 -1.086e-05 4.328e-02 -4.629e-02
138 1 -1.810e+00 2.819e+00 3.567e+00 1.588e-02 2.830e-02 -1.397e-02
139 1 3.565e+00 2.818e+00 -1.809e+00 6.029e-04 4.361e-02 4.368e-02
140 1 1.768e+00 -4.218e+00 -1.474e-03 3.308e-03 -3.102e-02 2.019e-03
141 1 -7.782e-04 -4.219e+00 1.767e+00 -1.858e-04 -8.645e-03 7.111e-03
142 1 8.912e-04 -4.220e+00 -1.767e+00 2.069e-04 -8.229e-03 -5.411e-03
143 1 -1.768e+00 -4.218e+00 -5.710e-04 -2.474e-03 -2.940e-02 1.506e-03
144 1 3.619e+00 -2.562e+00 -1.580e-03 -9.343e-02 9.149e-02 3.494e-04
145 1 -8.729e-04 -2.563e+00 3.617e+00 2.796e-04 -3.592e-03 1.178e-03
146 1 -1.571e-04 -2.563e+00 -3.617e+00 2.969e-03 -6.307e-04 3.066e-03
147 1 -3.619e+00 -2.562e+00 -6.069e-04 9.445e-02 9.053e-02 -8.098e-04
148 1 -1.103e-03 2.106e+00 -9.683e-04 1.059e-05 -1.052e+00 -1.053e+00
149 1 -1.218e-03 6.278e-04 -8.866e-04 -6.434e-04 1.050e+00 1.054e+00
150 1 1.810e+00 -7.143e-01 3.567e+00 -1.612e-02 -2.891e-02 -1.090e-02
151 1 3.568e+00 -7.138e-01 1.813e+00 2.807e-03 -4.287e-02 -4.283e-02
152 1 -1.811e+00 -7.127e-01 3.566e+00 1.299e-02 -2.841e-02 -1.150e-02
153 1 3.568e+00 -7.167e-01 -1.811e+00 1.101e-03 -4.415e-02 4.596e-02
154 1 -3.566e+00 -7.123e-01 -1.811e+00 -2.039e-03 -4.412e-02 4.305e-02
155 1 -1.811e+00 -7.143e-01 -3.567e+00 1.542e-02 -2.780e-02 1.236e-02
156 1 -3.564e+00 -7.136e-01 1.811e+00 8.788e-04 -4.303e-02 -4.355e-02
157 1 1.811e+00 -7.149e-01 -3.568e+00 -1.566e-02 -2.758e-02 1.138e-02
158 1 7.611e-04 -8.609e-01 2.035e+00 7.296e-04 -1.251e-01 -1.199e-01
159 1 2.036e+00 -8.624e-01 1.826e-03 -3.589e-01 2.365e-01 1.178e-03
160 1 -2.039e+00 -8.615e-01 -1.355e-03 3.579e-01 2.394e-01 5.162e-04
161 1 -9.329e-04 -8.615e-01 -2.035e+00 -9.460e-04 -1.220e-01 1.223e-01
162 1 -2.035e+00 2.966e+00 1.279e-03 3.587e-01 -2.389e-01 -1.639e-04
163 1 8.360e-04 2.966e+00 -2.035e+00 3.514e-04 1.218e-01 1.214e-01
164 1 1.776e-03 2.967e+00 2.036e+00 -2.930e-04 1.171e-01 -1.213e-01
165 1 2.035e+00 2.968e+00 -7.518e-04 -3.581e-01 -2.379e-01 1.675e-03
166 1 -4.567e-05 1.054e+00 -3.555e+00 -1.265e-06 -1.218e-03 6.070e-02
167 1 -3.554e+00 1.054e+00 1.404e-03 -2.147e-03 1.553e-03 -9.936e-05
168 1 3.554e+00 1.052e+00 7.675e-04 8.280e-04 2.751e-04 -6.547e-04
169 1 1.185e-03 1.052e+00 3.553e+00 -1.826e-03 -1.476e-03 -6.079e-02
170 1 1.794e+00 -2.501e+00 1.796e+00 1.624e-02 -1.205e-02 -2.735e-02
171 1 -1.795e+00 -2.502e+00 1.795e+00 -1.504e-02 -1.256e-02 -2.776e-02
172 1 1.794e+00 -2.500e+00 -1.793e+00 1.626e-02 -1.037e-02 2.809e-02
173 1 -1.794e+00 -2.501e+00 -1.794e+00 -1.601e-02 -1.063e-02 2.923e-02
174 1 -2.796e-04 -2.443e+00 7.026e-04 5.480e-04 -5.964e-02 -2.342e-04
175 1 1.675e+00 1.053e+00 1.676e+00 3.611e-01 -1.323e-03 2.378e-01
176 1 -1.677e+00 1.053e+00 -1.674e+00 -3.611e-01 -1.810e-03 -2.364e-01
177 1 1.676e+00 1.052e+00 -1.675e+00 3.606e-01 -1.581e-03 -2.381e-01
178 1 -1.676e+00 1.053e+00 1.676e+00 -3.615e-01 -1.349e-03 2.375e-01
ITEM: TIMESTEP
0
ITEM: NUMBER OF ATOMS
89
ITEM: BOX BOUNDS xy xz yz pp pp pp
                     0.00000000000000e+00 1.06200000000000e+01 0.00000000000000e+00
0.00000000000000e+00	1.06200000000000e+01	0.00000000000000e+00
0.00000000000000e+00	1.06200000000000e+01	0.00000000000000e+00
ITEM: ATOMS id type x y z DisplacementX DisplacementY DisplacementZ
179 1 1.155e-03 -5.980e+00 1.271e-03 7.004e-04 -9.255e-03 1.354e-03
180 1 3.546e+00 -2.488e+00 3.546e+00 -5.035e-03 -5.573e-03 5.860e-04
181 1 -3.548e+00 -2.489e+00 -3.546e+00 5.159e-03 -4.243e-03 -2.127e-04
182 1 -3.546e+00 -2.491e+00 3.546e+00 2.583e-03 -2.059e-03 -1.167e-03
183 1 3.546e+00 -2.490e+00 -3.546e+00 -4.895e-03 -6.074e-03 -1.097e-03
184 1 1.778e+00 -4.256e+00 3.545e+00 -1.259e-02 2.433e-03 1.810e-03
185 1 3.544e+00 -4.256e+00 1.778e+00 -4.163e-03 1.665e-03 2.279e-03
186 1 -1.778e+00 -4.255e+00 3.544e+00 1.526e-02 5.777e-03 -1.015e-03
187 1 3.544e+00 -4.254e+00 -1.776e+00 -4.839e-03 5.110e-04 -3.267e-03
188 1 -3.545e+00 -4.256e+00 -1.778e+00 5.806e-03 1.776e-03 -2.605e-03
189 1 -1.778e+00 -4.254e+00 -3.544e+00 1.355e-02 5.088e-03 -5.776e-04
190 1 -3.544e+00 -4.256e+00 1.778e+00 4.735e-03 1.329e-03 3.506e-03
191 1 1.776e+00 -4.257e+00 -3.544e+00 -1.526e-02 4.926e-03 -1.105e-03
192 1 -8.326e-04 4.669e+00 -3.619e+00 1.748e-03 -9.299e-02 9.313e-02
193 1 -3.618e+00 4.668e+00 4.998e-04 2.288e-03 2.476e-03 1.247e-03
194 1 3.618e+00 4.667e+00 -9.664e-04 -4.562e-03 2.420e-03 6.796e-04
195 1 -2.102e-03 4.667e+00 3.618e+00 2.719e-04 -9.050e-02 -9.355e-02
196 1 5.302e+00 1.053e+00 1.771e+00 -3.110e-02 8.071e-04 -2.266e-03
197 1 1.771e+00 1.054e+00 5.302e+00 1.840e-03 5.647e-04 -2.130e-02
198 1 1.771e+00 1.051e+00 -5.301e+00 4.106e-03 1.351e-03 2.162e-02
199 1 -5.301e+00 1.054e+00 1.770e+00 2.934e-02 -1.139e-03 -2.180e-03
200 1 -1.771e+00 1.051e+00 -5.303e+00 -2.850e-03 1.034e-03 2.144e-02
201 1 -5.302e+00 1.051e+00 -1.770e+00 3.121e-02 1.480e-03 3.022e-03
202 1 5.302e+00 1.053e+00 -1.770e+00 -3.172e-02 -2.103e-03 2.595e-03
203 1 -1.770e+00 1.054e+00 5.301e+00 -3.437e-03 -1.277e-03 -2.027e-02
204 1 -3.062e-03 -7.219e-01 5.283e+00 -4.293e-04 5.792e-03 2.444e-02
205 1 5.279e+00 -7.209e-01 3.235e-04 -8.451e-03 5.310e-03 5.438e-04
206 1 -5.281e+00 -7.219e-01 1.289e-03 9.304e-03 6.884e-03 -9.301e-04
207 1 -1.081e-03 -7.223e-01 -5.280e+00 -1.904e-04 3.967e-03 -2.194e-02
208 1 -5.281e+00 2.826e+00 1.937e-03 8.869e-03 -8.278e-03 4.519e-04
209 1 -4.892e-04 2.826e+00 -5.279e+00 4.443e-04 -4.598e-03 -2.360e-02
210 1 1.179e-04 2.828e+00 5.282e+00 4.294e-04 -4.902e-03 2.380e-02
211 1 5.279e+00 2.827e+00 -1.398e-03 -7.502e-03 -7.930e-03 -2.282e-04
212 1 -1.794e+00 4.607e+00 -1.794e+00 2.723e-02 1.190e-02 -1.532e-02
213 1 1.796e+00 4.607e+00 1.795e+00 -2.883e-02 1.217e-02 1.739e-02
214 1 1.795e+00 4.607e+00 -1.795e+00 -3.044e-02 9.937e-03 -1.702e-02
215 1 -1.792e+00 4.606e+00 1.793e+00 2.623e-02 1.219e-02 1.631e-02
216 1 3.526e+00 1.052e+00 3.525e+00 8.919e-02 9.208e-04 9.445e-02
217 1 -3.524e+00 1.052e+00 -3.525e+00 -9.003e-02 9.275e-04 -9.416e-02
218 1 3.524e+00 1.053e+00 -3.525e+00 9.178e-02 -8.417e-04 -9.262e-02
219 1 -3.524e+00 1.052e+00 3.525e+00 -9.162e-02 3.418e-04 9.475e-02
220 1 1.772e-03 4.547e+00 -2.538e-04 -1.470e-04 6.139e-02 -1.110e-03
221 1 -3.566e+00 2.819e+00 -1.810e+00 1.420e-02 3.064e-02 1.544e-02
222 1 -1.811e+00 2.820e+00 -3.564e+00 4.430e-02 4.246e-02 -6.293e-04
223 1 -3.567e+00 2.818e+00 1.809e+00 1.072e-02 2.809e-02 -1.523e-02
224 1 1.809e+00 2.819e+00 -3.564e+00 -4.425e-02 4.201e-02 -4.530e-04
225 1 1.811e+00 2.818e+00 3.566e+00 -4.469e-02 4.524e-02 1.107e-03
226 1 3.567e+00 2.817e+00 1.812e+00 -1.203e-02 2.970e-02 -1.594e-02
227 1 -1.810e+00 2.818e+00 3.565e+00 4.216e-02 4.383e-02 -1.211e-03
228 1 3.565e+00 2.819e+00 -1.809e+00 -1.140e-02 2.826e-02 1.520e-02
229 1 1.768e+00 -4.219e+00 1.087e-03 4.888e-03 -6.805e-03 1.500e-03
230 1 5.950e-04 -4.221e+00 1.768e+00 -3.838e-04 -2.964e-02 2.611e-03
231 1 -1.313e-03 -4.217e+00 -1.767e+00 -1.606e-03 -3.039e-02 -1.867e-04
232 1 -1.768e+00 -4.220e+00 7.971e-04 -4.709e-03 -8.067e-03 1.805e-04
233 1 3.618e+00 -2.564e+00 -8.584e-04 -2.873e-03 -4.002e-03 -8.883e-05
234 1 1.120e-03 -2.563e+00 3.617e+00 1.650e-03 9.179e-02 -9.193e-02
235 1 1.305e-03 -2.565e+00 -3.620e+00 9.813e-04 9.126e-02 9.365e-02
236 1 -3.619e+00 -2.564e+00 1.590e-03 5.103e-03 -3.553e-03 8.328e-04
237 1 4.292e-04 2.105e+00 1.502e-03 -1.052e+00 -1.050e+00 -5.709e-04
238 1 -1.239e-03 -7.457e-04 -4.789e-04 1.053e+00 1.049e+00 -7.107e-04
239 1 1.808e+00 -7.141e-01 3.565e+00 -4.530e-02 -4.516e-02 1.339e-03
240 1 3.567e+00 -7.141e-01 1.811e+00 -1.272e-02 -2.857e-02 -1.551e-02
241 1 -1.811e+00 -7.151e-01 3.566e+00 4.507e-02 -4.357e-02 1.864e-03
242 1 3.566e+00 -7.147e-01 -1.810e+00 -1.025e-02 -2.748e-02 1.511e-02
243 1 -3.565e+00 -7.139e-01 -1.809e+00 1.165e-02 -2.631e-02 1.572e-02
244 1 -1.809e+00 -7.132e-01 -3.566e+00 4.494e-02 -4.373e-02 -4.522e-04
245 1 -3.565e+00 -7.130e-01 1.810e+00 1.073e-02 -2.887e-02 -1.573e-02
246 1 1.809e+00 -7.136e-01 -3.566e+00 -4.311e-02 -4.459e-02 -9.641e-04
247 1 -1.034e-03 -8.621e-01 2.037e+00 -1.870e-04 2.393e-01 -3.591e-01
248 1 2.035e+00 -8.607e-01 1.830e-03 -1.193e-01 -1.237e-01 -9.732e-04
249 1 -2.036e+00 -8.614e-01 -1.238e-05 1.208e-01 -1.226e-01 -1.149e-03
250 1 9.460e-04 -8.635e-01 -2.035e+00 5.350e-04 2.386e-01 3.605e-01
251 1 -2.036e+00 2.967e+00 9.990e-04 1.219e-01 1.225e-01 -8.521e-04
252 1 -5.162e-04 2.968e+00 -2.037e+00 1.720e-04 -2.387e-01 3.595e-01
253 1 6.981e-04 2.968e+00 2.035e+00 -1.036e-04 -2.384e-01 -3.602e-01
254 1 2.037e+00 2.966e+00 -1.079e-03 -1.234e-01 1.190e-01 -2.035e-04
255 1 1.305e-04 1.051e+00 -3.554e+00 -1.114e-03 1.358e-04 -8.395e-04
256 1 -3.554e+00 1.052e+00 -1.716e-03 5.855e-02 1.560e-03 -2.923e-04
257 1 3.552e+00 1.053e+00 -2.081e-04 -6.022e-02 -1.406e-03 -2.907e-04
258 1 -1.989e-05 1.051e+00 3.555e+00 1.442e-03 4.804e-04 1.035e-03
259 1 1.795e+00 -2.502e+00 1.795e+00 -2.766e-02 -1.243e-02 1.680e-02
260 1 -1.794e+00 -2.501e+00 1.795e+00 3.026e-02 -1.150e-02 1.568e-02
261 1 1.794e+00 -2.503e+00 -1.794e+00 -2.786e-02 -1.216e-02 -1.708e-02
262 1 -1.796e+00 -2.502e+00 -1.797e+00 3.043e-02 -1.204e-02 -1.667e-02
263 1 -5.347e-04 -2.442e+00 5.450e-04 -2.245e-04 -6.031e-02 1.183e-03
264 1 1.677e+00 1.051e+00 1.677e+00 2.389e-01 -4.959e-05 3.600e-01
265 1 -1.676e+00 1.053e+00 -1.675e+00 -2.368e-01 4.982e-04 -3.598e-01
266 1 1.678e+00 1.053e+00 -1.675e+00 2.366e-01 -8.520e-04 -3.588e-01
267 1 -1.676e+00 1.052e+00 1.674e+00 -2.371e-01 1.769e-03 3.599e-01
ITEM: TIMESTEP
0
ITEM: NUMBER OF ATOMS
89
ITEM: BOX BOUNDS xy xz yz pp pp pp
                     0.00000000000000e+00 1.06200000000000e+01 0.00000000000000e+00
0.00000000000000e+00	1.06200000000000e+01	0.00000000000000e+00
0.00000000000000e+00	1.06200000000000e+01	0.00000000000000e+00
ITEM: ATOMS id type x y z DisplacementX DisplacementY DisplacementZ
268 1 2.540e-04 -5.979e+00 1.263e-03 5.891e-04 -8.368e-03 -1.003e-03
269 1 3.547e+00 -2.489e+00 3.545e+00 1.579e-03 -3.357e-03 -3.736e-03
270 1 -3.547e+00 -2.489e+00 -3.547e+00 -1.095e-03 -3.587e-03 1.784e-03
271 1 -3.546e+00 -2.489e+00 3.545e+00 4.832e-06 -3.543e-03 -6.360e-03
272 1 3.546e+00 -2.488e+00 -3.545e+00 1.186e-03 -3.940e-03 2.226e-03
273 1 1.779e+00 -4.255e+00 3.543e+00 2.058e-03 2.026e-03 -4.777e-03
274 1 3.544e+00 -4.255e+00 1.777e+00 1.634e-03 4.391e-03 -1.443e-02
275 1 -1.777e+00 -4.253e+00 3.544e+00 -3.110e-03 1.026e-03 -5.811e-03
276 1 3.543e+00 -4.255e+00 -1.778e+00 -6.317e-04 5.486e-03 1.366e-02
277 1 -3.544e+00 -4.255e+00 -1.779e+00 -1.323e-03 4.191e-03 1.276e-02
278 1 -1.779e+00 -4.256e+00 -3.544e+00 -3.738e-03 2.545e-03 3.288e-03
279 1 -3.544e+00 -4.254e+00 1.779e+00 4.969e-04 4.999e-03 -1.415e-02
280 1 1.777e+00 -4.255e+00 -3.543e+00 5.043e-03 5.226e-04 2.767e-03
281 1 8.684e-04 4.669e+00 -3.619e+00 4.704e-04 2.283e-03 1.667e-03
282 1 -3.618e+00 4.668e+00 4.185e-04 9.336e-02 -9.173e-02 -2.186e-03
283 1 3.619e+00 4.669e+00 -1.901e-04 -9.538e-02 -9.105e-02 3.663e-04
284 1 -1.153e-03 4.668e+00 3.618e+00 3.574e-04 2.655e-03 -3.468e-03
285 1 5.300e+00 1.054e+00 1.771e+00 -2.119e-02 6.748e-04 5.336e-03
286 1 1.770e+00 1.053e+00 5.302e+00 -2.438e-03 7.882e-05 -2.986e-02
287 1 1.769e+00 1.053e+00 -5.302e+00 -3.065e-03 -9.316e-04 3.202e-02
288 1 -5.301e+00 1.055e+00 1.772e+00 1.942e-02 -1.534e-03 4.024e-03
289 1 -1.770e+00 1.051e+00 -5.303e+00 3.998e-03 3.176e-04 3.051e-02
290 1 -5.302e+00 1.053e+00 -1.769e+00 2.031e-02 7.360e-04 -3.396e-03
291 1 5.300e+00 1.052e+00 -1.772e+00 -2.043e-02 1.740e-03 -3.744e-03
292 1 -1.772e+00 1.052e+00 5.303e+00 1.768e-03 2.057e-03 -3.005e-02
293 1 -1.167e-03 -7.210e-01 5.278e+00 1.546e-04 7.752e-03 -9.110e-03
294 1 5.279e+00 -7.220e-01 -2.356e-04 2.219e-02 5.070e-03 -2.233e-03
295 1 -5.281e+00 -7.204e-01 -6.276e-04 -2.313e-02 2.947e-03 -6.593e-04
296 1 2.981e-05 -7.211e-01 -5.280e+00 3.156e-05 7.970e-03 9.164e-03
297 1 -5.280e+00 2.826e+00 -1.543e-03 -2.380e-02 -3.104e-03 2.341e-04
298 1 2.084e-03 2.827e+00 -5.279e+00 -3.192e-04 -9.110e-03 9.727e-03
299 1 6.779e-04 2.826e+00 5.279e+00 -1.166e-03 -6.909e-03 -7.691e-03
300 1 5.281e+00 2.827e+00 6.174e-04 2.368e-02 -3.330e-03 9.657e-05
301 1 -1.796e+00 4.606e+00 -1.793e+00 -1.377e-02 8.866e-03 3.018e-02
302 1 1.794e+00 4.607e+00 1.795e+00 1.560e-02 1.151e-02 -2.852e-02
303 1 1.794e+00 4.605e+00 -1.794e+00 1.566e-02 1.099e-02 2.771e-02
304 1 -1.794e+00 4.607e+00 1.795e+00 -1.538e-02 1.163e-02 -2.852e-02
305 1 3.525e+00 1.052e+00 3.525e+00 9.485e-02 8.601e-04 8.892e-02
306 1 -3.525e+00 1.052e+00 -3.525e+00 -9.378e-02 -3.233e-03 -8.930e-02
307 1 3.526e+00 1.052e+00 -3.524e+00 9.436e-02 -1.108e-03 -9.071e-02
308 1 -3.525e+00 1.051e+00 3.526e+00 -9.349e-02 2.067e-05 8.980e-02
309 1 -6.507e-04 4.548e+00 -1.955e-05 -1.174e-03 5.964e-02 1.181e-03
310 1 -3.565e+00 2.818e+00 -1.810e+00 -7.548e-04 4.355e-02 4.619e-02
311 1 -1.809e+00 2.820e+00 -3.564e+00 1.594e-02 2.611e-02 1.205e-02
312 1 -3.567e+00 2.820e+00 1.810e+00 -7.032e-04 4.479e-02 -4.508e-02
313 1 1.811e+00 2.819e+00 -3.567e+00 -1.626e-02 2.592e-02 1.083e-02
314 1 1.809e+00 2.820e+00 3.566e+00 -1.618e-02 2.922e-02 -1.133e-02
315 1 3.567e+00 2.818e+00 1.810e+00 5.210e-04 4.410e-02 -4.468e-02
316 1 -1.812e+00 2.818e+00 3.565e+00 1.508e-02 2.656e-02 -1.356e-02
317 1 3.566e+00 2.818e+00 -1.809e+00 1.038e-03 4.345e-02 4.480e-02
318 1 1.767e+00 -4.219e+00 9.250e-04 3.634e-03 -3.148e-02 -9.003e-04
319 1 6.510e-04 -4.221e+00 1.766e+00 1.585e-03 -8.574e-03 6.781e-03
320 1 9.090e-04 -4.219e+00 -1.769e+00 -1.554e-03 -8.231e-03 -5.326e-03
321 1 -1.768e+00 -4.221e+00 1.694e-03 -3.753e-03 -3.006e-02 -2.323e-03
322 1 3.619e+00 -2.562e+00 1.211e-03 -9.347e-02 9.197e-02 1.741e-03
323 1 -1.516e-03 -2.561e+00 3.618e+00 2.500e-04 -1.198e-03 -2.267e-03
324 1 -1.286e-03 -2.562e+00 -3.617e+00 -1.299e-04 -3.527e-03 1.844e-03
325 1 -3.619e+00 -2.564e+00 1.212e-04 9.387e-02 9.034e-02 -2.401e-04
326 1 1.169e-04 2.106e+00 -1.231e-03 1.871e-04 -1.052e+00 1.052e+00
327 1 9.501e-04 -8.102e-04 -1.951e-03 8.767e-04 1.052e+00 -1.053e+00
328 1 1.810e+00 -7.143e-01 3.566e+00 -1.569e-02 -2.896e-02 -1.170e-02
329 1 3.565e+00 -7.125e-01 1.811e+00 1.529e-03 -4.284e-02 -4.530e-02
330 1 -1.810e+00 -7.160e-01 3.567e+00 1.460e-02 -2.624e-02 -9.791e-03
331 1 3.566e+00 -7.142e-01 -1.808e+00 -3.822e-04 -4.524e-02 4.219e-02
332 1 -3.566e+00 -7.134e-01 -1.809e+00 1.164e-03 -4.477e-02 4.515e-02
333 1 -1.809e+00 -7.131e-01 -3.564e+00 1.617e-02 -2.752e-02 1.198e-02
334 1 -3.565e+00 -7.129e-01 1.810e+00 6.091e-05 -4.214e-02 -4.443e-02
335 1 1.809e+00 -7.141e-01 -3.565e+00 -1.422e-02 -3.059e-02 1.158e-02
336 1 1.543e-03 -8.620e-01 2.034e+00 -1.789e-03 -1.197e-01 -1.230e-01
337 1 2.036e+00 -8.638e-01 6.897e-04 -3.600e-01 2.386e-01 5.166e-04
338 1 -2.034e+00 -8.612e-01 4.057e-04 3.591e-01 2.386e-01 -2.737e-03
339 1 5.226e-04 -8.630e-01 -2.037e+00 -4.561e-04 -1.214e-01 1.199e-01
340 1 -2.039e+00 2.967e+00 -3.194e-03 3.595e-01 -2.396e-01 1.908e-03
341 1 -1.240e-03 2.966e+00 -2.036e+00 2.861e-04 1.177e-01 1.208e-01
342 1 5.883e-04 2.966e+00 2.037e+00 -9.548e-05 1.223e-01 -1.195e-01
343 1 2.034e+00 2.970e+00 -4.754e-04 -3.581e-01 -2.375e-01 3.383e-04
344 1 1.987e-03 1.053e+00 -3.554e+00 7.793e-04 1.097e-03 6.036e-02
345 1 -3.553e+00 1.052e+00 -4.418e-04 -1.080e-03 1.945e-04 -1.664e-03
346 1 3.556e+00 1.053e+00 -5.581e-04 5.895e-04 -4.059e-04 -1.318e-04
347 1 -2.359e-04 1.055e+00 3.555e+00 1.269e-03 1.626e-04 -5.994e-02
348 1 1.794e+00 -2.501e+00 1.794e+00 1.507e-02 -1.137e-02 -2.860e-02
349 1 -1.795e+00 -2.501e+00 1.795e+00 -1.804e-02 -1.020e-02 -2.909e-02
350 1 1.794e+00 -2.503e+00 -1.795e+00 1.630e-02 -1.048e-02 2.901e-02
351 1 -1.794e+00 -2.502e+00 -1.796e+00 -1.865e-02 -1.260e-02 2.576e-02
352 1 5.837e-04 -2.441e+00 -3.076e-04 -2.166e-03 -5.880e-02 2.740e-04
353 1 1.676e+00 1.054e+00 1.676e+00 3.620e-01 9.000e-06 2.385e-01
354 1 -1.675e+00 1.052e+00 -1.675e+00 -3.607e-01 3.039e-04 -2.355e-01
355 1 1.676e+00 1.054e+00 -1.676e+00 3.600e-01 -8.211e-04 -2.377e-01
356 1 -1.677e+00 1.054e+00 1.675e+00 -3.608e-01 -8.578e-04 2.382e-01
ITEM: TIMESTEP
0
ITEM: NUMBER OF ATOMS
89
ITEM: BOX BOUNDS xy xz yz pp pp pp
                     0.00000000000000e+00 1.06200000000000e+01 0.00000000000000e+00
0.00000000000000e+00	1.06200000000000e+01	0.00000000000000e+00
0.00000000000000e+00	1.06200000000000e+01	0.00000000000000e+00
ITEM: ATOMS id type x y z DisplacementX DisplacementY DisplacementZ
357 1 4.627e-04 -5.979e+00 -5.982e-04 8.907e-03 7.440e-04 -7.849e-04
358 1 3.546e+00 -2.487e+00 3.547e+00 -4.328e-03 1.967e-02 -1.515e-03
359 1 -3.545e+00 -2.489e+00 -3.546e+00 -2.323e-02 1.603e-02 -1.905e-02
360 1 -3.547e+00 -2.489e+00 3.546e+00 -2.341e-02 1.775e-02 1.964e-02
361 1 3.547e+00 -2.489e+00 -3.546e+00 -3.662e-03 1.848e-02 1.575e-03
362 1 1.778e+00 -4.254e+00 3.544e+00 8.677e-03 5.843e-03 2.499e-03
363 1 3.545e+00 -4.256e+00 1.780e+00 1.021e-03 1.110e-02 1.299e-03
364 1 -1.778e+00 -4.254e+00 3.543e+00 1.836e-02 -6.643e-02 7.479e-02
365 1 3.544e+00 -4.255e+00 -1.779e+00 3.792e-03 1.026e-02 -2.076e-03
366 1 -3.543e+00 -4.256e+00 -1.776e+00 -1.149e-02 -4.582e-03 -1.694e-02
367 1 -1.778e+00 -4.256e+00 -3.545e+00 1.809e-02 -6.759e-02 -7.489e-02
368 1 -3.544e+00 -4.255e+00 1.778e+00 -1.182e-02 -5.492e-03 1.797e-02
369 1 1.777e+00 -4.256e+00 -3.544e+00 7.448e-03 7.375e-03 -3.040e-03
370 1 -1.306e-03 4.667e+00 -3.620e+00 1.868e-02 -6.744e-02 7.259e-02
371 1 -3.618e+00 4.666e+00 -3.806e-04 9.058e-02 -1.014e-01 1.310e-04
372 1 3.618e+00 4.668e+00 1.711e-03 -5.336e-02 -5.303e-02 1.873e-03
373 1 -1.946e-04 4.669e+00 3.618e+00 1.809e-02 -6.660e-02 -7.264e-02
374 1 5.305e+00 1.052e+00 1.770e+00 -1.678e-02 7.096e-03 -6.201e-03
375 1 1.770e+00 1.052e+00 5.302e+00 1.257e-02 3.960e-03 7.164e-04
376 1 1.770e+00 1.052e+00 -5.302e+00 1.413e-02 5.198e-03 -2.314e-03
377 1 -5.301e+00 1.052e+00 1.771e+00 -2.111e-02 5.849e-03 3.991e-02
378 1 -1.769e+00 1.053e+00 -5.301e+00 1.123e-02 1.392e-02 2.309e-02
379 1 -5.302e+00 1.054e+00 -1.772e+00 -2.272e-02 6.180e-03 -3.859e-02
380 1 5.303e+00 1.053e+00 -1.772e+00 -1.451e-02 6.621e-03 5.819e-03
381 1 -1.769e+00 1.053e+00 5.303e+00 1.178e-02 1.409e-02 -2.257e-02
382 1 5.499e-04 -7.212e-01 5.280e+00 9.729e-03 1.514e-02 2.363e-02
383 1 5.280e+00 -7.204e-01 1.529e-03 2.752e-04 1.612e-02 1.213e-03
384 1 -5.282e+00 -7.198e-01 2.279e-04 -3.234e-02 1.299e-02 6.304e-04
385 1 -4.154e-04 -7.224e-01 -5.280e+00 9.741e-03 1.444e-02 -2.291e-02
386 1 -5.281e+00 2.827e+00 -2.430e-04 -9.636e-02 7.943e-02 1.601e-04
387 1 -8.133e-04 2.827e+00 -5.280e+00 2.052e-02 5.309e-03 -2.670e-02
388 1 2.045e-03 2.827e+00 5.281e+00 2.032e-02 5.666e-03 2.681e-02
389 1 5.278e+00 2.826e+00 -2.844e-03 6.214e-03 -3.907e-03 -1.585e-04
390 1 -1.795e+00 4.607e+00 -1.794e+00 3.636e-02 -4.283e-02 2.675e-02
391 1 1.795e+00 4.607e+00 1.794e+00 -9.119e-03 -6.964e-03 -1.642e-02
392 1 1.795e+00 4.607e+00 -1.793e+00 -1.009e-02 -6.812e-03 1.500e-02
393 1 -1.794e+00 4.607e+00 1.796e+00 3.705e-02 -4.342e-02 -2.695e-02
394 1 3.524e+00 1.053e+00 3.524e+00 1.811e-02 4.805e-03 1.853e-02
395 1 -3.525e+00 1.053e+00 -3.525e+00 -4.405e-02 5.780e-03 -4.122e-02
396 1 3.525e+00 1.051e+00 -3.524e+00 1.797e-02 6.689e-03 -2.264e-02
397 1 -3.525e+00 1.051e+00 3.526e+00 -4.602e-02 8.725e-03 4.121e-02
398 1 2.387e-04 4.548e+00 1.240e-03 8.647e-03 1.708e-02 1.192e-03
399 1 -3.565e+00 2.818e+00 -1.809e+00 1.313e-02 2.831e-02 1.543e-02
400 1 -1.810e+00 2.817e+00 -3.568e+00 5.022e-02 9.219e-02 -5.387e-02
401 1 -3.565e+00 2.820e+00 1.808e+00 1.461e-02 2.954e-02 -1.332e-02
402 1 1.810e+00 2.819e+00 -3.567e+00 -2.263e-02 1.693e-02 2.209e-02
403 1 1.809e+00 2.820e+00 3.567e+00 -2.159e-02 1.618e-02 -1.832e-02
404 1 3.566e+00 2.819e+00 1.810e+00 -2.001e-02 1.402e-02 -2.889e-02
405 1 -1.810e+00 2.818e+00 3.566e+00 5.179e-02 9.102e-02 5.429e-02
406 1 3.564e+00 2.820e+00 -1.810e+00 -2.007e-02 1.422e-02 2.750e-02
407 1 1.767e+00 -4.220e+00 5.401e-04 8.924e-02 -1.043e-01 1.519e-04
408 1 -7.901e-04 -4.219e+00 1.767e+00 3.375e-02 -4.131e-02 2.664e-02
409 1 8.811e-04 -4.220e+00 -1.767e+00 3.468e-02 -4.124e-02 -2.538e-02
410 1 -1.768e+00 -4.219e+00 7.143e-04 9.027e-03 1.852e-02 -1.148e-03
411 1 3.620e+00 -2.562e+00 -1.593e-04 -9.922e-02 8.386e-02 -7.561e-04