ITEM: TIMESTEP
0
ITEM: NUMBER OF ATOMS
107
ITEM: BOX BOUNDS xy xz yz pp pp pp
                     0.00000000000000e+00 1.06200000000000e+01 0.00000000000000e+00
0.00000000000000e+00	1.06200000000000e+01	0.00000000000000e+00
0.00000000000000e+00	1.06200000000000e+01	0.00000000000000e+00
ITEM: ATOMS id type x y z DisplacementX DisplacementY DisplacementZ
1 1 3.549e-01 3.555e-01 3.515e-01 -2.998e-04 -8.269e-03 5.842e-03
2 1 2.123e+00 2.123e+00 3.642e-01 -1.925e-04 -1.437e-02 2.067e-02
3 1 2.123e+00 3.520e-01 2.126e+00 5.490e-04 -8.404e-03 5.131e-03
4 1 3.517e-01 2.123e+00 2.125e+00 -4.572e-04 -1.129e-02 1.121e-03
5 1 3.892e+00 3.551e-01 3.507e-01 -3.723e-04 -1.156e-02 3.492e-03
6 1 5.661e+00 2.125e+00 3.510e-01 -6.260e-04 -7.897e-03 -1.723e-03
7 1 5.663e+00 3.541e-01 2.123e+00 -1.343e-03 -7.420e-03 2.567e-03
8 1 3.897e+00 2.123e+00 2.123e+00 -9.669e-04 -5.030e-03 3.959e-03
9 1 7.435e+00 3.534e-01 3.513e-01 -1.536e-03 -3.394e-03 3.421e-03
10 1 9.206e+00 2.125e+00 3.500e-01 -2.365e-03 -2.299e-03 2.963e-03
11 1 9.205e+00 3.549e-01 2.124e+00 -4.867e-04 -8.640e-03 2.890e-03
12 1 7.435e+00 2.125e+00 2.125e+00 -1.143e-03 -4.837e-03 3.099e-03
13 1 3.552e-01 3.893e+00 3.502e-01 -1.888e-03 -9.434e-03 3.420e-03
14 1 2.123e+00 3.897e+00 2.124e+00 -1.387e-03 -8.354e-03 3.353e-04
15 1 3.893e+00 3.891e+00 3.512e-01 6.973e-04 -1.238e-02 -1.494e-03
16 1 5.663e+00 3.893e+00 2.124e+00 -4.710e-04 -7.711e-03 2.907e-03
17 1 7.433e+00 3.893e+00 3.548e-01 -6.889e-04 -4.270e-03 1.225e-03
18 1 9.205e+00 3.894e+00 2.125e+00 -9.202e-04 -6.634e-03 3.954e-03
19 1 3.565e-01 3.558e-01 3.896e+00 -8.968e-04 -1.206e-02 2.088e-03
20 1 2.124e+00 2.125e+00 3.885e+00 -1.045e-04 -1.280e-02 -6.673e-03
21 1 3.893e+00 3.548e-01 3.897e+00 -2.469e-03 -1.014e-02 2.215e-03
22 1 5.661e+00 2.126e+00 3.897e+00 -1.683e-03 -5.897e-03 6.898e-03
23 1 7.435e+00 3.549e-01 3.893e+00 -9.812e-04 -3.330e-03 1.474e-03
24 1 9.207e+00 2.123e+00 3.899e+00 6.545e-05 -4.380e-03 4.898e-03
25 1 3.563e-01 3.892e+00 3.897e+00 6.384e-04 -8.967e-03 7.005e-03
26 1 3.892e+00 3.894e+00 3.897e+00 -6.026e-04 -8.234e-03 8.926e-03
27 1 7.434e+00 3.892e+00 3.894e+00 -6.999e-04 -4.856e-03 3.801e-03
28 1 2.124e+00 3.620e-01 5.674e+00 -5.508e-03 6.738e-01 6.945e-01
29 1 3.624e-01 2.123e+00 5.674e+00 -1.004e-02 -2.564e-02 -4.319e-03
30 1 5.660e+00 3.567e-01 5.666e+00 -9.636e-04 -3.952e-03 -2.098e-05
31 1 3.884e+00 2.125e+00 5.671e+00 -3.735e-04 -2.529e-02 -1.027e-03
32 1 9.207e+00 3.548e-01 5.666e+00 -2.145e-03 3.125e-03 1.667e-04
33 1 7.435e+00 2.125e+00 5.661e+00 -1.857e-03 -5.953e-03 -1.220e-03
34 1 2.123e+00 3.886e+00 5.675e+00 -5.356e-03 -9.932e-03 -4.576e-03
35 1 5.661e+00 3.891e+00 5.664e+00 -2.328e-04 -9.167e-04 5.775e-03
36 1 9.207e+00 3.892e+00 5.665e+00 1.222e-04 -4.433e-03 5.837e-03
37 1 3.649e-01 3.642e-01 7.433e+00 -6.578e-03 -2.805e-02 6.168e-03
38 1 2.122e+00 3.613e-01 9.197e+00 -6.114e-03 6.735e-01 -6.825e-01
39 1 3.638e-01 2.122e+00 9.195e+00 3.419e-01 -2.400e-02 -3.402e-01
40 1 3.885e+00 3.652e-01 7.434e+00 -4.150e-03 -2.751e-02 4.750e-03
41 1 5.676e+00 2.125e+00 7.434e+00 -8.303e-04 1.584e-02 4.243e-03
42 1 5.663e+00 3.558e-01 9.202e+00 -1.385e-03 -1.828e-03 3.558e-03
43 1 3.886e+00 2.124e+00 9.195e+00 2.518e-03 -2.536e-02 1.293e-02
44 1 7.434e+00 3.534e-01 7.435e+00 7.199e-04 -1.044e-02 3.186e-03
45 1 9.194e+00 2.125e+00 7.434e+00 -3.639e-03 -6.613e-03 2.704e-03
46 1 9.206e+00 3.561e-01 9.202e+00 -3.206e-03 1.206e-03 4.958e-03
47 1 7.434e+00 2.124e+00 9.206e+00 7.168e-04 -6.263e-03 5.990e-03
48 1 3.637e-01 3.882e+00 7.435e+00 -1.375e-02 -1.471e-02 6.768e-03
49 1 2.123e+00 3.885e+00 9.195e+00 -7.222e-03 -1.006e-02 1.314e-02
50 1 3.885e+00 3.884e+00 7.433e+00 2.747e-03 -1.217e-02 3.962e-03
51 1 5.662e+00 3.892e+00 9.202e+00 -1.722e-03 -1.348e-03 4.146e-04
52 1 7.434e+00 3.897e+00 7.432e+00 -3.166e-03 -2.323e-03 5.252e-04
53 1 9.207e+00 3.893e+00 9.204e+00 -5.933e-04 -3.191e-03 -1.983e-03
54 1 2.124e+00 5.662e+00 3.513e-01 -1.153e-04 -1.066e-02 -2.342e-03
55 1 3.552e-01 5.663e+00 2.125e+00 -4.035e-04 -8.499e-03 3.635e-03
56 1 5.664e+00 5.664e+00 3.532e-01 -1.863e-04 -7.381e-03 5.203e-04
57 1 3.893e+00 5.663e+00 2.126e+00 3.457e-06 -9.269e-03 2.691e-03
58 1 9.207e+00 5.664e+00 3.523e-01 -8.944e-04 -6.470e-03 1.429e-03
59 1 7.434e+00 5.663e+00 2.126e+00 -5.821e-04 -6.560e-03 2.367e-03
60 1 3.548e-01 7.435e+00 3.535e-01 -4.193e-04 -8.844e-03 2.414e-03
61 1 2.123e+00 9.207e+00 3.513e-01 -5.138e-05 -1.055e-02 4.295e-03
62 1 2.124e+00 7.434e+00 2.124e+00 -7.522e-05 -1.022e-02 2.175e-03
63 1 3.535e-01 9.205e+00 2.124e+00 -5.912e-04 -9.640e-03 2.591e-03
64 1 3.894e+00 7.436e+00 3.556e-01 -3.556e-04 -9.144e-03 1.568e-03
65 1 5.661e+00 9.206e+00 3.523e-01 -7.876e-04 -6.976e-03 2.196e-03
66 1 5.663e+00 7.433e+00 2.123e+00 -5.454e-04 -7.410e-03 2.043e-03
67 1 3.893e+00 9.205e+00 2.124e+00 -8.610e-04 -9.353e-03 2.296e-03
68 1 7.436e+00 7.433e+00 3.547e-01 -6.031e-04 -6.482e-03 2.039e-03
69 1 9.204e+00 9.204e+00 3.543e-01 -7.318e-04 -6.442e-03 3.727e-03
70 1 9.204e+00 7.432e+00 2.124e+00 -4.486e-04 -7.454e-03 2.182e-03
71 1 7.434e+00 9.206e+00 2.122e+00 -7.466e-04 -6.551e-03 2.158e-03
72 1 2.125e+00 5.661e+00 3.896e+00 1.316e-03 -1.102e-02 9.634e-03
73 1 5.663e+00 5.664e+00 3.897e+00 -4.498e-04 -7.029e-03 3.725e-03
74 1 9.207e+00 5.663e+00 3.894e+00 -5.281e-05 -7.067e-03 3.721e-03
75 1 3.540e-01 7.434e+00 3.894e+00 5.187e-04 -9.205e-03 4.119e-04
76 1 2.124e+00 9.210e+00 3.897e+00 -1.448e-03 -1.059e-02 -2.659e-03
77 1 3.893e+00 7.434e+00 3.895e+00 -3.356e-04 -9.157e-03 1.410e-03
78 1 5.662e+00 9.205e+00 3.896e+00 -1.100e-03 -6.740e-03 1.522e-03
79 1 7.434e+00 7.434e+00 3.894e+00 -4.767e-04 -6.554e-03 1.860e-03
80 1 9.206e+00 9.206e+00 3.895e+00 -3.220e-04 -6.759e-03 2.849e-05
81 1 3.541e-01 5.664e+00 5.664e+00 3.093e-04 -1.017e-02 1.404e-03
82 1 3.891e+00 5.661e+00 5.665e+00 -3.690e-04 -1.298e-02 9.321e-04
83 1 7.434e+00 5.663e+00 5.665e+00 -3.713e-04 -4.124e-03 3.809e-03
84 1 2.125e+00 7.434e+00 5.662e+00 -1.153e-04 -7.693e-03 5.789e-04
85 1 3.545e-01 9.207e+00 5.666e+00 2.037e-03 -1.010e-02 -3.089e-03
86 1 5.661e+00 7.434e+00 5.665e+00 -5.778e-04 -7.412e-03 1.439e-03
87 1 3.892e+00 9.208e+00 5.664e+00 -1.392e-03 -7.496e-03 1.020e-03
88 1 9.204e+00 7.433e+00 5.665e+00 2.707e-04 -7.687e-03 3.251e-04
89 1 7.437e+00 9.206e+00 5.662e+00 -9.242e-04 -3.822e-03 4.057e-04
90 1 2.125e+00 5.675e+00 7.432e+00 -3.034e-03 -6.387e-03 -9.006e-03
91 1 3.553e-01 5.661e+00 9.203e+00 -7.905e-04 -7.265e-03 5.808e-04
92 1 5.659e+00 5.662e+00 7.435e+00 2.915e-04 -7.579e-03 1.921e-03
93 1 3.893e+00 5.662e+00 9.204e+00 1.013e-03 -1.034e-02 -1.447e-03
94 1 9.206e+00 5.662e+00 7.433e+00 6.722e-04 -6.377e-03 2.501e-03
95 1 7.435e+00 5.663e+00 9.203e+00 -8.339e-04 -4.403e-03 3.960e-04
96 1 3.523e-01 7.434e+00 7.433e+00 -1.486e-03 -1.111e-02 1.471e-03
97 1 2.124e+00 9.195e+00 7.434e+00 5.714e-03 -2.040e-02 7.569e-03
98 1 2.124e+00 7.433e+00 9.206e+00 -8.236e-04 -8.793e-03 3.386e-03
99 1 3.561e-01 9.206e+00 9.202e+00 1.076e-03 -1.072e-02 3.799e-03
100 1 3.896e+00 7.435e+00 7.432e+00 2.631e-04 -5.516e-03 1.781e-03
101 1 5.662e+00 9.208e+00 7.432e+00 -2.094e-03 -5.663e-03 1.564e-04
102 1 5.662e+00 7.436e+00 9.203e+00 -1.425e-04 -7.426e-03 7.085e-04
103 1 3.892e+00 9.207e+00 9.202e+00 1.425e-04 -1.133e-02 6.582e-04
104 1 7.436e+00 7.434e+00 7.436e+00 -3.141e-04 -4.590e-03 1.268e-03
105 1 9.207e+00 9.208e+00 7.433e+00 -7.938e-04 -2.773e-04 5.567e-05
106 1 9.205e+00 7.434e+00 9.201e+00 -1.763e-04 -7.344e-03 2.236e-03
107 1 7.434e+00 9.205e+00 9.203e+00 -1.385e-03 -3.297e-03 2.559e-03
ITEM: TIMESTEP
0
ITEM: NUMBER OF ATOMS
107
ITEM: BOX BOUNDS xy xz yz pp pp pp
                     0.00000000000000e+00 1.06200000000000e+01 0.00000000000000e+00
0.00000000000000e+00	1.06200000000000e+01	0.00000000000000e+00
0.00000000000000e+00	1.06200000000000e+01	0.00000000000000e+00
ITEM: ATOMS id type x y z DisplacementX DisplacementY DisplacementZ
1 1 3.549e-01 3.555e-01 3.515e-01 -6.745e-03 -1.877e-03 5.619e-03
2 1 2.123e+00 2.123e+00 3.642e-01 -1.634e-02 -8.887e-03 1.087e-02
3 1 2.123e+00 3.520e-01 2.126e+00 -2.646e-03 -3.974e-03 2.362e-03
4 1 3.517e-01 2.123e+00 2.125e+00 -6.453e-03 -1.713e-03 4.116e-03
5 1 3.892e+00 3.551e-01 3.507e-01 -6.256e-03 -2.223e-03 2.874e-03
6 1 5.661e+00 2.125e+00 3.510e-01 -5.637e-03 -7.625e-04 1.817e-03
7 1 5.663e+00 3.541e-01 2.123e+00 -5.237e-03 -2.730e-03 4.827e-03
8 1 3.897e+00 2.123e+00 2.123e+00 -3.998e-03 -4.199e-03 3.797e-03
9 1 7.435e+00 3.534e-01 3.513e-01 -4.740e-03 -2.225e-03 4.673e-03
10 1 9.206e+00 2.125e+00 3.500e-01 -6.833e-03 -1.623e-03 7.221e-03
11 1 9.205e+00 3.549e-01 2.124e+00 -5.796e-03 -2.280e-03 4.855e-03
12 1 7.435e+00 2.125e+00 2.125e+00 -6.052e-03 -2.201e-03 5.006e-03
13 1 3.552e-01 3.893e+00 3.502e-01 -8.360e-03 -4.128e-03 5.475e-03
14 1 2.123e+00 3.897e+00 2.124e+00 -5.695e-03 -9.325e-04 2.996e-03
15 1 3.893e+00 3.891e+00 3.512e-01 -5.219e-03 -2.728e-03 2.260e-03
16 1 5.663e+00 3.893e+00 2.124e+00 -4.965e-03 -2.630e-03 4.078e-03
17 1 7.433e+00 3.893e+00 3.548e-01 -4.428e-03 -2.141e-03 4.757e-03
18 1 9.205e+00 3.894e+00 2.125e+00 -5.734e-03 -3.011e-03 5.372e-03
19 1 3.565e-01 3.558e-01 3.896e+00 -6.619e-03 -1.722e-03 3.286e-03
20 1 2.124e+00 2.125e+00 3.885e+00 -4.036e-03 4.321e-03 -1.934e-03
21 1 3.893e+00 3.548e-01 3.897e+00 -6.883e-03 -3.671e-03 6.728e-03
22 1 5.661e+00 2.126e+00 3.897e+00 -9.010e-03 -2.684e-03 7.429e-03
23 1 7.435e+00 3.549e-01 3.893e+00 -4.567e-03 -2.410e-03 3.667e-03
24 1 9.207e+00 2.123e+00 3.899e+00 -5.344e-03 -4.517e-03 1.864e-03
25 1 3.563e-01 3.892e+00 3.897e+00 -4.570e-03 -3.834e-03 5.214e-03
26 1 3.892e+00 3.894e+00 3.897e+00 -7.662e-03 -2.186e-03 6.069e-03
27 1 7.434e+00 3.892e+00 3.894e+00 -4.931e-03 -2.882e-03 4.352e-03
28 1 2.124e+00 3.620e-01 5.674e+00 -9.524e-03 -1.563e-02 1.925e-03
29 1 3.624e-01 2.123e+00 5.674e+00 3.322e-01 -9.652e-03 3.519e-01
30 1 5.660e+00 3.567e-01 5.666e+00 -6.486e-03 -2.329e-03 3.489e-03
31 1 3.884e+00 2.125e+00 5.671e+00 -6.019e-04 -1.040e-02 6.159e-03
32 1 9.207e+00 3.548e-01 5.666e+00 -3.724e-03 -1.663e-03 1.738e-03
33 1 7.435e+00 2.125e+00 5.661e+00 -3.629e-03 -9.423e-04 4.375e-03
34 1 2.123e+00 3.886e+00 5.675e+00 -1.051e-02 -2.987e-03 4.557e-03
35 1 5.661e+00 3.891e+00 5.664e+00 -5.001e-03 -1.381e-03 6.340e-03
36 1 9.207e+00 3.892e+00 5.665e+00 -5.364e-03 -5.023e-03 2.498e-03
37 1 3.649e-01 3.642e-01 7.433e+00 -1.920e-02 -1.160e-02 1.525e-02
38 1 2.122e+00 3.613e-01 9.197e+00 -1.173e-02 3.378e-01 -3.317e-01
39 1 3.638e-01 2.122e+00 9.195e+00 6.854e-01 -1.078e-02 -6.796e-01
40 1 3.885e+00 3.652e-01 7.434e+00 -3.548e-01 3.336e-01 1.433e-02
41 1 5.676e+00 2.125e+00 7.434e+00 -2.251e-03 -4.986e-03 2.218e-03
42 1 5.663e+00 3.558e-01 9.202e+00 -5.269e-03 -1.315e-03 3.408e-03
43 1 3.886e+00 2.124e+00 9.195e+00 1.695e-03 -1.166e-02 1.911e-02
44 1 7.434e+00 3.534e-01 7.435e+00 -3.218e-03 -3.826e-03 3.957e-03
45 1 9.194e+00 2.125e+00 7.434e+00 -1.365e-02 1.844e-03 5.701e-03
46 1 9.206e+00 3.561e-01 9.202e+00 -5.348e-03 -2.031e-03 6.576e-03
47 1 7.434e+00 2.124e+00 9.206e+00 -4.623e-03 -5.044e-03 2.221e-03
48 1 3.637e-01 3.882e+00 7.435e+00 -1.837e-02 -5.433e-03 1.425e-02
49 1 2.123e+00 3.885e+00 9.195e+00 -1.392e-02 -2.618e-03 2.008e-02
50 1 3.885e+00 3.884e+00 7.433e+00 -1.603e-03 7.534e-04 1.258e-02
51 1 5.662e+00 3.892e+00 9.202e+00 -6.744e-03 -2.185e-03 5.453e-03
52 1 7.434e+00 3.897e+00 7.432e+00 -5.878e-03 -1.120e-03 2.956e-03
53 1 9.207e+00 3.893e+00 9.204e+00 -4.334e-03 -1.356e-03 3.556e-03
54 1 2.124e+00 5.662e+00 3.513e-01 -1.270e-04 -2.661e-03 1.431e-03
55 1 3.552e-01 5.663e+00 2.125e+00 -3.799e-03 -3.358e-03 4.755e-03
56 1 5.664e+00 5.664e+00 3.532e-01 -2.310e-03 -2.373e-03 3.688e-03
57 1 3.893e+00 5.663e+00 2.126e+00 -3.489e-03 -2.813e-03 4.260e-03
58 1 9.207e+00 5.664e+00 3.523e-01 -2.807e-03 -2.740e-03 4.707e-03
59 1 7.434e+00 5.663e+00 2.126e+00 -3.338e-03 -2.667e-03 4.451e-03
60 1 3.548e-01 7.435e+00 3.535e-01 -8.649e-05 -2.773e-03 4.838e-03
61 1 2.123e+00 9.207e+00 3.513e-01 7.516e-05 -2.052e-03 4.248e-03
62 1 2.124e+00 7.434e+00 2.124e+00 -8.740e-04 -3.230e-03 5.043e-03
63 1 3.535e-01 9.205e+00 2.124e+00 -4.045e-03 -2.517e-03 4.616e-03
64 1 3.894e+00 7.436e+00 3.556e-01 4.383e-04 -3.048e-03 3.760e-03
65 1 5.661e+00 9.206e+00 3.523e-01 -2.278e-03 -2.650e-03 3.665e-03
66 1 5.663e+00 7.433e+00 2.123e+00 -2.440e-03 -2.782e-03 4.327e-03
67 1 3.893e+00 9.205e+00 2.124e+00 -3.640e-03 -2.783e-03 4.417e-03
68 1 7.436e+00 7.433e+00 3.547e-01 -2.329e-03 -2.618e-03 4.411e-03
69 1 9.204e+00 9.204e+00 3.543e-01 -3.132e-03 -2.321e-03 5.383e-03
70 1 9.204e+00 7.432e+00 2.124e+00 -2.586e-03 -2.709e-03 4.489e-03
71 1 7.434e+00 9.206e+00 2.122e+00 -3.355e-03 -2.531e-03 4.390e-03
72 1 2.125e+00 5.661e+00 3.896e+00 -8.692e-04 -5.421e-03 6.835e-03
73 1 5.663e+00 5.664e+00 3.897e+00 -3.252e-03 -2.710e-03 4.743e-03
74 1 9.207e+00 5.663e+00 3.894e+00 -2.359e-03 -3.485e-03 4.453e-03
75 1 3.540e-01 7.434e+00 3.894e+00 2.552e-04 -2.914e-03 3.570e-03
76 1 2.124e+00 9.210e+00 3.897e+00 -4.352e-03 -2.261e-03 4.629e-03
77 1 3.893e+00 7.434e+00 3.895e+00 -7.712e-04 -3.011e-03 4.564e-03
78 1 5.662e+00 9.205e+00 3.896e+00 -3.470e-03 -2.792e-03 5.186e-03
79 1 7.434e+00 7.434e+00 3.894e+00 -2.423e-03 -2.687e-03 4.240e-03
80 1 9.206e+00 9.206e+00 3.895e+00 -2.618e-03 -2.219e-03 3.092e-03
81 1 3.541e-01 5.664e+00 5.664e+00 3.970e-03 -3.570e-03 4.955e-03
82 1 3.891e+00 5.661e+00 5.665e+00 1.325e-03 -4.085e-03 4.844e-03
83 1 7.434e+00 5.663e+00 5.665e+00 -3.353e-03 -2.850e-03 3.957e-03
84 1 2.125e+00 7.434e+00 5.662e+00 3.400e-04 -1.165e-03 -3.707e-05
85 1 3.545e-01 9.207e+00 5.666e+00 2.484e-03 -2.557e-03 6.019e-04
86 1 5.661e+00 7.434e+00 5.665e+00 -5.679e-04 -3.053e-03 4.781e-03
87 1 3.892e+00 9.208e+00 5.664e+00 1.565e-04 -2.305e-03 6.666e-03
88 1 9.204e+00 7.433e+00 5.665e+00 4.674e-04 -2.511e-03 3.821e-03
89 1 7.437e+00 9.206e+00 5.662e+00 -2.699e-03 -2.419e-03 3.659e-03
90 1 2.125e+00 5.675e+00 7.432e+00 4.410e-03 2.393e-03 1.531e-03
91 1 3.553e-01 5.661e+00 9.203e+00 2.827e-03 -3.034e-03 4.313e-03
92 1 5.659e+00 5.662e+00 7.435e+00 -1.507e-03 -2.007e-03 4.236e-03
93 1 3.893e+00 5.662e+00 9.204e+00 3.111e-03 -8.372e-04 -4.355e-04
94 1 9.206e+00 5.662e+00 7.433e+00 1.808e-03 -5.036e-03 4.130e-03
95 1 7.435e+00 5.663e+00 9.203e+00 -3.060e-03 -2.311e-03 5.086e-03
96 1 3.523e-01 7.434e+00 7.433e+00 -4.595e-03 -2.044e-03 3.422e-03
97 1 2.124e+00 9.195e+00 7.434e+00 1.253e-02 -8.739e-03 3.528e-03
98 1 2.124e+00 7.433e+00 9.206e+00 -5.572e-03 -3.608e-03 5.725e-03
99 1 3.561e-01 9.206e+00 9.202e+00 2.416e-03 -2.733e-03 4.374e-03
100 1 3.896e+00 7.435e+00 7.432e+00 3.534e-04 -3.260e-03 2.146e-03
101 1 5.662e+00 9.208e+00 7.432e+00 -1.954e-03 -2.604e-03 4.286e-03
102 1 5.662e+00 7.436e+00 9.203e+00 1.464e-03 -2.915e-03 2.817e-03
103 1 3.892e+00 9.207e+00 9.202e+00 4.698e-03 -5.120e-03 2.734e-03
104 1 7.436e+00 7.434e+00 7.436e+00 -7.808e-06 -2.690e-03 4.450e-03
105 1 9.207e+00 9.208e+00 7.433e+00 -2.045e-04 -9.434e-04 2.778e-03
106 1 9.205e+00 7.434e+00 9.201e+00 5.180e-05 -2.690e-03 4.401e-03
107 1 7.434e+00 9.205e+00 9.203e+00 -3.423e-03 -1.964e-03 4.503e-03
ITEM: TIMESTEP
0
ITEM: NUMBER OF ATOMS
107
ITEM: BOX BOUNDS xy xz yz pp pp pp
                     0.00000000000000e+00 1.06200000000000e+01 0.00000000000000e+00
0.00000000000000e+00	1.06200000000000e+01	0.00000000000000e+00
0.00000000000000e+00	1.06200000000000e+01	0.00000000000000e+00
ITEM: ATOMS id type x y z DisplacementX DisplacementY DisplacementZ
1 1 3.549e-01 3.555e-01 3.515e-01 7.249e-03 -5.158e-03 4.542e-03
2 1 2.123e+00 2.123e+00 3.642e-01 2.216e-02 -2.200e-03 2.134e-02
3 1 2.123e+00 3.520e-01 2.126e+00 6.525e-03 -4.930e-03 3.368e-03
4 1 3.517e-01 2.123e+00 2.125e+00 4.538e-03 -6.264e-03 2.807e-03
5 1 3.892e+00 3.551e-01 3.507e-01 1.535e-02 -3.254e-03 7.788e-03
6 1 5.661e+00 2.125e+00 3.510e-01 8.718e-03 -5.584e-03 6.885e-03
7 1 5.663e+00 3.541e-01 2.123e+00 8.207e-03 -4.076e-03 5.074e-03
8 1 3.897e+00 2.123e+00 2.123e+00 6.766e-03 -2.906e-03 3.746e-03
9 1 7.435e+00 3.534e-01 3.513e-01 6.031e-03 -5.412e-03 4.912e-03
10 1 9.206e+00 2.125e+00 3.500e-01 5.015e-03 -3.749e-03 -6.557e-05
11 1 9.205e+00 3.549e-01 2.124e+00 6.567e-03 -4.689e-03 4.472e-03
12 1 7.435e+00 2.125e+00 2.125e+00 8.166e-03 -4.793e-03 5.654e-03
13 1 3.552e-01 3.893e+00 3.502e-01 7.436e-03 -1.514e-03 1.860e-05
14 1 2.123e+00 3.897e+00 2.124e+00 7.709e-03 -3.451e-03 4.403e-03
15 1 3.893e+00 3.891e+00 3.512e-01 6.126e-03 -4.420e-03 5.662e-03
16 1 5.663e+00 3.893e+00 2.124e+00 6.714e-03 -4.920e-03 4.134e-03
17 1 7.433e+00 3.893e+00 3.548e-01 6.208e-03 -4.874e-03 4.610e-03
18 1 9.205e+00 3.894e+00 2.125e+00 7.950e-03 -4.006e-03 4.919e-03
19 1 3.565e-01 3.558e-01 3.896e+00 8.258e-03 -2.447e-03 3.969e-03
20 1 2.124e+00 2.125e+00 3.885e+00 3.587e-03 -2.912e-03 -9.550e-03
21 1 3.893e+00 3.548e-01 3.897e+00 4.779e-03 -3.593e-03 3.291e-03
22 1 5.661e+00 2.126e+00 3.897e+00 6.340e-03 -5.846e-03 2.537e-03
23 1 7.435e+00 3.549e-01 3.893e+00 6.158e-03 -5.160e-03 3.818e-03
24 1 9.207e+00 2.123e+00 3.899e+00 1.306e-02 -3.577e-03 1.177e-02
25 1 3.563e-01 3.892e+00 3.897e+00 1.282e-02 -3.976e-03 1.016e-02
26 1 3.892e+00 3.894e+00 3.897e+00 9.086e-03 -5.319e-03 2.997e-03
27 1 7.434e+00 3.892e+00 3.894e+00 7.237e-03 -4.787e-03 5.302e-03
28 1 2.124e+00 3.620e-01 5.674e+00 1.733e-02 -1.337e-02 6.995e-03
29 1 3.624e-01 2.123e+00 5.674e+00 7.397e-03 -9.641e-03 6.143e-03
30 1 5.660e+00 3.567e-01 5.666e+00 4.373e-03 -5.192e-03 2.664e-03
31 1 3.884e+00 2.125e+00 5.671e+00 -3.259e-01 -7.611e-03 3.489e-01
32 1 9.207e+00 3.548e-01 5.666e+00 6.657e-03 -5.399e-03 4.389e-03
33 1 7.435e+00 2.125e+00 5.661e+00 3.311e-03 -4.402e-03 5.698e-05
34 1 2.123e+00 3.886e+00 5.675e+00 1.892e-02 -1.057e-03 4.002e-03
35 1 5.661e+00 3.891e+00 5.664e+00 7.743e-03 -5.473e-03 6.206e-03
36 1 9.207e+00 3.892e+00 5.665e+00 7.510e-03 -4.989e-03 6.526e-03
37 1 3.649e-01 3.642e-01 7.433e+00 3.599e-01 3.367e-01 1.163e-02
38 1 2.122e+00 3.613e-01 9.197e+00 2.143e-02 -1.169e-02 1.871e-02
39 1 3.638e-01 2.122e+00 9.195e+00 1.966e-03 -8.860e-03 1.938e-02
40 1 3.885e+00 3.652e-01 7.434e+00 2.693e-02 -9.347e-03 1.510e-02
41 1 5.676e+00 2.125e+00 7.434e+00 1.574e-02 -8.404e-04 1.351e-02
42 1 5.663e+00 3.558e-01 9.202e+00 5.747e-03 -6.788e-03 6.382e-03
43 1 3.886e+00 2.124e+00 9.195e+00 -1.027e+00 -7.340e-03 -1.030e+00
44 1 7.434e+00 3.534e-01 7.435e+00 6.515e-03 -4.623e-03 4.661e-03
45 1 9.194e+00 2.125e+00 7.434e+00 -2.560e-03 -1.124e-02 -4.812e-03
46 1 9.206e+00 3.561e-01 9.202e+00 5.838e-03 -5.286e-03 3.085e-03
47 1 7.434e+00 2.124e+00 9.206e+00 8.082e-03 -4.796e-03 7.106e-03
48 1 3.637e-01 3.882e+00 7.435e+00 9.262e-03 3.247e-03 1.273e-02
49 1 2.123e+00 3.885e+00 9.195e+00 2.160e-02 -4.375e-03 2.010e-02
50 1 3.885e+00 3.884e+00 7.433e+00 2.526e-02 -5.244e-03 1.549e-02
51 1 5.662e+00 3.892e+00 9.202e+00 5.526e-03 -4.848e-03 4.282e-03
52 1 7.434e+00 3.897e+00 7.432e+00 4.586e-03 -5.377e-03 2.472e-03
53 1 9.207e+00 3.893e+00 9.204e+00 4.938e-03 -4.782e-03 2.522e-03
54 1 2.124e+00 5.662e+00 3.513e-01 1.939e-03 -4.715e-03 -1.036e-03
55 1 3.552e-01 5.663e+00 2.125e+00 7.211e-03 -3.651e-03 4.120e-03
56 1 5.664e+00 5.664e+00 3.532e-01 4.428e-03 -5.091e-03 3.795e-03
57 1 3.893e+00 5.663e+00 2.126e+00 6.284e-03 -4.566e-03 4.341e-03
58 1 9.207e+00 5.664e+00 3.523e-01 4.686e-03 -4.341e-03 2.469e-03
59 1 7.434e+00 5.663e+00 2.126e+00 5.638e-03 -4.726e-03 4.092e-03
60 1 3.548e-01 7.435e+00 3.535e-01 2.132e-03 -5.098e-03 1.810e-03
61 1 2.123e+00 9.207e+00 3.513e-01 3.317e-03 -4.311e-03 9.668e-04
62 1 2.124e+00 7.434e+00 2.124e+00 3.845e-03 -4.388e-03 3.184e-03
63 1 3.535e-01 9.205e+00 2.124e+00 5.518e-03 -4.390e-03 3.869e-03
64 1 3.894e+00 7.436e+00 3.556e-01 2.846e-03 -4.698e-03 2.464e-03
65 1 5.661e+00 9.206e+00 3.523e-01 6.311e-03 -4.674e-03 4.798e-03
66 1 5.663e+00 7.433e+00 2.123e+00 4.864e-03 -4.705e-03 3.590e-03
67 1 3.893e+00 9.205e+00 2.124e+00 6.904e-03 -4.279e-03 4.403e-03
68 1 7.436e+00 7.433e+00 3.547e-01 4.537e-03 -4.940e-03 3.599e-03
69 1 9.204e+00 9.204e+00 3.543e-01 3.715e-03 -5.263e-03 2.845e-03
70 1 9.204e+00 7.432e+00 2.124e+00 4.914e-03 -4.746e-03 3.770e-03
71 1 7.434e+00 9.206e+00 2.122e+00 5.476e-03 -4.861e-03 4.048e-03
72 1 2.125e+00 5.661e+00 3.896e+00 6.392e-03 -4.955e-03 6.516e-03
73 1 5.663e+00 5.664e+00 3.897e+00 4.604e-03 -5.150e-03 3.091e-03
74 1 9.207e+00 5.663e+00 3.894e+00 6.743e-03 -4.497e-03 5.857e-03
75 1 3.540e-01 7.434e+00 3.894e+00 4.118e-03 -4.814e-03 4.439e-03
76 1 2.124e+00 9.210e+00 3.897e+00 5.478e-03 -3.061e-03 5.204e-03
77 1 3.893e+00 7.434e+00 3.895e+00 2.020e-03 -4.478e-03 1.305e-03
78 1 5.662e+00 9.205e+00 3.896e+00 4.209e-03 -4.487e-03 2.603e-03
79 1 7.434e+00 7.434e+00 3.894e+00 4.721e-03 -4.878e-03 3.691e-03
80 1 9.206e+00 9.206e+00 3.895e+00 5.631e-03 -4.875e-03 4.827e-03
81 1 3.541e-01 5.664e+00 5.664e+00 3.468e-03 -3.631e-03 4.748e-03
82 1 3.891e+00 5.661e+00 5.665e+00 -4.677e-03 -5.239e-03 -1.071e-03
83 1 7.434e+00 5.663e+00 5.665e+00 5.853e-03 -5.267e-03 4.623e-03
84 1 2.125e+00 7.434e+00 5.662e+00 1.145e-03 -5.358e-03 -3.355e-03
85 1 3.545e-01 9.207e+00 5.666e+00 4.301e-03 -5.772e-03 7.466e-03
86 1 5.661e+00 7.434e+00 5.665e+00 1.547e-03 -4.633e-03 1.494e-03
87 1 3.892e+00 9.208e+00 5.664e+00 1.935e-03 -3.260e-03 4.067e-04
88 1 9.204e+00 7.433e+00 5.665e+00 4.044e-03 -4.991e-03 4.737e-03
89 1 7.437e+00 9.206e+00 5.662e+00 3.872e-03 -5.478e-03 3.098e-03
90 1 2.125e+00 5.675e+00 7.432e+00 -4.485e-03 -5.257e-04 -1.138e-03
91 1 3.553e-01 5.661e+00 9.203e+00 9.997e-04 -5.256e-03 1.165e-03
92 1 5.659e+00 5.662e+00 7.435e+00 3.028e-05 -6.909e-03 6.480e-04
93 1 3.893e+00 5.662e+00 9.204e+00 1.831e-03 -6.422e-03 1.447e-03
94 1 9.206e+00 5.662e+00 7.433e+00 5.537e-03 -4.115e-03 5.389e-03
95 1 7.435e+00 5.663e+00 9.203e+00 4.032e-03 -4.858e-03 3.388e-03
96 1 3.523e-01 7.434e+00 7.433e+00 2.220e-03 -4.500e-03 -4.432e-04
97 1 2.124e+00 9.195e+00 7.434e+00 -3.794e-03 -7.955e-03 -2.141e-04
98 1 2.124e+00 7.433e+00 9.206e+00 7.774e-03 -4.286e-03 7.988e-03
99 1 3.561e-01 9.206e+00 9.202e+00 -3.369e-03 -4.906e-03 -3.574e-03
100 1 3.896e+00 7.435e+00 7.432e+00 7.778e-03 -4.306e-03 7.182e-03
101 1 5.662e+00 9.208e+00 7.432e+00 1.640e-03 -4.593e-03 7.806e-04
102 1 5.662e+00 7.436e+00 9.203e+00 2.809e-03 -4.982e-03 2.708e-03
103 1 3.892e+00 9.207e+00 9.202e+00 1.556e-05 -3.085e-03 1.429e-03
104 1 7.436e+00 7.434e+00 7.436e+00 2.208e-03 -5.551e-03 2.807e-03
105 1 9.207e+00 9.208e+00 7.433e+00 2.803e-03 -6.143e-03 3.942e-03
106 1 9.205e+00 7.434e+00 9.201e+00 1.535e-03 -5.219e-03 1.562e-03
107 1 7.434e+00 9.205e+00 9.203e+00 5.018e-03 -5.821e-03 4.515e-03
ITEM: TIMESTEP
0
ITEM: NUMBER OF ATOMS
107
ITEM: BOX BOUNDS xy xz yz pp pp pp
                     0.00000000000000e+00 1.06200000000000e+01 0.00000000000000e+00
0.00000000000000e+00	1.06200000000000e+01	0.00000000000000e+00
0.00000000000000e+00	1.06200000000000e+01	0.00000000000000e+00
ITEM: ATOMS id type x y z DisplacementX DisplacementY DisplacementZ
1 1 3.549e-01 3.555e-01 3.515e-01 -2.434e-03 -2.248e-03 -4.508e-03
2 1 2.123e+00 2.123e+00 3.642e-01 -2.235e-03 -2.983e-03 1.154e-02
3 1 2.123e+00 3.520e-01 2.126e+00 -1.544e-03 -2.560e-03 -1.387e-03
4 1 3.517e-01 2.123e+00 2.125e+00 -2.028e-03 -4.474e-03 -2.630e-03
5 1 3.892e+00 3.551e-01 3.507e-01 -3.588e-03 -5.464e-03 -5.129e-03
6 1 5.661e+00 2.125e+00 3.510e-01 -1.999e-03 -4.268e-03 -5.440e-03
7 1 5.663e+00 3.541e-01 2.123e+00 -2.315e-03 -3.348e-03 -2.772e-03
8 1 3.897e+00 2.123e+00 2.123e+00 -2.690e-03 -1.166e-03 -2.239e-03
9 1 7.435e+00 3.534e-01 3.513e-01 -2.413e-03 2.980e-05 -1.914e-03
10 1 9.206e+00 2.125e+00 3.500e-01 -2.417e-03 -1.631e-04 -5.151e-03
11 1 9.205e+00 3.549e-01 2.124e+00 -2.733e-03 -3.561e-03 -2.773e-03
12 1 7.435e+00 2.125e+00 2.125e+00 -2.443e-03 -1.622e-03 -2.556e-03
13 1 3.552e-01 3.893e+00 3.502e-01 -1.533e-03 -3.388e-03 -2.834e-03
14 1 2.123e+00 3.897e+00 2.124e+00 -4.085e-03 -5.571e-03 -2.421e-03
15 1 3.893e+00 3.891e+00 3.512e-01 -2.060e-03 -6.947e-03 -4.782e-03
16 1 5.663e+00 3.893e+00 2.124e+00 -2.487e-03 -1.931e-03 -2.404e-03
17 1 7.433e+00 3.893e+00 3.548e-01 -2.429e-03 -1.938e-03 -2.370e-03
18 1 9.205e+00 3.894e+00 2.125e+00 -2.188e-03 -2.071e-03 -3.325e-03
19 1 3.565e-01 3.558e-01 3.896e+00 -2.995e-03 -5.623e-03 -6.069e-04
20 1 2.124e+00 2.125e+00 3.885e+00 -1.384e-03 -5.568e-03 -1.795e-02
21 1 3.893e+00 3.548e-01 3.897e+00 -1.238e-03 -5.376e-03 -1.173e-03
22 1 5.661e+00 2.126e+00 3.897e+00 -1.839e-03 -1.317e-03 1.367e-03
23 1 7.435e+00 3.549e-01 3.893e+00 -2.686e-03 -1.351e-03 -1.441e-03
24 1 9.207e+00 2.123e+00 3.899e+00 -3.161e-03 -1.280e-03 4.946e-04
25 1 3.563e-01 3.892e+00 3.897e+00 -2.304e-03 -2.748e-03 -4.311e-03
26 1 3.892e+00 3.894e+00 3.897e+00 -2.590e-03 1.404e-03 -1.132e-03
27 1 7.434e+00 3.892e+00 3.894e+00 -2.281e-03 -1.867e-03 -2.073e-03
28 1 2.124e+00 3.620e-01 5.674e+00 -1.795e-03 6.862e-01 6.844e-01
29 1 3.624e-01 2.123e+00 5.674e+00 -4.754e-03 -8.946e-03 -1.367e-02
30 1 5.660e+00 3.567e-01 5.666e+00 -4.306e-03 -6.976e-04 -1.025e-03
31 1 3.884e+00 2.125e+00 5.671e+00 1.805e-03 -7.525e-03 -1.225e-02
32 1 9.207e+00 3.548e-01 5.666e+00 -1.597e-03 7.879e-04 1.165e-03
33 1 7.435e+00 2.125e+00 5.661e+00 -1.711e-03 -3.133e-03 -6.422e-03
34 1 2.123e+00 3.886e+00 5.675e+00 -9.167e-04 -3.451e-01 3.335e-01
35 1 5.661e+00 3.891e+00 5.664e+00 -1.367e-03 -1.247e-03 -2.404e-03
36 1 9.207e+00 3.892e+00 5.665e+00 -3.223e-03 1.109e-03 4.106e-04
37 1 3.649e-01 3.642e-01 7.433e+00 -4.608e-03 -1.532e-02 -7.852e-03
38 1 2.122e+00 3.613e-01 9.197e+00 -1.685e-03 3.349e-01 -3.424e-01
39 1 3.638e-01 2.122e+00 9.195e+00 -5.656e-03 -6.136e-03 4.619e-04
40 1 3.885e+00 3.652e-01 7.434e+00 1.411e-03 -1.331e-02 -9.562e-03
41 1 5.676e+00 2.125e+00 7.434e+00 -6.020e-03 9.809e-03 -1.910e-03
42 1 5.663e+00 3.558e-01 9.202e+00 -2.415e-03 9.955e-04 -2.215e-03
43 1 3.886e+00 2.124e+00 9.195e+00 3.319e-03 -7.166e-03 2.406e-03
44 1 7.434e+00 3.534e-01 7.435e+00 -1.356e-03 -6.362e-03 -1.690e-03
45 1 9.194e+00 2.125e+00 7.434e+00 1.627e-03 -3.024e-03 3.253e-03
46 1 9.206e+00 3.561e-01 9.202e+00 -2.229e-03 2.862e-03 -1.741e-03
47 1 7.434e+00 2.124e+00 9.206e+00 -3.060e-03 -1.201e-03 3.259e-03
48 1 3.637e-01 3.882e+00 7.435e+00 -7.598e-03 1.863e-03 -4.659e-03
49 1 2.123e+00 3.885e+00 9.195e+00 -1.638e-03 -3.472e-01 -3.461e-01
50 1 3.885e+00 3.884e+00 7.433e+00 3.097e-03 3.437e-03 -6.731e-03
51 1 5.662e+00 3.892e+00 9.202e+00 -1.349e-03 -6.164e-04 -2.059e-03
52 1 7.434e+00 3.897e+00 7.432e+00 -3.573e-03 2.210e-03 -1.637e-03
53 1 9.207e+00 3.893e+00 9.204e+00 -3.154e-03 -3.325e-03 -2.841e-03
54 1 2.124e+00 5.662e+00 3.513e-01 -2.237e-03 -4.562e-03 -3.669e-03
55 1 3.552e-01 5.663e+00 2.125e+00 -2.328e-03 -2.825e-03 -3.235e-03
56 1 5.664e+00 5.664e+00 3.532e-01 -2.364e-03 -2.683e-03 -2.723e-03
57 1 3.893e+00 5.663e+00 2.126e+00 -2.466e-03 -3.028e-03 -2.940e-03
58 1 9.207e+00 5.664e+00 3.523e-01 -2.570e-03 -2.979e-03 -2.661e-03
59 1 7.434e+00 5.663e+00 2.126e+00 -2.497e-03 -2.278e-03 -2.593e-03
60 1 3.548e-01 7.435e+00 3.535e-01 -2.825e-03 -3.178e-03 -2.339e-03
61 1 2.123e+00 9.207e+00 3.513e-01 -2.728e-03 -2.888e-03 -4.311e-03
62 1 2.124e+00 7.434e+00 2.124e+00 -2.505e-03 -3.417e-03 -3.503e-03
63 1 3.535e-01 9.205e+00 2.124e+00 -2.609e-03 -4.038e-03 -2.697e-03
64 1 3.894e+00 7.436e+00 3.556e-01 -2.338e-03 -2.938e-03 -1.866e-03
65 1 5.661e+00 9.206e+00 3.523e-01 -2.544e-03 -2.473e-03 -2.619e-03
66 1 5.663e+00 7.433e+00 2.123e+00 -2.568e-03 -2.634e-03 -2.591e-03
67 1 3.893e+00 9.205e+00 2.124e+00 -2.622e-03 -4.003e-03 -3.016e-03
68 1 7.436e+00 7.433e+00 3.547e-01 -2.575e-03 -2.233e-03 -2.377e-03
69 1 9.204e+00 9.204e+00 3.543e-01 -2.648e-03 -1.344e-03 -2.689e-03
70 1 9.204e+00 7.432e+00 2.124e+00 -2.578e-03 -2.708e-03 -2.765e-03
71 1 7.434e+00 9.206e+00 2.122e+00 -2.607e-03 -2.423e-03 -2.470e-03
72 1 2.125e+00 5.661e+00 3.896e+00 -1.721e-03 -2.695e-03 -2.036e-03
73 1 5.663e+00 5.664e+00 3.897e+00 -2.518e-03 -2.174e-03 -2.004e-03
74 1 9.207e+00 5.663e+00 3.894e+00 -2.373e-03 -2.176e-03 -2.995e-03
75 1 3.540e-01 7.434e+00 3.894e+00 -2.828e-03 -3.719e-03 -3.937e-03
76 1 2.124e+00 9.210e+00 3.897e+00 -3.860e-03 -6.135e-03 -2.609e-03
77 1 3.893e+00 7.434e+00 3.895e+00 -2.858e-03 -3.915e-03 -3.273e-03
78 1 5.662e+00 9.205e+00 3.896e+00 -2.669e-03 -2.882e-03 -2.490e-03
79 1 7.434e+00 7.434e+00 3.894e+00 -2.635e-03 -2.470e-03 -2.610e-03
80 1 9.206e+00 9.206e+00 3.895e+00 -2.985e-03 -3.106e-03 -2.324e-03
81 1 3.541e-01 5.664e+00 5.664e+00 -1.604e-03 -6.325e-03 -3.822e-03
82 1 3.891e+00 5.661e+00 5.665e+00 -3.272e-03 -5.921e-03 -1.755e-03
83 1 7.434e+00 5.663e+00 5.665e+00 -2.515e-03 -4.752e-04 -1.841e-03
84 1 2.125e+00 7.434e+00 5.662e+00 -2.612e-03 -2.330e-03 -2.427e-03
85 1 3.545e-01 9.207e+00 5.666e+00 -4.657e-03 -3.193e-03 -4.467e-03
86 1 5.661e+00 7.434e+00 5.665e+00 -2.939e-03 -3.070e-03 -2.710e-03
87 1 3.892e+00 9.208e+00 5.664e+00 -2.325e-03 -2.788e-03 -4.821e-03
88 1 9.204e+00 7.433e+00 5.665e+00 -2.744e-03 -3.384e-03 -3.667e-03
89 1 7.437e+00 9.206e+00 5.662e+00 -2.751e-03 -1.864e-03 -1.047e-03
90 1 2.125e+00 5.675e+00 7.432e+00 -7.417e-03 2.435e-03 -3.720e-03
91 1 3.553e-01 5.661e+00 9.203e+00 -3.559e-03 -3.431e-03 -2.972e-03
92 1 5.659e+00 5.662e+00 7.435e+00 -1.318e-03 -3.531e-03 -1.105e-03
93 1 3.893e+00 5.662e+00 9.204e+00 -4.079e-03 -2.631e-03 -2.241e-03
94 1 9.206e+00 5.662e+00 7.433e+00 -2.592e-03 -4.068e-03 -2.765e-03
95 1 7.435e+00 5.663e+00 9.203e+00 -2.191e-03 -2.229e-03 -2.854e-03
96 1 3.523e-01 7.434e+00 7.433e+00 -1.411e-03 -4.650e-03 -5.716e-04
97 1 2.124e+00 9.195e+00 7.434e+00 8.667e-04 -1.127e-02 -3.683e-03
98 1 2.124e+00 7.433e+00 9.206e+00 -3.294e-03 -5.580e-03 -1.389e-03
99 1 3.561e-01 9.206e+00 9.202e+00 -2.539e-03 -1.583e-03 -1.571e-03
100 1 3.896e+00 7.435e+00 7.432e+00 -3.887e-03 -1.667e-03 -3.073e-03
101 1 5.662e+00 9.208e+00 7.432e+00 -2.832e-03 -2.042e-03 -1.506e-03
102 1 5.662e+00 7.436e+00 9.203e+00 -2.560e-03 -2.314e-03 -1.752e-03
103 1 3.892e+00 9.207e+00 9.202e+00 -1.104e-03 -4.191e-03 -1.470e-03
104 1 7.436e+00 7.434e+00 7.436e+00 -2.725e-03 -1.660e-03 -2.192e-03
105 1 9.207e+00 9.208e+00 7.433e+00 -4.069e-03 2.338e-03 -1.950e-03
106 1 9.205e+00 7.434e+00 9.201e+00 -2.826e-03 -2.387e-03 -2.033e-03