ITEM: TIMESTEP
0
ITEM: NUMBER OF ATOMS
89
ITEM: BOX BOUNDS xy xz yz pp pp pp
                     0.00000000000000e+00 1.06200000000000e+01 0.00000000000000e+00
0.00000000000000e+00	1.06200000000000e+01	0.00000000000000e+00
0.00000000000000e+00	1.06200000000000e+01	0.00000000000000e+00
ITEM: ATOMS id type x y z DisplacementX DisplacementY DisplacementZ
1 1 -1.016e-03 -5.978e+00 -4.933e-04 -1.304e-02 -4.297e-02 -5.319e-03
2 1 3.548e+00 -2.489e+00 3.545e+00 1.963e-02 -8.289e-02 -1.054e-01
3 1 -3.546e+00 -2.492e+00 -3.545e+00 -2.930e-02 -2.937e-02 4.031e-02
4 1 -3.547e+00 -2.488e+00 3.546e+00 -2.065e-02 -4.216e-02 9.647e-02
5 1 3.547e+00 -2.491e+00 -3.546e+00 2.945e-03 -1.548e-02 -7.925e-03
6 1 1.777e+00 -4.254e+00 3.544e+00 -3.342e-03 -1.126e-01 -1.720e-01
7 1 3.544e+00 -4.254e+00 1.778e+00 1.568e-03 -1.299e-01 -2.223e-01
8 1 -1.776e+00 -4.256e+00 3.546e+00 -1.824e-02 -5.899e-02 -1.799e-02
9 1 3.544e+00 -4.253e+00 -1.776e+00 -9.402e-03 -7.206e-02 -7.439e-02
10 1 -3.545e+00 -4.254e+00 -1.779e+00 -4.197e-02 -5.526e-02 6.776e-02
11 1 -1.778e+00 -4.256e+00 -3.545e+00 -3.774e-02 -5.088e-02 6.211e-02
12 1 -3.543e+00 -4.254e+00 1.777e+00 -1.834e-02 -4.504e-02 9.628e-03
13 1 1.777e+00 -4.255e+00 -3.546e+00 -1.018e-02 -3.641e-02 -2.082e-03
14 1 -8.452e-05 4.667e+00 -3.619e+00 1.355e-01 3.571e-01 1.600e-01
15 1 -3.618e+00 4.670e+00 -1.524e-03 1.942e-01 3.568e-01 1.478e-02
16 1 3.620e+00 4.669e+00 1.482e-03 -5.609e-02 6.465e-02 3.278e-01
17 1 4.260e-04 4.668e+00 3.618e+00 1.551e-01 2.408e-01 1.422e-01
18 1 5.302e+00 1.054e+00 1.769e+00 3.672e-03 1.122e-02 1.618e-01
19 1 1.772e+00 1.052e+00 5.302e+00 5.528e-02 6.131e-02 1.467e-01
20 1 1.771e+00 1.052e+00 -5.301e+00 1.840e-02 5.191e-02 -3.442e-02
21 1 -5.301e+00 1.053e+00 1.770e+00 -2.106e-02 -5.730e-03 9.506e-02
22 1 -1.769e+00 1.052e+00 -5.303e+00 2.109e-02 5.981e-02 -7.829e-02
23 1 -5.304e+00 1.054e+00 -1.770e+00 2.566e-02 6.839e-02 -5.161e-02
24 1 5.303e+00 1.054e+00 -1.770e+00 -1.064e-02 1.873e-02 6.246e-02
25 1 -1.769e+00 1.051e+00 5.301e+00 2.551e-02 4.754e-02 1.687e-01
26 1 -1.300e-03 -7.210e-01 5.281e+00 1.972e-02 1.368e-02 1.229e-01
27 1 5.281e+00 -7.220e-01 -8.563e-05 3.562e-02 2.224e-02 1.637e-02
28 1 -5.280e+00 -7.224e-01 -9.507e-04 4.574e-03 2.711e-02 4.158e-02
29 1 -8.706e-04 -7.203e-01 -5.280e+00 4.085e-03 1.538e-02 -2.222e-02
30 1 -5.281e+00 2.826e+00 1.316e-03 6.889e-02 1.319e-01 -1.699e-02
31 1 8.186e-04 2.825e+00 -5.282e+00 7.175e-02 1.886e-01 1.577e-02
32 1 -3.980e-04 2.829e+00 5.280e+00 9.334e-02 1.221e-01 1.158e-01
33 1 5.280e+00 2.826e+00 6.495e-04 -5.225e-02 -1.665e-03 1.852e-01
34 1 -1.795e+00 4.607e+00 -1.794e+00 2.028e-01 3.755e-01 9.601e-02
35 1 1.792e+00 4.606e+00 1.796e+00 6.556e-02 1.142e-01 3.553e-01
36 1 1.796e+00 4.608e+00 -1.793e+00 4.043e-02 2.094e-01 3.077e-01
37 1 -1.794e+00 4.607e+00 1.793e+00 1.897e-01 2.845e-01 1.534e-01
38 1 3.524e+00 1.050e+00 3.525e+00 4.806e-02 4.250e-02 2.745e-01
39 1 -3.524e+00 1.053e+00 -3.524e+00 3.885e-02 9.980e-02 -3.531e-02
40 1 3.525e+00 1.052e+00 -3.522e+00 1.509e-02 5.891e-02 8.447e-02
41 1 -3.523e+00 1.055e+00 3.526e+00 2.586e-02 7.560e-02 2.311e-01
42 1 -2.401e-04 4.547e+00 1.153e-03 1.589e-01 3.099e-01 3.838e-01
43 1 -3.565e+00 2.818e+00 -1.810e+00 1.460e-01 2.888e-01 2.465e-02
44 1 -1.809e+00 2.819e+00 -3.565e+00 1.353e-01 2.982e-01 2.639e-02
45 1 -3.566e+00 2.820e+00 1.810e+00 1.409e-01 2.676e-01 1.106e-01
46 1 1.808e+00 2.819e+00 -3.566e+00 4.623e-02 1.928e-01 1.756e-01
47 1 1.811e+00 2.820e+00 3.566e+00 9.744e-02 1.279e-01 3.246e-01
48 1 3.567e+00 2.819e+00 1.811e+00 1.620e-02 6.676e-02 3.646e-01
49 1 -1.810e+00 2.820e+00 3.566e+00 1.410e-01 2.409e-01 2.181e-01
50 1 3.566e+00 2.819e+00 -1.810e+00 -2.081e-02 9.898e-02 3.171e-01
51 1 1.768e+00 -4.219e+00 -6.495e-04 3.262e-02 -3.453e-02 -1.464e-01
52 1 3.932e-04 -4.220e+00 1.768e+00 2.377e-02 -2.981e-02 -1.065e-01
53 1 1.254e-03 -4.219e+00 -1.768e+00 9.105e-03 -1.233e-04 -1.759e-03
54 1 -1.767e+00 -4.219e+00 2.149e-03 5.222e-03 2.279e-03 1.688e-02
55 1 3.618e+00 -2.563e+00 8.070e-04 6.652e-02 8.069e-03 -9.990e-02
56 1 1.849e-03 -2.564e+00 3.619e+00 4.580e-02 -1.027e-03 1.662e-02
57 1 1.142e-03 -2.562e+00 -3.618e+00 3.308e-02 6.181e-02 1.543e-02
58 1 -3.618e+00 -2.562e+00 1.397e-04 3.264e-02 6.944e-02 7.013e-02
59 1 -3.530e-04 2.105e+00 8.008e-04 1.191e-01 1.334e-01 6.474e-01
60 1 7.027e-04 -3.466e-04 2.571e-04 3.217e-01 5.124e-01 5.915e-01
61 1 1.809e+00 -7.140e-01 3.566e+00 9.766e-02 8.180e-02 1.606e-01
62 1 3.565e+00 -7.128e-01 1.811e+00 9.812e-02 7.049e-02 9.036e-02
63 1 -1.812e+00 -7.122e-01 3.565e+00 6.585e-02 1.118e-01 2.409e-01
64 1 3.566e+00 -7.142e-01 -1.810e+00 7.603e-02 8.621e-02 7.375e-02
65 1 -3.566e+00 -7.106e-01 -1.809e+00 7.287e-02 1.546e-01 5.684e-02
66 1 -1.810e+00 -7.143e-01 -3.566e+00 6.785e-02 1.510e-01 1.130e-02
67 1 -3.565e+00 -7.135e-01 1.811e+00 6.885e-02 1.462e-01 1.793e-01
68 1 1.810e+00 -7.129e-01 -3.566e+00 7.046e-02 1.252e-01 4.091e-02
69 1 1.286e-03 -8.622e-01 2.035e+00 2.569e-01 3.477e-01 3.452e-01
70 1 2.034e+00 -8.621e-01 2.959e-04 2.398e-01 3.032e-01 2.634e-01
71 1 -2.036e+00 -8.614e-01 7.557e-04 2.326e-01 3.975e-01 2.696e-01
72 1 -3.631e-04 -8.622e-01 -2.036e+00 2.128e-01 3.474e-01 2.089e-01
73 1 -2.035e+00 2.967e+00 9.370e-04 2.249e-01 3.922e-01 2.812e-01
74 1 -3.697e-04 2.967e+00 -2.037e+00 1.530e-01 3.439e-01 3.836e-01
75 1 -3.250e-04 2.967e+00 2.036e+00 2.045e-01 3.090e-01 4.717e-01
76 1 2.034e+00 2.967e+00 9.254e-04 4.586e-02 1.435e-01 5.751e-01
77 1 -2.494e-03 1.054e+00 -3.554e+00 8.828e-02 1.834e-01 1.686e-02
78 1 -3.552e+00 1.054e+00 1.377e-03 1.015e-01 2.101e-01 1.231e-01
79 1 3.555e+00 1.052e+00 2.342e-03 6.792e-02 1.168e-01 3.105e-01
80 1 2.016e-03 1.052e+00 3.554e+00 1.436e-01 2.071e-01 4.023e-01
81 1 1.794e+00 -2.501e+00 1.796e+00 1.243e-01 8.139e-02 -7.535e-02
82 1 -1.796e+00 -2.503e+00 1.795e+00 1.018e-01 1.589e-01 1.143e-01
83 1 1.795e+00 -2.500e+00 -1.794e+00 1.214e-01 1.678e-01 -3.673e-02
84 1 -1.794e+00 -2.502e+00 -1.794e+00 1.044e-01 2.081e-01 4.855e-02
85 1 -3.906e-04 -2.440e+00 5.970e-04 2.188e-01 2.937e-01 9.920e-02
86 1 1.675e+00 1.052e+00 1.674e+00 1.862e-01 2.279e-01 6.129e-01
87 1 -1.676e+00 1.051e+00 -1.676e+00 1.601e-01 2.843e-01 1.282e-01
88 1 1.675e+00 1.053e+00 -1.675e+00 1.484e-01 2.426e-01 2.677e-01
89 1 -1.675e+00 1.052e+00 1.675e+00 1.660e-01 2.665e-01 5.275e-01
ITEM: TIMESTEP
0
ITEM: NUMBER OF ATOMS
89
ITEM: BOX BOUNDS xy xz yz pp pp pp
                     0.00000000000000e+00 1.06200000000000e+01 0.00000000000000e+00
0.00000000000000e+00	1.06200000000000e+01	0.00000000000000e+00
0.00000000000000e+00	1.06200000000000e+01	0.00000000000000e+00
ITEM: ATOMS id type x y z DisplacementX DisplacementY DisplacementZ
90 1 -1.265e-03 -5.977e+00 -1.340e-03 1.025e-01 7.008e-02 -1.584e-01
91 1 3.545e+00 -2.489e+00 3.545e+00 2.181e-01 3.434e-01 2.354e-03
92 1 -3.545e+00 -2.489e+00 -3.545e+00 6.912e-03 1.368e-02 -4.836e-02
93 1 -3.546e+00 -2.489e+00 3.545e+00 1.572e-01 1.228e-01 -2.324e-01
94 1 3.545e+00 -2.489e+00 -3.545e+00 2.414e-02 -3.451e-02 -2.052e-01
95 1 1.777e+00 -4.257e+00 3.544e+00 2.531e-01 3.543e-01 -8.967e-02
96 1 3.545e+00 -4.255e+00 1.779e+00 1.926e-01 2.797e-01 -3.989e-02
97 1 -1.778e+00 -4.256e+00 3.543e+00 2.467e-01 2.335e-01 -3.054e-01
98 1 3.545e+00 -4.255e+00 -1.777e+00 3.460e-02 -4.641e-02 -1.667e-01
99 1 -3.544e+00 -4.255e+00 -1.776e+00 -7.467e-03 -5.216e-02 -4.170e-02
100 1 -1.779e+00 -4.255e+00 -3.543e+00 -9.695e-03 -5.861e-02 -4.712e-02
101 1 -3.545e+00 -4.255e+00 1.777e+00 1.600e-01 1.019e-01 -2.825e-01
102 1 1.778e+00 -4.255e+00 -3.544e+00 6.233e-03 -1.098e-01 -1.990e-01
103 1 2.368e-03 4.669e+00 -3.618e+00 1.993e-01 5.597e-01 2.874e-01
104 1 -3.619e+00 4.671e+00 -1.379e-03 2.732e-01 3.730e-01 -7.006e-02
105 1 3.619e+00 4.666e+00 1.225e-03 1.317e-01 3.977e-01 1.055e-01
106 1 -9.117e-04 4.668e+00 3.618e+00 2.256e-01 3.189e-01 -3.974e-01
107 1 5.301e+00 1.053e+00 1.770e+00 5.027e-02 1.546e-01 9.586e-02
108 1 1.769e+00 1.053e+00 5.301e+00 1.330e-01 2.709e-01 -7.062e-02
109 1 1.770e+00 1.053e+00 -5.303e+00 4.206e-02 1.844e-01 -3.938e-02
110 1 -5.302e+00 1.053e+00 1.771e+00 1.172e-02 2.170e-02 1.629e-02
111 1 -1.770e+00 1.054e+00 -5.302e+00 -2.105e-02 1.007e-01 -4.295e-02
112 1 -5.301e+00 1.053e+00 -1.770e+00 7.470e-03 2.423e-02 -3.339e-02
113 1 5.302e+00 1.053e+00 -1.771e+00 2.131e-02 9.803e-02 -2.398e-04
114 1 -1.770e+00 1.053e+00 5.303e+00 5.238e-02 1.242e-01 -1.001e-01
115 1 3.640e-04 -7.194e-01 5.279e+00 1.099e-01 1.950e-01 -4.973e-02
116 1 5.280e+00 -7.200e-01 9.240e-04 4.158e-02 9.027e-02 2.210e-03
117 1 -5.280e+00 -7.194e-01 -2.369e-03 -2.708e-03 -6.939e-03 -8.283e-03
118 1 1.102e-03 -7.237e-01 -5.278e+00 1.234e-02 8.247e-02 -1.369e-01
119 1 -5.280e+00 2.826e+00 -1.304e-03 1.060e-01 1.560e-01 -7.605e-03
120 1 3.325e-04 2.826e+00 -5.280e+00 6.464e-02 3.170e-01 1.309e-01
121 1 -1.887e-04 2.825e+00 5.282e+00 1.146e-01 2.244e-01 -2.382e-01
122 1 5.279e+00 2.826e+00 3.021e-04 4.767e-02 2.197e-01 1.323e-01
123 1 -1.794e+00 4.607e+00 -1.795e+00 2.610e-01 4.257e-01 2.638e-02
124 1 1.793e+00 4.608e+00 1.795e+00 2.046e-01 3.291e-01 -2.171e-01
125 1 1.793e+00 4.605e+00 -1.795e+00 2.434e-01 5.484e-01 1.129e-01
126 1 -1.794e+00 4.606e+00 1.793e+00 2.815e-01 3.029e-01 -3.151e-01
127 1 3.524e+00 1.052e+00 3.526e+00 1.140e-01 2.477e-01 -1.479e-02
128 1 -3.526e+00 1.054e+00 -3.524e+00 -7.105e-03 5.962e-02 -5.249e-02
129 1 3.525e+00 1.052e+00 -3.524e+00 7.469e-02 1.958e-01 -4.260e-02
130 1 -3.525e+00 1.052e+00 3.524e+00 2.563e-02 5.952e-02 -4.108e-02
131 1 3.095e-04 4.548e+00 -2.089e-04 2.588e-01 3.401e-01 -1.704e-01
132 1 -3.566e+00 2.821e+00 -1.809e+00 1.470e-01 2.592e-01 -9.615e-03
133 1 -1.809e+00 2.820e+00 -3.564e+00 1.139e-01 3.500e-01 8.643e-02
134 1 -3.566e+00 2.818e+00 1.810e+00 1.729e-01 2.269e-01 -1.700e-01
135 1 1.810e+00 2.819e+00 -3.564e+00 1.453e-01 4.439e-01 1.283e-01
136 1 1.811e+00 2.816e+00 3.566e+00 1.452e-01 2.673e-01 -2.631e-01
137 1 3.567e+00 2.818e+00 1.812e+00 1.078e-01 2.857e-01 -6.605e-02
138 1 -1.810e+00 2.818e+00 3.564e+00 1.550e-01 2.193e-01 -2.772e-01
139 1 3.565e+00 2.820e+00 -1.808e+00 1.135e-01 3.567e-01 1.244e-01
140 1 1.770e+00 -4.220e+00 -2.356e-04 1.338e-01 1.119e-01 -2.084e-01
141 1 2.691e-04 -4.220e+00 1.768e+00 2.239e-01 2.077e-01 -3.126e-01
142 1 -2.089e-04 -4.219e+00 -1.768e+00 3.470e-02 -5.642e-02 -2.168e-01
143 1 -1.768e+00 -4.219e+00 1.383e-03 9.234e-02 1.946e-02 -2.550e-01
144 1 3.620e+00 -2.563e+00 -5.286e-04 1.152e-01 1.564e-01 -1.185e-01
145 1 3.118e-04 -2.563e+00 3.619e+00 2.263e-01 2.730e-01 -2.116e-01
146 1 1.491e-03 -2.562e+00 -3.618e+00 3.751e-02 3.425e-02 -1.914e-01
147 1 -3.619e+00 -2.562e+00 -7.080e-04 5.371e-02 2.508e-02 -1.442e-01
148 1 -1.483e-03 2.106e+00 1.442e-04 3.352e-02 -4.372e-02 -1.012e-01
149 1 3.422e-04 -1.318e-03 3.208e-05 2.222e-02 5.882e-02 -9.703e-02
150 1 1.810e+00 -7.139e-01 3.565e+00 1.718e-01 3.047e-01 -1.020e-01
151 1 3.567e+00 -7.132e-01 1.810e+00 1.308e-01 2.479e-01 -4.449e-02
152 1 -1.810e+00 -7.142e-01 3.564e+00 9.389e-02 1.283e-01 -1.722e-01
153 1 3.565e+00 -7.131e-01 -1.808e+00 3.984e-02 7.073e-02 -1.237e-01
154 1 -3.567e+00 -7.126e-01 -1.809e+00 3.294e-02 7.843e-02 -7.882e-02
155 1 -1.810e+00 -7.136e-01 -3.565e+00 4.299e-02 1.286e-01 -1.491e-01
156 1 -3.566e+00 -7.121e-01 1.809e+00 4.481e-02 4.470e-02 -1.006e-01
157 1 1.809e+00 -7.132e-01 -3.567e+00 5.110e-02 1.009e-01 -1.821e-01
158 1 2.546e-04 -8.610e-01 2.036e+00 9.515e-02 1.518e-01 -2.151e-01
159 1 2.035e+00 -8.628e-01 -6.072e-04 6.904e-02 1.211e-01 -1.543e-01
160 1 -2.035e+00 -8.612e-01 -4.053e-04 4.256e-02 6.367e-02 -1.346e-01
161 1 -1.014e-03 -8.599e-01 -2.036e+00 8.554e-02 1.776e-01 -2.085e-01
162 1 -2.037e+00 2.966e+00 -1.505e-04 2.406e-01 2.748e-01 -1.527e-01
163 1 -3.192e-04 2.967e+00 -2.035e+00 2.161e-01 4.485e-01 3.716e-02
164 1 5.930e-04 2.967e+00 2.035e+00 1.977e-01 2.270e-01 -4.584e-01
165 1 2.035e+00 2.968e+00 -7.651e-04 1.432e-01 2.835e-01 -8.406e-02
166 1 -8.584e-04 1.052e+00 -3.553e+00 5.817e-02 2.377e-01 -1.056e-01
167 1 -3.556e+00 1.053e+00 -2.452e-04 2.783e-02 5.854e-02 -3.742e-02
168 1 3.552e+00 1.053e+00 5.717e-04 6.542e-02 1.904e-01 -4.202e-02
169 1 1.566e-03 1.051e+00 3.553e+00 1.029e-01 2.173e-01 -1.933e-01
170 1 1.793e+00 -2.501e+00 1.794e+00 2.447e-01 3.686e-01 -1.613e-01
171 1 -1.794e+00 -2.501e+00 1.794e+00 1.873e-01 1.826e-01 -3.203e-01
172 1 1.795e+00 -2.502e+00 -1.794e+00 7.543e-02 6.297e-02 -2.917e-01
173 1 -1.793e+00 -2.501e+00 -1.795e+00 4.773e-02 5.961e-02 -1.846e-01
174 1 6.910e-04 -2.441e+00 4.430e-04 1.058e-01 1.048e-01 -2.562e-01
175 1 1.676e+00 1.052e+00 1.676e+00 1.217e-01 2.552e-01 -1.184e-01
176 1 -1.676e+00 1.052e+00 -1.675e+00 5.848e-02 1.543e-01 -1.516e-01
177 1 1.676e+00 1.053e+00 -1.678e+00 1.293e-01 2.957e-01 -1.791e-01
178 1 -1.676e+00 1.053e+00 1.677e+00 4.382e-02 8.789e-02 -8.157e-02
ITEM: TIMESTEP
0
ITEM: NUMBER OF ATOMS
89
ITEM: BOX BOUNDS xy xz yz pp pp pp
                     0.00000000000000e+00 1.06200000000000e+01 0.00000000000000e+00
0.00000000000000e+00	1.06200000000000e+01	0.00000000000000e+00
0.00000000000000e+00	1.06200000000000e+01	0.00000000000000e+00
ITEM: ATOMS id type x y z DisplacementX DisplacementY DisplacementZ
179 1 -8.464e-04 -5.979e+00 6.806e-04 -2.266e-02 -4.643e-02 9.182e-03
180 1 3.546e+00 -2.489e+00 3.546e+00 -1.401e-01 -6.595e-02 1.404e-01
181 1 -3.547e+00 -2.491e+00 -3.543e+00 -1.611e-02 -1.559e-02 -3.010e-02
182 1 -3.545e+00 -2.490e+00 3.547e+00 -1.493e-04 -7.588e-02 -1.629e-01
183 1 3.546e+00 -2.489e+00 -3.543e+00 -1.703e-01 -9.305e-02 1.204e-01
184 1 1.778e+00 -4.254e+00 3.544e+00 -1.126e-01 -1.028e-01 9.327e-02
185 1 3.543e+00 -4.256e+00 1.778e+00 -1.810e-01 -1.396e-01 1.788e-01
186 1 -1.778e+00 -4.255e+00 3.544e+00 -1.494e-02 -1.168e-01 -1.538e-01
187 1 3.545e+00 -4.257e+00 -1.778e+00 -1.953e-01 -1.595e-01 2.042e-01
188 1 -3.545e+00 -4.255e+00 -1.779e+00 -9.723e-03 -5.731e-02 -4.447e-02
189 1 -1.777e+00 -4.255e+00 -3.543e+00 -4.411e-02 -6.619e-02 3.413e-02
190 1 -3.544e+00 -4.256e+00 1.777e+00 -8.129e-03 -1.219e-01 -1.770e-01
191 1 1.780e+00 -4.257e+00 -3.544e+00 -1.544e-01 -1.367e-01 1.741e-01
192 1 -9.113e-04 4.668e+00 -3.619e+00 -3.439e-02 2.648e-01 4.179e-01
193 1 -3.618e+00 4.669e+00 -1.421e-03 1.450e-01 2.209e-01 -6.576e-02
194 1 3.617e+00 4.669e+00 9.080e-04 -2.590e-01 -1.474e-02 4.084e-01
195 1 7.996e-05 4.670e+00 3.617e+00 -1.041e-01 -1.254e-02 -7.301e-02
196 1 5.301e+00 1.053e+00 1.771e+00 -3.284e-01 -2.358e-01 3.122e-01
197 1 1.769e+00 1.052e+00 5.304e+00 -4.977e-02 6.216e-02 7.080e-02
198 1 1.770e+00 1.054e+00 -5.303e+00 -2.406e-01 -1.427e-01 2.441e-01
199 1 -5.300e+00 1.054e+00 1.771e+00 1.446e-02 4.213e-02 -5.032e-02
200 1 -1.771e+00 1.052e+00 -5.302e+00 -1.649e-01 -8.362e-02 1.085e-01
201 1 -5.301e+00 1.052e+00 -1.770e+00 1.633e-02 4.752e-02 -6.415e-02
202 1 5.302e+00 1.053e+00 -1.771e+00 -3.673e-01 -2.688e-01 3.644e-01
203 1 -1.770e+00 1.053e+00 5.300e+00 -3.106e-02 7.258e-02 2.678e-02
204 1 2.289e-03 -7.214e-01 5.279e+00 -2.052e-02 6.407e-02 6.903e-02
205 1 5.279e+00 -7.214e-01 1.773e-03 -3.294e-01 -2.276e-01 3.020e-01
206 1 -5.280e+00 -7.215e-01 -3.532e-04 2.026e-03 5.619e-03 -2.355e-02
207 1 -3.637e-04 -7.197e-01 -5.280e+00 -1.792e-01 -9.830e-02 1.274e-01
208 1 -5.281e+00 2.828e+00 5.793e-04 6.784e-02 1.064e-01 -5.714e-02
209 1 5.273e-04 2.827e+00 -5.281e+00 -1.513e-01 3.283e-02 3.194e-01
210 1 -9.235e-04 2.825e+00 5.279e+00 -8.104e-02 3.147e-02 1.484e-02
211 1 5.278e+00 2.826e+00 -8.634e-04 -3.523e-01 -2.043e-01 4.260e-01
212 1 -1.793e+00 4.606e+00 -1.795e+00 1.017e-01 2.390e-01 6.294e-02
213 1 1.795e+00 4.607e+00 1.795e+00 -1.766e-01 -6.784e-02 6.254e-02
214 1 1.796e+00 4.606e+00 -1.795e+00 -1.021e-01 1.698e-01 3.553e-01
215 1 -1.796e+00 4.607e+00 1.794e+00 1.296e-02 1.456e-02 -1.367e-01
216 1 3.526e+00 1.053e+00 3.526e+00 -1.378e-01 -1.985e-02 1.357e-01
217 1 -3.525e+00 1.052e+00 -3.522e+00 -4.134e-02 1.998e-02 2.634e-06
218 1 3.524e+00 1.053e+00 -3.524e+00 -2.641e-01 -1.359e-01 2.981e-01
219 1 -3.525e+00 1.053e+00 3.524e+00 2.308e-03 7.090e-02 -1.851e-02
220 1 -2.444e-04 4.548e+00 5.694e-04 -2.354e-02 7.214e-02 6.516e-02
221 1 -3.565e+00 2.818e+00 -1.810e+00 8.168e-02 1.625e-01 2.300e-03
222 1 -1.811e+00 2.818e+00 -3.566e+00 -2.415e-02 1.759e-01 1.641e-01
223 1 -3.567e+00 2.817e+00 1.809e+00 7.697e-02 1.310e-01 -1.099e-01
224 1 1.809e+00 2.820e+00 -3.566e+00 -1.882e-01 7.179e-02 4.196e-01
225 1 1.810e+00 2.818e+00 3.566e+00 -1.355e-01 -4.350e-04 7.548e-02
226 1 3.564e+00 2.820e+00 1.810e+00 -2.462e-01 -6.506e-02 2.442e-01
227 1 -1.810e+00 2.819e+00 3.565e+00 -3.814e-02 5.917e-02 -1.071e-02
228 1 3.568e+00 2.820e+00 -1.810e+00 -3.004e-01 -6.875e-02 5.138e-01
229 1 1.767e+00 -4.219e+00 -8.675e-04 -1.381e-01 -5.209e-02 1.208e-01
230 1 -1.174e-03 -4.220e+00 1.768e+00 -3.077e-02 -2.504e-02 -7.330e-02
231 1 -2.428e-03 -4.218e+00 -1.769e+00 -6.486e-02 -2.166e-02 5.194e-02
232 1 -1.769e+00 -4.217e+00 -4.372e-05 1.302e-02 -2.017e-02 -1.152e-01
233 1 3.619e+00 -2.561e+00 5.757e-04 -2.457e-01 -7.805e-02 2.647e-01
234 1 -7.475e-04 -2.562e+00 3.619e+00 -2.064e-02 3.402e-02 1.729e-02
235 1 -5.786e-04 -2.563e+00 -3.617e+00 -1.008e-01 1.702e-02 1.116e-01
236 1 -3.620e+00 -2.564e+00 5.293e-04 2.888e-02 8.897e-03 -8.152e-02
237 1 -2.438e-04 2.108e+00 -2.312e-04 -4.753e-02 -6.464e-02 1.645e-01
238 1 -4.841e-04 -1.524e-03 -2.255e-04 1.164e-01 4.017e-01 3.791e-01
239 1 1.810e+00 -7.138e-01 3.567e+00 -5.792e-02 1.090e-01 1.801e-01
240 1 3.566e+00 -7.138e-01 1.809e+00 -2.072e-01 -1.277e-02 2.770e-01
241 1 -1.809e+00 -7.139e-01 3.564e+00 1.758e-02 9.628e-02 6.497e-02
242 1 3.566e+00 -7.141e-01 -1.811e+00 -2.824e-01 -9.126e-02 3.275e-01
243 1 -3.566e+00 -7.120e-01 -1.811e+00 3.328e-02 1.024e-01 -1.290e-02
244 1 -1.810e+00 -7.115e-01 -3.568e+00 -6.149e-02 5.881e-02 7.177e-02
245 1 -3.566e+00 -7.121e-01 1.808e+00 4.791e-02 9.262e-02 -4.417e-02
246 1 1.810e+00 -7.140e-01 -3.566e+00 -2.051e-01 -2.562e-02 2.175e-01
247 1 5.936e-04 -8.625e-01 2.036e+00 1.098e-01 3.921e-01 2.135e-01
248 1 2.034e+00 -8.605e-01 -7.477e-04 -5.468e-02 2.989e-01 2.888e-01
249 1 -2.035e+00 -8.606e-01 5.579e-04 1.057e-01 2.916e-01 1.629e-01
250 1 -6.359e-04 -8.622e-01 -2.035e+00 1.661e-02 3.176e-01 1.954e-01
251 1 -2.033e+00 2.967e+00 -1.086e-03 8.036e-02 1.127e-01 -5.422e-02
252 1 1.420e-03 2.966e+00 -2.035e+00 -2.138e-02 1.988e-01 2.434e-01
253 1 -3.678e-04 2.967e+00 2.035e+00 -4.864e-02 3.053e-02 -5.571e-02
254 1 2.035e+00 2.967e+00 -1.015e-03 -1.869e-01 6.329e-03 2.463e-01
255 1 -4.105e-04 1.053e+00 -3.554e+00 -1.785e-01 -3.226e-03 1.812e-01
256 1 -3.556e+00 1.052e+00 -2.474e-03 4.973e-02 1.157e-01 -2.388e-02
257 1 3.554e+00 1.053e+00 1.243e-05 -3.233e-01 -1.271e-01 3.923e-01
258 1 -6.869e-04 1.053e+00 3.556e+00 -1.864e-02 1.415e-01 1.414e-01
259 1 1.793e+00 -2.502e+00 1.794e+00 -1.043e-01 8.922e-02 2.156e-01
260 1 -1.795e+00 -2.503e+00 1.796e+00 5.297e-02 9.268e-02 -8.253e-02
261 1 1.794e+00 -2.501e+00 -1.792e+00 -1.368e-01 8.849e-02 1.957e-01
262 1 -1.793e+00 -2.500e+00 -1.793e+00 3.012e-02 1.513e-01 1.322e-03
263 1 1.132e-03 -2.440e+00 -7.392e-04 4.852e-02 2.889e-01 1.815e-01
264 1 1.675e+00 1.052e+00 1.677e+00 -6.330e-02 1.814e-01 2.563e-01
265 1 -1.674e+00 1.052e+00 -1.675e+00 1.891e-02 1.836e-01 1.441e-02
266 1 1.674e+00 1.052e+00 -1.675e+00 -1.394e-01 1.379e-01 2.088e-01
267 1 -1.674e+00 1.053e+00 1.676e+00 5.828e-02 2.055e-01 1.352e-01
ITEM: TIMESTEP
0
ITEM: NUMBER OF ATOMS
89
ITEM: BOX BOUNDS xy xz yz pp pp pp
                     0.00000000000000e+00 1.06200000000000e+01 0.00000000000000e+00
0.00000000000000e+00	1.06200000000000e+01	0.00000000000000e+00
0.00000000000000e+00	1.06200000000000e+01	0.00000000000000e+00
ITEM: ATOMS id type x y z DisplacementX DisplacementY DisplacementZ
268 1 8.938e-04 -5.979e+00 -3.459e-04 2.252e-02 3.780e-02 3.733e-02
269 1 3.544e+00 -2.488e+00 3.545e+00 -7.102e-03 -1.649e-02 2.698e-02
270 1 -3.545e+00 -2.488e+00 -3.546e+00 -1.048e-02 -2.267e-02 2.580e-02
271 1 -3.547e+00 -2.491e+00 3.545e+00 7.855e-03 1.841e-02 5.122e-02
272 1 3.546e+00 -2.491e+00 -3.546e+00 2.271e-02 3.814e-02 3.739e-02
273 1 1.779e+00 -4.256e+00 3.544e+00 -7.102e-03 -1.649e-02 2.698e-02
274 1 3.545e+00 -4.257e+00 1.777e+00 -3.682e-03 -1.022e-02 2.817e-02
275 1 -1.779e+00 -4.255e+00 3.545e+00 -1.048e-02 -2.267e-02 2.580e-02
276 1 3.543e+00 -4.255e+00 -1.777e+00 2.613e-02 4.441e-02 3.859e-02
277 1 -3.542e+00 -4.257e+00 -1.776e+00 -1.048e-02 -2.267e-02 2.580e-02
278 1 -1.779e+00 -4.255e+00 -3.544e+00 -1.048e-02 -2.267e-02 2.580e-02
279 1 -3.544e+00 -4.257e+00 1.778e+00 -1.048e-02 -2.267e-02 2.580e-02
280 1 1.777e+00 -4.254e+00 -3.546e+00 2.271e-02 3.814e-02 3.739e-02
281 1 -3.930e-04 4.668e+00 -3.619e+00 2.710e-02 -2.437e-01 1.396e-01
282 1 -3.620e+00 4.668e+00 -6.425e-04 -2.406e-02 -4.467e-01 -8.756e-02
283 1 3.620e+00 4.668e+00 5.934e-05 -5.170e-03 -1.477e-01 -2.123e-01
284 1 -1.411e-03 4.668e+00 3.619e+00 -6.762e-03 -2.997e-01 -3.410e-01
285 1 5.302e+00 1.054e+00 1.771e+00 -2.164e-02 -4.933e-02 1.445e-02
286 1 1.769e+00 1.052e+00 5.302e+00 -1.200e-02 -2.563e-02 -1.794e-03
287 1 1.771e+00 1.052e+00 -5.303e+00 -2.026e-02 -7.086e-02 5.659e-02
288 1 -5.301e+00 1.052e+00 1.770e+00 1.572e-02 4.423e-02 7.120e-02
289 1 -1.771e+00 1.053e+00 -5.302e+00 -5.584e-02 -1.425e-01 6.979e-02
290 1 -5.303e+00 1.053e+00 -1.771e+00 -1.911e-02 -4.432e-02 5.507e-02
291 1 5.302e+00 1.052e+00 -1.771e+00 -1.808e-02 -3.640e-02 -1.607e-02
292 1 -1.771e+00 1.054e+00 5.303e+00 1.999e-02 6.094e-02 -1.309e-02
293 1 1.352e-03 -7.201e-01 5.280e+00 1.055e-02 2.866e-02 2.757e-03
294 1 5.280e+00 -7.215e-01 1.883e-03 -8.430e-03 -1.674e-02 1.264e-02
295 1 -5.281e+00 -7.216e-01 1.206e-03 1.965e-02 4.556e-02 5.866e-02
296 1 -6.126e-04 -7.192e-01 -5.281e+00 -2.903e-02 -6.515e-02 2.159e-02
297 1 -5.281e+00 2.827e+00 3.315e-04 -6.123e-03 -1.257e-01 2.545e-02
298 1 -1.205e-03 2.828e+00 -5.280e+00 -2.060e-02 -1.521e-01 1.804e-01
299 1 3.333e-04 2.829e+00 5.280e+00 1.804e-03 -6.349e-02 -1.262e-01
300 1 5.280e+00 2.827e+00 -1.952e-04 -1.700e-02 -4.948e-02 -3.915e-02
301 1 -1.792e+00 4.605e+00 -1.794e+00 -1.415e-01 -7.402e-01 4.962e-02
302 1 1.794e+00 4.607e+00 1.795e+00 -1.293e-01 -5.443e-01 -3.101e-01
303 1 1.794e+00 4.607e+00 -1.794e+00 -7.025e-02 -4.060e-01 -9.272e-02
304 1 -1.794e+00 4.608e+00 1.793e+00 -1.015e-01 -6.400e-01 -2.881e-01
305 1 3.525e+00 1.053e+00 3.526e+00 -7.875e-02 -1.848e-01 5.562e-02
306 1 -3.524e+00 1.053e+00 -3.526e+00 -1.235e-01 -2.920e-01 1.378e-01
307 1 3.525e+00 1.053e+00 -3.526e+00 -8.056e-02 -1.959e-01 4.170e-02
308 1 -3.527e+00 1.055e+00 3.525e+00 6.878e-03 2.317e-02 1.004e-01
309 1 2.069e-04 4.547e+00 -1.363e-04 -1.790e-01 -8.504e-01 -2.429e-01
310 1 -3.566e+00 2.819e+00 -1.811e+00 -1.042e-01 -4.637e-01 1.341e-01
311 1 -1.809e+00 2.818e+00 -3.566e+00 -8.247e-02 -3.903e-01 1.775e-01
312 1 -3.566e+00 2.819e+00 1.810e+00 -1.142e-02 -2.345e-01 -3.423e-02
313 1 1.810e+00 2.819e+00 -3.566e+00 -4.113e-02 -2.343e-01 7.035e-02
314 1 1.809e+00 2.819e+00 3.566e+00 -7.996e-02 -3.153e-01 -1.369e-01
315 1 3.565e+00 2.819e+00 1.810e+00 -8.548e-02 -2.663e-01 -1.217e-01
316 1 -1.811e+00 2.818e+00 3.567e+00 -7.919e-03 -1.936e-01 -1.241e-01
317 1 3.567e+00 2.818e+00 -1.809e+00 -6.489e-02 -2.178e-01 -4.769e-02
318 1 1.766e+00 -4.218e+00 5.371e-04 3.070e-02 5.612e-02 1.171e-02
319 1 -2.011e-04 -4.218e+00 1.769e+00 1.406e-02 2.562e-02 5.894e-03
320 1 -2.388e-03 -4.218e+00 -1.768e+00 2.573e-02 4.701e-02 9.973e-03
321 1 -1.768e+00 -4.219e+00 1.148e-03 1.141e-02 2.076e-02 4.968e-03
322 1 3.619e+00 -2.562e+00 5.052e-04 5.855e-03 6.778e-03 3.461e-02
323 1 4.213e-04 -2.563e+00 3.618e+00 1.325e-02 3.014e-02 7.675e-02
324 1 -2.879e-04 -2.564e+00 -3.621e+00 3.586e-03 6.771e-03 1.338e-02
325 1 -3.618e+00 -2.563e+00 -1.327e-04 2.653e-02 6.073e-02 8.070e-02
326 1 -3.445e-04 2.106e+00 -1.339e-03 -4.220e-01 -1.093e+00 2.296e-01
327 1 -4.360e-04 -9.862e-04 -7.651e-04 -1.562e-01 -3.705e-01 3.861e-01
328 1 1.810e+00 -7.137e-01 3.566e+00 -1.847e-02 -4.270e-02 8.206e-02
329 1 3.566e+00 -7.141e-01 1.809e+00 -4.610e-02 -1.046e-01 4.478e-02
330 1 -1.809e+00 -7.136e-01 3.566e+00 2.665e-02 6.505e-02 1.469e-01
331 1 3.566e+00 -7.123e-01 -1.810e+00 -5.254e-02 -1.183e-01 3.357e-02
332 1 -3.563e+00 -7.127e-01 -1.812e+00 1.817e-03 2.198e-03 1.178e-01
333 1 -1.809e+00 -7.129e-01 -3.568e+00 -5.590e-02 -1.276e-01 5.630e-02
334 1 -3.565e+00 -7.140e-01 1.810e+00 4.540e-02 1.077e-01 1.606e-01
335 1 1.808e+00 -7.140e-01 -3.565e+00 -6.387e-02 -1.436e-01 2.300e-02
336 1 -1.318e-03 -8.608e-01 2.035e+00 -1.100e-02 -2.971e-02 2.382e-01
337 1 2.033e+00 -8.629e-01 -4.673e-04 -8.364e-02 -1.933e-01 1.588e-01
338 1 -2.034e+00 -8.636e-01 3.076e-04 2.576e-03 -1.541e-03 2.836e-01
339 1 1.056e-03 -8.608e-01 -2.034e+00 -8.544e-02 -1.985e-01 1.735e-01
340 1 -2.036e+00 2.967e+00 -1.675e-04 -1.983e-01 -8.379e-01 2.787e-02
341 1 -2.864e-03 2.967e+00 -2.034e+00 -2.535e-01 -8.837e-01 1.322e-01
342 1 -1.268e-03 2.968e+00 2.036e+00 -2.059e-01 -7.652e-01 -2.077e-01
343 1 2.037e+00 2.968e+00 9.301e-04 -2.356e-01 -7.320e-01 -1.421e-01
344 1 -1.079e-03 1.053e+00 -3.553e+00 -1.662e-01 -4.122e-01 9.428e-02
345 1 -3.554e+00 1.053e+00 1.947e-03 -7.469e-02 -1.896e-01 2.055e-01
346 1 3.553e+00 1.053e+00 -1.600e-04 -1.399e-01 -3.207e-01 2.412e-04
347 1 -9.484e-04 1.054e+00 3.554e+00 -5.671e-02 -1.434e-01 1.133e-01
348 1 1.795e+00 -2.502e+00 1.796e+00 7.442e-03 1.782e-02 4.864e-02
349 1 -1.795e+00 -2.501e+00 1.794e+00 4.384e-02 1.016e-01 9.403e-02
350 1 1.795e+00 -2.501e+00 -1.794e+00 1.494e-02 2.963e-02 -2.774e-03
351 1 -1.793e+00 -2.501e+00 -1.794e+00 1.863e-02 4.843e-02 1.826e-02
352 1 4.308e-04 -2.442e+00 5.691e-04 1.235e-02 2.699e-02 1.559e-01
353 1 1.675e+00 1.054e+00 1.676e+00 -1.840e-01 -4.433e-01 1.823e-01
354 1 -1.675e+00 1.053e+00 -1.675e+00 -2.336e-01 -5.669e-01 2.612e-01
355 1 1.676e+00 1.052e+00 -1.674e+00 -2.292e-01 -5.466e-01 9.589e-02
356 1 -1.677e+00 1.051e+00 1.676e+00 -9.121e-02 -2.337e-01 3.089e-01
ITEM: TIMESTEP
0
ITEM: NUMBER OF ATOMS
89
ITEM: BOX BOUNDS xy xz yz pp pp pp
                     0.00000000000000e+00 1.06200000000000e+01 0.00000000000000e+00
0.00000000000000e+00	1.06200000000000e+01	0.00000000000000e+00
0.00000000000000e+00	1.06200000000000e+01	0.00000000000000e+00
ITEM: ATOMS id type x y z DisplacementX DisplacementY DisplacementZ
357 1 7.680e-04 -5.978e+00 -6.218e-04 -1.048e-02 -2.267e-02 2.580e-02
358 1 3.546e+00 -2.491e+00 3.546e+00 -5.371e-03 -1.415e-02 4.906e-02
359 1 -3.545e+00 -2.490e+00 -3.546e+00 -2.560e-02 -4.727e-02 2.844e-02
360 1 -3.546e+00 -2.488e+00 3.544e+00 -9.345e-03 -3.530e-02 1.152e-03
361 1 3.544e+00 -2.489e+00 -3.546e+00 -1.027e-02 -3.213e-02 6.612e-03
362 1 1.778e+00 -4.254e+00 3.544e+00 -6.155e-03 -1.567e-02 4.505e-02
363 1 3.542e+00 -4.255e+00 1.781e+00 -6.155e-03 -1.567e-02 4.505e-02
364 1 -1.778e+00 -4.253e+00 3.545e+00 -1.017e-02 -3.690e-02 -3.062e-03
365 1 3.545e+00 -4.254e+00 -1.780e+00 -1.038e-02 -2.710e-02 1.682e-02
366 1 -3.543e+00 -4.254e+00 -1.779e+00 -1.048e-02 -2.267e-02 2.580e-02
367 1 -1.780e+00 -4.256e+00 -3.544e+00 -1.048e-02 -2.267e-02 2.580e-02
368 1 -3.544e+00 -4.257e+00 1.780e+00 -1.017e-02 -3.690e-02 -3.062e-03
369 1 1.777e+00 -4.255e+00 -3.545e+00 -1.038e-02 -2.710e-02 1.682e-02
370 1 -9.749e-04 4.669e+00 -3.617e+00 -4.216e-02 5.061e-02 3.204e-01
371 1 -3.618e+00 4.668e+00 -7.895e-04 9.257e-02 3.635e-02 1.049e-01
372 1 3.621e+00 4.669e+00 1.459e-03 7.131e-02 1.587e-01 8.816e-02
373 1 -6.599e-04 4.666e+00 3.618e+00 7.523e-02 -4.170e-02 -5.255e-02
374 1 5.301e+00 1.054e+00 1.772e+00 1.084e-02 3.312e-02 7.573e-02
375 1 1.769e+00 1.053e+00 5.303e+00 -2.329e-03 -6.891e-03 6.460e-02
376 1 1.770e+00 1.052e+00 -5.302e+00 -1.003e-01 -9.554e-02 1.048e-01
377 1 -5.300e+00 1.053e+00 1.769e+00 -9.964e-03 -4.627e-02 -2.209e-02
378 1 -1.769e+00 1.052e+00 -5.299e+00 -1.950e-01 -1.982e-01 2.314e-01
379 1 -5.302e+00 1.053e+00 -1.770e+00 -3.099e-02 -1.053e-01 -6.698e-02
380 1 5.302e+00 1.052e+00 -1.768e+00 7.988e-03 2.684e-02 -1.321e-02
381 1 -1.771e+00 1.052e+00 5.303e+00 -5.688e-03 -1.186e-02 6.095e-02
382 1 -6.115e-04 -7.228e-01 5.281e+00 -3.316e-03 -8.746e-03 6.248e-02
383 1 5.279e+00 -7.213e-01 1.069e-03 -2.083e-03 -8.559e-03 2.538e-03
384 1 -5.281e+00 -7.197e-01 1.281e-03 -9.638e-03 -6.119e-02 -5.235e-02
385 1 -5.194e-05 -7.212e-01 -5.282e+00 -8.901e-02 -8.868e-02 1.114e-01
386 1 -5.280e+00 2.826e+00 2.485e-03 2.695e-02 -1.206e-02 -2.857e-02
387 1 -3.755e-05 2.827e+00 -5.278e+00 -1.451e-01 -9.512e-02 2.743e-01
388 1 7.551e-04 2.827e+00 5.281e+00 1.035e-02 -4.143e-02 2.584e-02
389 1 5.279e+00 2.826e+00 1.688e-04 3.074e-02 9.850e-02 9.377e-02
390 1 -1.793e+00 4.605e+00 -1.796e+00 1.146e-02 -5.395e-02 1.900e-01
391 1 1.793e+00 4.607e+00 1.795e+00 5.418e-02 -6.801e-02 1.319e-02
392 1 1.794e+00 4.608e+00 -1.795e+00 1.683e-02 3.406e-02 7.890e-02
393 1 -1.794e+00 4.606e+00 1.793e+00 4.351e-02 -1.583e-01 2.529e-02
394 1 3.525e+00 1.053e+00 3.526e+00 -5.948e-03 -2.383e-02 1.437e-01
395 1 -3.527e+00 1.053e+00 -3.525e+00 -1.246e-01 -1.895e-01 1.184e-01
396 1 3.525e+00 1.052e+00 -3.525e+00 -2.675e-02 -4.667e-02 3.290e-02
397 1 -3.523e+00 1.052e+00 3.524e+00 -7.474e-03 -2.106e-02 1.140e-01
398 1 1.239e-03 4.545e+00 -1.234e-03 3.057e-02 -1.540e-01 8.035e-02
399 1 -3.566e+00 2.817e+00 -1.809e+00 -2.347e-02 -9.756e-02 1.457e-01
400 1 -1.809e+00 2.818e+00 -3.567e+00 -1.107e-01 -1.001e-01 2.959e-01
401 1 -3.567e+00 2.820e+00 1.810e+00 2.820e-02 -6.140e-02 8.341e-02
402 1 1.810e+00 2.818e+00 -3.566e+00 -7.035e-02 -2.631e-02 1.819e-01
403 1 1.811e+00 2.818e+00 3.566e+00 2.232e-02 -6.413e-02 1.080e-01
404 1 3.566e+00 2.820e+00 1.810e+00 3.488e-02 4.079e-02 1.107e-01
405 1 -1.810e+00 2.818e+00 3.565e+00 3.673e-02 -5.953e-02 1.069e-01
406 1 3.564e+00 2.820e+00 -1.811e+00 5.897e-03 6.337e-02 1.267e-01
407 1 1.768e+00 -4.220e+00 4.474e-05 1.917e-02 2.184e-02 5.215e-02
408 1 5.807e-04 -4.218e+00 1.767e+00 1.933e-02 1.425e-02 3.674e-02
409 1 2.351e-04 -4.219e+00 -1.768e+00 1.582e-02 1.642e-02 3.723e-02
410 1 -1.767e+00 -4.219e+00 2.493e-04 1.598e-02 8.829e-03 2.183e-02
411 1 3.619e+00 -2.564e+00 1.110e-03 3.142e-02 4.907e-02 6.329e-02
412 1 -1.468e-03 -2.563e+00 3.619e+00 2.275e-02 3.718e-02 1.192e-01