ITEM: TIMESTEP
0
ITEM: NUMBER OF ATOMS
47
ITEM: BOX BOUNDS xy xz yz pp pp pp
                     0.00000000000000e+00 1.06200000000000e+01 0.00000000000000e+00
0.00000000000000e+00	1.06200000000000e+01	0.00000000000000e+00
0.00000000000000e+00	1.06200000000000e+01	0.00000000000000e+00
ITEM: ATOMS id type x y z DisplacementX DisplacementY DisplacementZ
1 1 3.521e+00 4.737e-04 -3.522e+00 -1.122e-02 2.425e-03 1.311e-02
2 1 1.759e+00 1.773e+00 3.550e+00 -1.322e-02 -1.087e-02 1.929e-02
3 1 -3.548e+00 -1.771e+00 -1.762e+00 -1.031e-02 1.024e-02 2.231e-02
4 1 -3.550e+00 1.773e+00 -1.762e+00 -9.633e-03 -2.594e-03 1.036e-02
5 1 1.761e+00 -1.773e+00 3.551e+00 -1.364e-02 4.210e-03 9.575e-03
6 1 3.529e+00 3.538e+00 7.385e-03 -4.249e-03 7.222e-03 1.490e-02
7 1 -6.368e-03 -3.537e+00 -3.529e+00 -9.666e-03 1.812e-03 1.350e-02
8 1 -7.069e-03 3.539e+00 -3.528e+00 -1.563e-02 -1.164e-03 1.873e-02
9 1 3.530e+00 -3.536e+00 8.614e-03 -2.018e-02 -6.666e-03 1.874e-03
10 1 -3.548e+00 -1.768e+00 1.778e+00 -1.517e-02 4.950e-03 5.573e-03
11 1 -3.550e+00 1.770e+00 1.779e+00 1.300e-03 2.041e-03 1.224e-02
12 1 -1.778e+00 -1.770e+00 3.549e+00 -1.291e-02 -2.283e-03 5.045e-03
13 1 -1.779e+00 1.770e+00 3.549e+00 -1.532e-02 -2.239e-03 1.245e-02
14 1 -1.776e+00 -3.538e+00 1.780e+00 -1.882e-02 1.115e-02 2.682e-03
15 1 -1.779e+00 3.539e+00 1.778e+00 -4.443e-03 -6.100e-03 1.075e-02
16 1 1.761e+00 -1.760e+00 -3.521e+00 -1.908e-02 -1.212e-02 1.186e-02
17 1 1.760e+00 1.761e+00 -3.521e+00 -2.203e-02 -6.751e-04 5.823e-03
18 1 3.522e+00 -1.761e+00 -1.761e+00 -6.078e-03 -6.979e-03 1.750e-02
19 1 3.519e+00 1.760e+00 -1.761e+00 -7.839e-03 -5.943e-03 1.786e-02
20 1 1.760e+00 3.536e+00 1.775e+00 -8.064e-03 1.354e-03 1.073e-02
21 1 -1.776e+00 -3.538e+00 -1.760e+00 -2.051e-02 4.382e-03 1.871e-02
22 1 1.762e+00 -3.537e+00 1.777e+00 -1.542e-02 -1.151e-02 2.308e-02
23 1 -1.773e+00 3.538e+00 -1.760e+00 -1.385e-02 -6.706e-06 1.296e-02
24 1 3.528e+00 1.767e+00 1.778e+00 -1.467e-02 -4.674e-03 1.600e-02
25 1 -1.777e+00 -1.766e+00 -3.528e+00 -1.092e-02 3.199e-03 2.000e-02
26 1 -1.776e+00 1.770e+00 -3.530e+00 -1.698e-02 1.010e-02 2.391e-02
27 1 3.529e+00 -1.770e+00 1.776e+00 -1.617e-02 -1.186e-03 1.553e-02
28 1 3.522e+00 -4.323e-04 -3.067e-04 7.601e-03 -6.459e-04 2.576e-02
29 1 -3.634e-04 -1.466e-04 -3.523e+00 -1.764e-02 -3.603e-03 7.055e-03
30 1 1.762e+00 -3.550e+00 -1.759e+00 -1.406e-03 9.315e-03 8.209e-03
31 1 1.760e+00 3.549e+00 -1.759e+00 -8.857e-03 -1.290e-03 1.866e-02
32 1 -7.375e-03 3.538e+00 8.542e-03 -6.507e-03 9.185e-03 1.672e-02
33 1 -7.988e-03 -3.537e+00 8.640e-03 -8.905e-03 -1.079e-02 1.287e-02
34 1 -1.113e-02 1.286e-03 3.549e+00 -1.316e-02 5.532e-03 1.714e-02
35 1 -3.550e+00 -4.510e-04 9.465e-03 -2.707e-02 4.919e-03 1.779e-02
36 1 1.986e-03 5.369e-04 1.716e-03 1.732e+00 -1.241e-03 -1.735e+00
37 1 1.762e+00 1.759e+00 -6.839e-04 -3.040e-02 -3.864e-03 1.820e-02
38 1 3.852e-04 -1.759e+00 -1.762e+00 -2.605e-02 -3.075e-03 2.300e-02
39 1 2.920e-03 1.760e+00 -1.759e+00 -2.034e-02 -5.884e-03 2.194e-02
40 1 1.760e+00 -1.760e+00 -8.656e-04 -2.893e-02 -4.559e-03 1.610e-02
41 1 1.762e+00 4.413e-04 1.788e+00 -2.018e-02 3.835e-04 -3.950e-03
42 1 -1.788e+00 1.473e-04 -1.760e+00 7.224e-03 5.663e-03 1.210e-02
43 1 -7.427e-03 1.769e+00 1.777e+00 -1.973e-02 -1.704e-02 1.556e-03
44 1 -1.776e+00 -1.769e+00 7.576e-03 -6.213e-03 1.141e-02 1.259e-02
45 1 -7.200e-03 -1.769e+00 1.776e+00 -1.105e-02 1.197e-02 1.279e-02
46 1 -1.776e+00 1.768e+00 8.049e-03 -1.782e-02 -9.788e-03 1.725e-02
47 1 -1.775e+00 7.020e-04 1.776e+00 -8.582e-03 -2.052e-03 2.787e-03
ITEM: TIMESTEP
0
ITEM: NUMBER OF ATOMS
47
ITEM: BOX BOUNDS xy xz yz pp pp pp
                     0.00000000000000e+00 1.06200000000000e+01 0.00000000000000e+00
0.00000000000000e+00	1.06200000000000e+01	0.00000000000000e+00
0.00000000000000e+00	1.06200000000000e+01	0.00000000000000e+00
ITEM: ATOMS id type x y z DisplacementX DisplacementY DisplacementZ
48 1 -1.260e-03 3.521e+00 -3.523e+00 -3.582e-03 1.064e-03 1.661e-02
49 1 -1.770e+00 1.760e+00 3.549e+00 4.615e-03 -1.461e-02 7.861e-03
50 1 1.773e+00 -3.549e+00 -1.763e+00 8.398e-03 -1.047e-02 1.222e-02
51 1 -1.772e+00 -3.550e+00 -1.761e+00 6.645e-03 -1.504e-02 1.504e-02
52 1 1.771e+00 1.759e+00 3.547e+00 -3.392e-03 -1.355e-02 1.818e-02
53 1 -3.537e+00 3.529e+00 7.630e-03 4.545e-03 -1.334e-02 9.390e-03
54 1 3.538e+00 -6.973e-03 -3.528e+00 3.066e-03 -1.115e-02 1.385e-02
55 1 -3.538e+00 -7.299e-03 -3.531e+00 1.214e-02 -3.124e-03 1.646e-02
56 1 3.536e+00 3.530e+00 8.091e-03 1.400e-03 -2.173e-02 1.937e-02
57 1 1.770e+00 -3.548e+00 1.778e+00 -1.350e-03 -6.491e-03 1.672e-02
58 1 -1.772e+00 -3.549e+00 1.779e+00 7.131e-03 -1.527e-02 6.063e-03
59 1 1.770e+00 -1.778e+00 3.550e+00 3.096e-03 -1.133e-03 7.403e-03
60 1 -1.769e+00 -1.780e+00 3.552e+00 -2.098e-03 -8.775e-03 1.506e-02
61 1 3.539e+00 -1.779e+00 1.776e+00 7.479e-03 -2.397e-03 1.591e-02
62 1 -3.540e+00 -1.779e+00 1.778e+00 6.259e-03 -1.089e-02 1.055e-02
63 1 1.761e+00 1.761e+00 -3.523e+00 6.558e-03 -3.254e-02 4.968e-03
64 1 -1.761e+00 1.762e+00 -3.521e+00 -8.848e-03 -2.429e-02 6.647e-03
65 1 1.761e+00 3.522e+00 -1.761e+00 1.577e-02 -5.102e-03 1.462e-02
66 1 -1.760e+00 3.522e+00 -1.761e+00 -3.510e-03 -1.778e-02 2.212e-02
67 1 -3.537e+00 1.759e+00 1.776e+00 -4.367e-03 -7.437e-03 1.935e-02
68 1 3.536e+00 -1.775e+00 -1.763e+00 3.800e-06 -1.658e-02 2.062e-02
69 1 3.537e+00 1.763e+00 1.776e+00 -2.403e-03 -1.862e-02 1.975e-02
70 1 -3.537e+00 -1.777e+00 -1.762e+00 -3.037e-03 -1.661e-02 1.020e-02
71 1 -1.767e+00 3.529e+00 1.777e+00 -4.844e-03 -1.573e-02 8.703e-03
72 1 1.769e+00 -1.776e+00 -3.531e+00 -6.065e-05 -1.689e-02 1.660e-02
73 1 -1.768e+00 -1.776e+00 -3.529e+00 -6.926e-03 -1.708e-02 1.329e-02
74 1 1.768e+00 3.529e+00 1.777e+00 6.432e-03 -1.242e-02 1.272e-02
75 1 -3.906e-04 3.523e+00 5.337e-04 9.070e-03 2.183e-03 8.359e-03
76 1 -6.133e-04 -6.597e-04 -3.523e+00 -5.821e-04 -2.995e-02 -3.366e-03
77 1 3.548e+00 1.761e+00 -1.763e+00 -8.320e-03 -1.010e-02 1.889e-02
78 1 -3.549e+00 1.761e+00 -1.762e+00 1.800e-02 -8.427e-03 1.648e-02
79 1 -3.537e+00 -9.132e-03 7.891e-03 -1.600e-02 -9.991e-03 2.504e-02
80 1 3.538e+00 -6.748e-03 7.884e-03 1.044e-02 -1.757e-02 1.623e-02
81 1 -1.019e-03 -1.163e-02 3.551e+00 1.395e-02 1.895e-04 2.346e-02
82 1 1.660e-04 -3.550e+00 1.013e-02 -3.055e-03 -1.921e-02 2.041e-02
83 1 -8.414e-04 -3.783e-04 -6.648e-04 -5.379e-03 1.733e+00 -1.738e+00
84 1 -1.762e+00 1.763e+00 2.100e-05 4.208e-03 -2.026e-02 3.413e-02
85 1 1.761e+00 -4.190e-04 -1.761e+00 -4.240e-03 -2.459e-02 2.366e-02
86 1 -1.760e+00 -8.712e-04 -1.762e+00 -1.373e-02 -1.554e-02 2.333e-02
87 1 1.760e+00 1.759e+00 -1.145e-03 -3.515e-03 -2.057e-02 2.415e-02
88 1 -1.819e-03 1.761e+00 1.788e+00 -3.604e-04 -1.493e-02 -1.211e-02
89 1 -2.372e-04 -1.789e+00 -1.761e+00 1.491e-03 4.463e-03 2.097e-02
90 1 -1.768e+00 -6.846e-03 1.778e+00 9.799e-03 -6.385e-03 2.351e-03
91 1 1.769e+00 -1.776e+00 7.646e-03 -1.026e-02 -1.700e-02 1.676e-02
92 1 1.766e+00 -8.116e-03 1.777e+00 -4.656e-03 -1.789e-02 6.595e-03
93 1 -1.770e+00 -1.775e+00 6.954e-03 9.319e-03 -5.698e-03 2.252e-02
94 1 -7.440e-04 -1.776e+00 1.775e+00 -6.486e-03 -1.015e-02 9.867e-03
ITEM: TIMESTEP
0
ITEM: NUMBER OF ATOMS
47
ITEM: BOX BOUNDS xy xz yz pp pp pp
                     0.00000000000000e+00 1.06200000000000e+01 0.00000000000000e+00
0.00000000000000e+00	1.06200000000000e+01	0.00000000000000e+00
0.00000000000000e+00	1.06200000000000e+01	0.00000000000000e+00
ITEM: ATOMS id type x y z DisplacementX DisplacementY DisplacementZ
95 1 -3.522e+00 -4.035e-04 -3.520e+00 2.039e-03 1.603e-03 3.409e-03
96 1 -1.761e+00 1.772e+00 3.550e+00 2.261e-02 -1.502e-04 1.558e-02
97 1 3.549e+00 -1.770e+00 -1.761e+00 1.112e-02 8.181e-03 1.481e-02
98 1 3.550e+00 1.771e+00 -1.759e+00 2.431e-02 -8.895e-05 2.524e-02
99 1 -1.761e+00 -1.770e+00 3.550e+00 2.008e-02 6.006e-04 1.664e-02
100 1 -3.530e+00 3.537e+00 9.240e-03 1.399e-02 -2.023e-03 2.086e-02
101 1 8.462e-03 -3.538e+00 -3.529e+00 1.511e-02 -1.173e-03 1.085e-02
102 1 7.120e-03 3.534e+00 -3.530e+00 2.373e-02 -1.464e-03 1.995e-02
103 1 -3.531e+00 -3.537e+00 6.413e-03 1.368e-02 6.599e-03 2.030e-02
104 1 3.549e+00 -1.769e+00 1.778e+00 1.573e-02 9.679e-04 1.905e-02
105 1 3.549e+00 1.769e+00 1.778e+00 7.811e-03 -1.369e-02 1.786e-02
106 1 1.779e+00 -1.768e+00 3.549e+00 1.164e-02 6.271e-03 1.178e-02
107 1 1.779e+00 1.769e+00 3.550e+00 1.910e-02 5.028e-04 4.899e-03
108 1 1.779e+00 -3.540e+00 1.778e+00 -4.108e-03 1.207e-03 2.439e-02
109 1 1.776e+00 3.540e+00 1.778e+00 9.563e-03 2.213e-03 5.355e-03
110 1 -1.761e+00 -1.761e+00 -3.520e+00 1.506e-02 -6.094e-03 -6.976e-04
111 1 -1.760e+00 1.761e+00 -3.520e+00 1.259e-02 8.259e-03 1.169e-02
112 1 -3.522e+00 -1.762e+00 -1.761e+00 1.146e-02 -6.186e-03 2.133e-02
113 1 -3.521e+00 1.760e+00 -1.760e+00 3.550e-03 1.189e-02 1.700e-02
114 1 -1.759e+00 3.537e+00 1.776e+00 1.338e-02 9.358e-03 1.734e-02
115 1 1.775e+00 -3.536e+00 -1.762e+00 6.978e-03 3.376e-04 1.326e-02
116 1 -1.762e+00 -3.537e+00 1.775e+00 1.738e-02 -1.154e-02 1.713e-02
117 1 1.776e+00 3.537e+00 -1.760e+00 1.413e-02 -1.188e-02 1.160e-02
118 1 -3.527e+00 1.768e+00 1.775e+00 1.118e-02 -3.241e-03 1.150e-02
119 1 1.776e+00 -1.767e+00 -3.530e+00 1.222e-02 -7.078e-03 1.470e-02
120 1 1.778e+00 1.768e+00 -3.528e+00 1.085e-02 -5.425e-04 1.640e-02
121 1 -3.529e+00 -1.768e+00 1.776e+00 9.209e-03 -5.371e-03 1.689e-02
122 1 -3.523e+00 -1.094e-03 -1.527e-03 -5.829e-03 -6.136e-03 2.096e-02
123 1 -1.350e-03 -9.712e-04 -3.522e+00 2.146e-02 -1.226e-02 -1.291e-02
124 1 -1.761e+00 -3.551e+00 -1.762e+00 1.553e-02 6.970e-03 1.159e-02
125 1 -1.760e+00 3.549e+00 -1.760e+00 9.939e-03 -1.500e-02 1.866e-02
126 1 7.355e-03 3.536e+00 9.494e-03 1.259e-02 8.154e-03 2.474e-02
127 1 7.179e-03 -3.536e+00 7.544e-03 1.333e-02 -2.765e-02 1.961e-02
128 1 1.050e-02 -1.713e-03 3.549e+00 2.044e-02 -3.408e-03 2.961e-02
129 1 3.549e+00 -6.959e-05 1.141e-02 1.188e-02 -2.080e-03 1.399e-02
130 1 -1.009e-04 -1.057e-05 -5.701e-05 -1.737e+00 -5.829e-05 -1.736e+00
131 1 -1.760e+00 1.762e+00 -6.284e-05 1.413e-02 -3.321e-03 1.309e-02
132 1 1.686e-03 -1.759e+00 -1.760e+00 2.007e-02 3.993e-03 1.987e-02
133 1 -1.310e-03 1.761e+00 -1.759e+00 1.160e-02 -5.676e-04 1.072e-02
134 1 -1.763e+00 -1.760e+00 -3.455e-04 4.918e-03 1.425e-03 1.054e-02
135 1 -1.760e+00 -2.694e-04 1.788e+00 3.018e-02 -1.364e-02 -3.207e-03
136 1 1.790e+00 1.542e-04 -1.761e+00 -6.010e-03 -6.356e-03 1.788e-02
137 1 7.658e-03 1.769e+00 1.776e+00 7.023e-03 -1.384e-02 1.026e-02
138 1 1.777e+00 -1.769e+00 6.452e-03 4.428e-03 6.566e-03 8.383e-03
139 1 7.105e-03 -1.767e+00 1.778e+00 1.762e-02 1.271e-02 1.771e-02
140 1 1.778e+00 1.768e+00 8.940e-03 1.086e-02 -2.382e-03 2.237e-02
141 1 1.777e+00 -1.540e-04 1.777e+00 9.639e-03 1.189e-03 8.771e-03
ITEM: TIMESTEP
0
ITEM: NUMBER OF ATOMS
47
ITEM: BOX BOUNDS xy xz yz pp pp pp
                     0.00000000000000e+00 1.06200000000000e+01 0.00000000000000e+00
0.00000000000000e+00	1.06200000000000e+01	0.00000000000000e+00
0.00000000000000e+00	1.06200000000000e+01	0.00000000000000e+00
ITEM: ATOMS id type x y z DisplacementX DisplacementY DisplacementZ
142 1 -2.625e-04 -3.522e+00 -3.521e+00 -1.457e-03 2.951e-03 1.817e-02
143 1 -1.773e+00 -1.761e+00 3.550e+00 3.087e-03 1.518e-02 2.509e-02
144 1 1.770e+00 3.547e+00 -1.760e+00 -3.782e-03 1.261e-02 1.084e-02
145 1 -1.772e+00 3.551e+00 -1.760e+00 6.878e-03 5.436e-03 1.840e-02
146 1 1.772e+00 -1.762e+00 3.551e+00 -1.423e-03 1.646e-02 1.233e-02
147 1 -3.536e+00 -3.528e+00 7.036e-03 -7.270e-03 1.108e-02 1.264e-02
148 1 3.538e+00 5.709e-03 -3.529e+00 -6.095e-03 6.821e-03 1.546e-02
149 1 -3.537e+00 8.734e-03 -3.529e+00 -1.105e-02 -2.729e-03 1.543e-02
150 1 3.537e+00 -3.530e+00 6.937e-03 1.856e-03 2.734e-03 1.601e-02
151 1 1.771e+00 3.548e+00 1.778e+00 -1.321e-03 8.671e-03 1.686e-02
152 1 -1.769e+00 3.549e+00 1.779e+00 -2.287e-03 1.272e-02 9.702e-03
153 1 1.769e+00 1.779e+00 3.550e+00 -4.323e-03 1.048e-02 1.200e-02
154 1 -1.770e+00 1.778e+00 3.550e+00 -3.203e-03 4.532e-03 1.384e-02
155 1 3.539e+00 1.778e+00 1.778e+00 -5.138e-03 1.245e-02 1.660e-02
156 1 -3.539e+00 1.777e+00 1.777e+00 1.930e-03 6.979e-03 1.457e-02
157 1 1.760e+00 -1.762e+00 -3.521e+00 1.504e-02 1.601e-02 1.688e-02
158 1 -1.761e+00 -1.760e+00 -3.522e+00 -1.302e-02 1.542e-02 7.978e-03
159 1 1.760e+00 -3.521e+00 -1.763e+00 4.635e-04 1.439e-03 4.478e-03
160 1 -1.762e+00 -3.521e+00 -1.760e+00 -1.153e-02 -3.585e-04 1.264e-02
161 1 -3.538e+00 -1.760e+00 1.776e+00 -2.406e-03 9.232e-03 1.389e-02
162 1 3.536e+00 1.776e+00 -1.762e+00 -3.966e-03 1.711e-02 1.573e-02
163 1 3.537e+00 -1.759e+00 1.776e+00 1.193e-02 1.728e-02 1.657e-02
164 1 -3.537e+00 1.775e+00 -1.759e+00 2.309e-03 1.431e-02 1.387e-02
165 1 -1.770e+00 -3.529e+00 1.776e+00 -9.051e-03 1.415e-02 1.224e-02
166 1 1.769e+00 1.777e+00 -3.529e+00 4.678e-03 1.189e-02 2.234e-02
167 1 -1.769e+00 1.779e+00 -3.527e+00 -9.861e-03 1.645e-02 1.814e-02
168 1 1.769e+00 -3.528e+00 1.774e+00 1.069e-02 2.587e-02 2.143e-02
169 1 3.073e-04 -3.522e+00 -8.110e-04 -2.677e-03 3.173e-03 2.780e-02
170 1 3.901e-04 9.671e-04 -3.520e+00 -1.510e-03 2.906e-02 1.214e-03
171 1 3.549e+00 -1.760e+00 -1.761e+00 -1.925e-02 9.821e-03 1.190e-02
172 1 -3.549e+00 -1.760e+00 -1.760e+00 1.154e-02 2.149e-02 9.692e-03
173 1 -3.538e+00 7.416e-03 7.033e-03 -1.317e-02 1.533e-02 2.629e-02
174 1 3.538e+00 6.431e-03 6.702e-03 1.336e-02 1.092e-02 9.799e-03
175 1 1.706e-03 9.603e-03 3.551e+00 2.510e-03 6.494e-03 1.967e-02
176 1 -6.073e-04 3.551e+00 1.189e-02 7.426e-03 2.059e-02 1.454e-02
177 1 4.170e-04 -1.363e-03 -1.342e-03 3.006e-03 -1.736e+00 -1.735e+00
178 1 -1.762e+00 -1.762e+00 3.094e-04 -9.045e-03 1.832e-02 1.737e-02
179 1 1.761e+00 -1.830e-04 -1.762e+00 5.957e-03 5.568e-03 5.450e-03
180 1 -1.761e+00 -7.797e-04 -1.761e+00 -1.762e-02 1.916e-02 9.037e-03
181 1 1.761e+00 -1.760e+00 8.800e-04 -1.022e-02 2.293e-02 2.095e-02
182 1 -1.948e-03 -1.760e+00 1.790e+00 8.359e-03 2.433e-02 -9.637e-03
183 1 8.689e-04 1.788e+00 -1.759e+00 6.070e-03 -6.671e-03 2.627e-02
184 1 -1.769e+00 7.384e-03 1.775e+00 1.182e-03 1.034e-02 1.504e-02
185 1 1.770e+00 1.777e+00 6.363e-03 2.549e-03 1.512e-02 2.277e-02
186 1 1.770e+00 7.726e-03 1.776e+00 -5.083e-03 3.012e-03 3.248e-03
187 1 -1.768e+00 1.777e+00 7.848e-03 1.023e-02 1.828e-02 1.534e-02
188 1 4.343e-04 1.777e+00 1.775e+00 -2.620e-03 1.433e-02 1.392e-02
ITEM: TIMESTEP
0
ITEM: NUMBER OF ATOMS
47
ITEM: BOX BOUNDS xy xz yz pp pp pp
                     0.00000000000000e+00 1.06200000000000e+01 0.00000000000000e+00
0.00000000000000e+00	1.06200000000000e+01	0.00000000000000e+00
0.00000000000000e+00	1.06200000000000e+01	0.00000000000000e+00
ITEM: ATOMS id type x y z DisplacementX DisplacementY DisplacementZ
189 1 3.522e+00 -4.341e-04 3.521e+00 -4.482e-03 -1.559e-02 -2.765e-03
190 1 -3.549e+00 1.772e+00 1.760e+00 -1.505e-02 -9.488e-03 -2.046e-02
191 1 1.761e+00 -1.769e+00 -3.550e+00 3.733e-03 6.768e-03 -1.751e-02
192 1 1.760e+00 1.772e+00 -3.548e+00 -2.239e-02 1.050e-03 -1.013e-02
193 1 -3.547e+00 -1.772e+00 1.761e+00 -9.056e-03 2.947e-03 -2.142e-02
194 1 -5.941e-03 3.537e+00 3.530e+00 -1.178e-02 -3.791e-03 -2.353e-02
195 1 3.529e+00 -3.538e+00 -8.586e-03 -1.895e-02 3.806e-03 -1.148e-02
196 1 3.529e+00 3.538e+00 -7.181e-03 -1.757e-02 7.779e-03 -9.211e-03
197 1 -8.051e-03 -3.537e+00 3.528e+00 -1.629e-02 -1.658e-03 -1.588e-02
198 1 -1.778e+00 -1.768e+00 -3.548e+00 -1.574e-02 1.136e-03 -2.120e-02
199 1 -1.779e+00 1.768e+00 -3.549e+00 -3.710e-04 3.596e-03 -1.315e-02
200 1 -3.549e+00 -1.769e+00 -1.777e+00 -1.235e-02 4.372e-03 -1.135e-02
201 1 -3.549e+00 1.768e+00 -1.779e+00 -2.359e-02 -6.856e-03 -1.212e-02
202 1 -1.780e+00 -3.539e+00 -1.776e+00 -1.091e-02 1.164e-02 -8.100e-03
203 1 -1.780e+00 3.539e+00 -1.777e+00 -2.353e-02 1.092e-02 -7.065e-03
204 1 3.520e+00 -1.761e+00 1.762e+00 -6.060e-03 -8.475e-03 -1.663e-02
205 1 3.520e+00 1.763e+00 1.760e+00 -5.995e-03 1.126e-02 -8.998e-03
206 1 1.762e+00 -1.760e+00 3.521e+00 -1.216e-02 3.823e-03 -5.095e-03
207 1 1.761e+00 1.762e+00 3.523e+00 -1.100e-02 2.400e-02 -1.040e-02
208 1 -1.777e+00 3.538e+00 1.760e+00 -2.214e-03 1.670e-02 -1.400e-02
209 1 1.760e+00 -3.537e+00 -1.776e+00 -1.664e-02 2.818e-03 -1.906e-02
210 1 -1.775e+00 -3.537e+00 1.760e+00 -1.331e-02 -1.490e-03 -1.690e-02
211 1 1.763e+00 3.535e+00 -1.775e+00 -1.857e-02 -4.004e-03 -1.886e-02
212 1 -1.777e+00 1.767e+00 3.528e+00 -1.794e-02 -5.598e-03 -1.822e-02
213 1 3.530e+00 -1.769e+00 -1.777e+00 -1.981e-02 -9.038e-04 -9.043e-03
214 1 3.529e+00 1.767e+00 -1.777e+00 -1.325e-02 -9.488e-03 -1.778e-02
215 1 -1.776e+00 -1.769e+00 3.529e+00 -1.731e-02 -4.609e-03 -1.714e-02
216 1 -6.397e-04 6.278e-04 3.520e+00 -2.356e-02 2.955e-03 6.982e-03
217 1 3.521e+00 7.715e-04 -7.771e-04 2.387e-03 4.274e-03 -1.764e-02
218 1 1.761e+00 -3.550e+00 1.761e+00 -1.209e-02 1.440e-02 -7.956e-03
219 1 1.760e+00 3.551e+00 1.760e+00 -1.956e-02 -8.710e-03 -2.053e-02
220 1 -8.162e-03 3.538e+00 -6.806e-03 -9.151e-03 1.037e-02 -1.914e-02
221 1 -6.863e-03 -3.538e+00 -7.872e-03 -6.996e-04 -6.385e-03 -2.440e-02
222 1 -3.549e+00 -1.161e-03 -1.092e-02 -2.775e-02 4.804e-03 -1.059e-02
223 1 -9.040e-03 3.224e-04 -3.549e+00 -4.711e-03 -2.088e-03 -2.772e-02
224 1 1.409e-03 1.210e-03 -2.086e-04 1.735e+00 6.303e-03 1.735e+00
225 1 -7.302e-04 1.761e+00 1.760e+00 -1.464e-02 -4.070e-03 -1.661e-02
226 1 1.760e+00 -1.762e+00 -9.106e-04 -1.718e-02 2.430e-03 -6.246e-03
227 1 1.763e+00 1.761e+00 1.399e-03 -1.907e-02 1.079e-03 -2.487e-02
228 1 -3.003e-04 -1.761e+00 1.758e+00 -1.295e-02 -4.189e-03 -1.799e-02
229 1 -1.788e+00 -7.792e-04 1.761e+00 -2.605e-04 -3.261e-03 -2.370e-02
230 1 1.760e+00 2.004e-04 -1.788e+00 -1.639e-02 5.616e-03 2.569e-03
231 1 -1.777e+00 1.767e+00 -7.077e-03 -1.981e-02 -5.735e-03 -1.809e-02
232 1 -8.306e-03 -1.770e+00 -1.775e+00 -1.829e-02 7.851e-03 -9.157e-03
233 1 -1.777e+00 -1.769e+00 -7.408e-03 -8.250e-03 7.690e-03 -1.496e-02
234 1 -9.907e-03 1.770e+00 -1.776e+00 -1.315e-02 -4.915e-03 -6.663e-03
235 1 -1.777e+00 -8.313e-04 -1.775e+00 -1.638e-02 -5.177e-03 -9.800e-03
ITEM: TIMESTEP
0
ITEM: NUMBER OF ATOMS
47
ITEM: BOX BOUNDS xy xz yz pp pp pp
                     0.00000000000000e+00 1.06200000000000e+01 0.00000000000000e+00
0.00000000000000e+00	1.06200000000000e+01	0.00000000000000e+00
0.00000000000000e+00	1.06200000000000e+01	0.00000000000000e+00
ITEM: ATOMS id type x y z DisplacementX DisplacementY DisplacementZ
236 1 3.521e+00 3.522e+00 1.937e-03 9.733e-04 1.099e-02 7.923e-04
237 1 -3.549e+00 1.761e+00 1.772e+00 -1.378e-02 -1.773e-02 -2.410e-03
238 1 1.760e+00 -3.548e+00 -1.773e+00 -1.510e-02 -8.580e-03 1.053e-02
239 1 1.760e+00 -3.548e+00 1.772e+00 -5.613e-03 -1.269e-02 -7.507e-03
240 1 -3.550e+00 1.759e+00 -1.772e+00 -1.357e-02 -1.296e-02 3.490e-03
241 1 -6.645e-03 3.527e+00 3.537e+00 -9.993e-03 -1.486e-02 -1.621e-03
242 1 3.528e+00 -7.261e-03 -3.537e+00 -5.798e-03 -1.025e-03 -3.590e-03
243 1 3.530e+00 -7.314e-03 3.538e+00 -9.585e-03 -1.189e-02 -1.492e-03
244 1 -5.123e-03 3.531e+00 -3.538e+00 -1.804e-02 -1.702e-02 -5.586e-03
245 1 -1.779e+00 -3.549e+00 -1.769e+00 -1.636e-02 -7.938e-03 4.855e-03
246 1 -1.779e+00 -3.548e+00 1.770e+00 -1.569e-02 -9.306e-03 7.163e-03
247 1 -3.550e+00 -1.780e+00 -1.767e+00 -1.275e-02 -1.699e-03 -4.670e-04
248 1 -3.549e+00 -1.778e+00 1.770e+00 -1.129e-02 -7.729e-03 2.819e-04
249 1 -1.778e+00 -1.779e+00 -3.539e+00 -7.515e-03 -1.029e-03 1.208e-02
250 1 -1.777e+00 -1.778e+00 3.539e+00 -8.966e-03 -1.503e-02 -1.180e-02
251 1 3.521e+00 1.760e+00 -1.761e+00 -1.244e-02 -1.512e-02 -6.582e-03
252 1 3.522e+00 1.760e+00 1.760e+00 4.579e-04 -3.001e-02 3.323e-03
253 1 1.760e+00 3.522e+00 -1.761e+00 -1.897e-02 -2.722e-03 -5.943e-03
254 1 1.762e+00 3.522e+00 1.763e+00 -1.877e-02 -5.263e-03 1.833e-02
255 1 -1.777e+00 1.762e+00 3.536e+00 -5.720e-03 -1.410e-02 -1.077e-02
256 1 1.760e+00 -1.776e+00 -3.537e+00 -1.299e-02 -2.177e-02 -8.979e-04
257 1 -1.777e+00 1.761e+00 -3.536e+00 -2.119e-02 -1.826e-02 4.959e-03
258 1 1.760e+00 -1.773e+00 3.537e+00 -1.004e-02 -8.237e-03 -1.867e-03
259 1 -1.777e+00 3.529e+00 1.770e+00 -1.225e-02 -1.294e-02 -1.327e-03
260 1 3.529e+00 -1.777e+00 -1.770e+00 -1.778e-02 -1.564e-02 3.849e-03
261 1 3.530e+00 -1.776e+00 1.769e+00 -1.627e-02 -7.050e-03 -4.445e-03
262 1 -1.776e+00 3.531e+00 -1.768e+00 -1.537e-02 -1.535e-02 2.255e-03
263 1 6.417e-04 3.521e+00 6.182e-04 -2.012e-02 -1.602e-03 9.444e-03
264 1 3.523e+00 -3.892e-04 -2.265e-04 2.192e-03 -2.191e-02 -1.337e-03
265 1 1.759e+00 1.761e+00 -3.548e+00 -1.557e-02 -1.692e-02 8.795e-03
266 1 1.760e+00 1.759e+00 3.548e+00 -7.285e-03 -4.745e-03 -1.544e-02
267 1 -7.067e-03 -9.157e-03 3.537e+00 -1.266e-02 -1.287e-02 1.208e-02
268 1 -7.121e-03 -8.299e-03 -3.538e+00 -2.018e-02 -1.791e-02 -1.308e-02
269 1 -3.549e+00 -9.666e-03 -1.171e-03 -8.964e-03 -1.488e-02 -1.152e-02
270 1 -1.124e-02 -3.550e+00 -3.298e-04 -1.382e-02 -1.828e-02 9.598e-04
271 1 -5.156e-04 1.059e-03 5.431e-05 1.733e+00 1.735e+00 1.745e-03
272 1 -1.122e-03 1.761e+00 1.762e+00 -3.096e-02 -2.607e-02 -3.090e-03
273 1 1.761e+00 1.305e-04 -1.762e+00 -2.774e-02 -2.402e-02 8.485e-04
274 1 1.761e+00 -1.895e-03 1.762e+00 -2.201e-02 -2.368e-02 1.140e-02
275 1 3.019e-04 1.761e+00 -1.760e+00 -2.159e-02 -3.070e-02 2.830e-03
276 1 -1.790e+00 1.762e+00 -1.806e-03 8.106e-03 -1.334e-02 -4.962e-03
277 1 1.761e+00 -1.788e+00 -8.898e-04 -1.700e-02 1.204e-02 -4.735e-04
278 1 -1.775e+00 -7.108e-03 1.769e+00 -1.679e-02 -1.424e-02 1.174e-03
279 1 -7.672e-03 -1.779e+00 -1.770e+00 -1.316e-02 -9.666e-03 7.489e-03
280 1 -1.778e+00 -7.195e-03 -1.768e+00 -2.056e-02 -1.525e-02 9.919e-03
281 1 -8.921e-03 -1.777e+00 1.767e+00 -1.195e-02 -9.134e-03 -1.234e-02
282 1 -1.776e+00 -1.776e+00 -7.636e-04 -8.272e-03 -4.873e-03 5.278e-03
ITEM: TIMESTEP
0
ITEM: NUMBER OF ATOMS
47
ITEM: BOX BOUNDS xy xz yz pp pp pp
                     0.00000000000000e+00 1.06200000000000e+01 0.00000000000000e+00
0.00000000000000e+00	1.06200000000000e+01	0.00000000000000e+00
0.00000000000000e+00	1.06200000000000e+01	0.00000000000000e+00
ITEM: ATOMS id type x y z DisplacementX DisplacementY DisplacementZ
283 1 -9.047e-04 3.522e+00 3.521e+00 7.771e-04 1.120e-02 6.089e-04
284 1 1.770e+00 -3.550e+00 1.762e+00 -4.540e-03 -9.643e-03 -7.573e-03
285 1 -1.772e+00 1.760e+00 -3.549e+00 7.837e-03 -2.133e-02 -8.611e-03
286 1 1.772e+00 1.761e+00 -3.549e+00 -2.880e-03 -2.130e-02 -1.320e-02
287 1 -1.772e+00 -3.549e+00 1.760e+00 1.401e-02 -2.028e-02 -1.847e-02
288 1 3.537e+00 -6.628e-03 3.530e+00 6.630e-05 -2.226e-02 -2.258e-02
289 1 -3.538e+00 3.529e+00 -8.081e-03 -2.875e-04 -1.319e-02 -1.588e-02
290 1 3.538e+00 3.528e+00 -8.191e-03 -5.113e-03 -1.877e-02 -1.675e-02
291 1 -3.538e+00 -7.645e-03 3.529e+00 -7.382e-03 -2.245e-02 -2.174e-02
292 1 -1.770e+00 -1.778e+00 -3.550e+00 1.910e-03 -7.460e-03 -8.588e-03
293 1 1.767e+00 -1.778e+00 -3.550e+00 -2.980e-03 1.974e-03 -7.293e-03
294 1 -1.771e+00 -3.550e+00 -1.778e+00 7.852e-03 -1.043e-02 -1.886e-02
295 1 1.770e+00 -3.549e+00 -1.778e+00 -2.286e-02 -1.603e-02 -1.842e-02
296 1 -3.539e+00 -1.778e+00 -1.779e+00 8.213e-03 -1.045e-02 -8.568e-03
297 1 3.538e+00 -1.779e+00 -1.778e+00 2.842e-03 -8.411e-03 -6.844e-03
298 1 -1.760e+00 3.522e+00 1.760e+00 -6.143e-03 -8.725e-03 -9.812e-03
299 1 1.760e+00 3.522e+00 1.760e+00 3.722e-03 7.998e-03 3.361e-03
300 1 -1.763e+00 1.761e+00 3.520e+00 -8.472e-04 -1.907e-02 -5.070e-04
301 1 1.760e+00 1.761e+00 3.522e+00 8.156e-03 -7.575e-03 -4.629e-03
302 1 3.536e+00 -1.775e+00 1.760e+00 5.136e-03 -1.118e-02 -1.081e-02
303 1 -3.535e+00 1.762e+00 -1.776e+00 -1.305e-02 -1.397e-02 -1.427e-02
304 1 -3.536e+00 -1.774e+00 1.760e+00 -1.543e-02 -7.826e-03 -9.562e-03
305 1 3.537e+00 1.761e+00 -1.777e+00 2.146e-03 -1.063e-03 -1.653e-02
306 1 1.769e+00 -1.777e+00 3.529e+00 7.067e-03 -2.253e-02 -1.752e-02
307 1 -1.770e+00 3.529e+00 -1.776e+00 2.289e-03 -9.225e-03 -1.671e-02
308 1 1.768e+00 3.529e+00 -1.777e+00 -6.002e-03 -7.114e-03 -1.771e-02
309 1 -1.768e+00 -1.778e+00 3.529e+00 -4.625e-03 -1.161e-02 -1.462e-02
310 1 -7.863e-04 1.339e-04 3.520e+00 8.709e-03 -2.546e-02 1.571e-02
311 1 -6.267e-04 3.520e+00 1.010e-05 -2.865e-03 3.837e-03 -2.523e-02
312 1 -3.551e+00 1.759e+00 1.761e+00 1.840e-02 -7.153e-03 -1.023e-02
313 1 3.548e+00 1.761e+00 1.761e+00 -1.191e-02 -1.538e-02 -8.189e-03
314 1 3.539e+00 -6.714e-03 -8.415e-03 1.711e-02 -1.682e-02 -1.598e-02
315 1 -3.536e+00 -5.427e-03 -7.666e-03 -5.534e-04 -5.784e-04 -1.668e-02
316 1 -1.126e-03 -3.549e+00 -1.029e-02 1.294e-02 -1.933e-02 -1.081e-02
317 1 5.221e-04 -9.771e-03 -3.549e+00 -5.788e-03 -1.065e-02 -1.948e-02
318 1 -6.752e-04 -9.801e-04 -2.196e-03 2.589e-03 1.732e+00 1.739e+00
319 1 1.761e+00 -3.782e-04 1.761e+00 1.836e-02 -2.864e-02 -5.435e-03
320 1 -1.761e+00 1.762e+00 7.669e-04 -2.696e-03 -2.465e-02 -2.723e-02
321 1 1.762e+00 1.761e+00 8.028e-04 5.118e-03 -2.362e-02 -1.773e-02
322 1 -1.760e+00 3.558e-04 1.761e+00 -3.532e-03 -3.150e-02 -2.791e-02
323 1 -8.912e-04 -1.790e+00 1.761e+00 7.474e-03 -4.073e-03 -2.697e-02
324 1 -2.811e-04 1.762e+00 -1.788e+00 6.124e-03 -2.030e-02 6.026e-03
325 1 1.766e+00 -1.776e+00 -6.287e-03 -3.456e-03 -6.759e-03 -1.654e-02
326 1 -1.768e+00 -7.434e-03 -1.775e+00 1.561e-02 -3.796e-03 -1.964e-02
327 1 -1.770e+00 -1.776e+00 -7.491e-03 5.431e-03 -1.040e-02 -1.480e-02
328 1 1.769e+00 -6.663e-03 -1.775e+00 -5.883e-03 -1.877e-02 -1.398e-02
329 1 1.199e-03 -1.775e+00 -1.774e+00 -4.998e-03 -1.122e-02 -3.487e-03
ITEM: TIMESTEP
0
ITEM: NUMBER OF ATOMS
47
ITEM: BOX BOUNDS xy xz yz pp pp pp
                     0.00000000000000e+00 1.06200000000000e+01 0.00000000000000e+00
0.00000000000000e+00	1.06200000000000e+01	0.00000000000000e+00
0.00000000000000e+00	1.06200000000000e+01	0.00000000000000e+00
ITEM: ATOMS id type x y z DisplacementX DisplacementY DisplacementZ
330 1 -3.520e+00 4.420e-04 3.519e+00 1.410e-02 1.088e-03 -7.666e-03
331 1 3.550e+00 1.771e+00 1.762e+00 1.797e-02 2.466e-03 -1.785e-02
332 1 -1.761e+00 -1.771e+00 -3.550e+00 1.783e-02 1.802e-03 -2.020e-02
333 1 -1.761e+00 1.774e+00 -3.551e+00 1.869e-02 3.825e-03 -2.002e-02
334 1 3.550e+00 -1.772e+00 1.761e+00 -3.333e-03 2.448e-03 -1.179e-02
335 1 6.636e-03 3.538e+00 3.527e+00 2.309e-02 -3.409e-03 -1.959e-02
336 1 -3.529e+00 -3.537e+00 -8.811e-03 1.777e-02 6.565e-03 -1.571e-02
337 1 -3.529e+00 3.538e+00 -8.210e-03 5.740e-03 -3.271e-03 -1.580e-02
338 1 8.286e-03 -3.537e+00 3.531e+00 1.970e-02 -4.485e-03 -1.526e-02
339 1 1.779e+00 -1.770e+00 -3.549e+00 1.054e-03 2.226e-03 -1.147e-02
340 1 1.778e+00 1.769e+00 -3.549e+00 1.163e-02 3.600e-03 -8.905e-03
341 1 3.549e+00 -1.769e+00 -1.778e+00 1.754e-02 -3.601e-03 -1.496e-02
342 1 3.549e+00 1.770e+00 -1.778e+00 2.279e-02 8.499e-03 -9.834e-03
343 1 1.779e+00 -3.537e+00 -1.780e+00 1.445e-02 -4.208e-04 -1.111e-02
344 1 1.778e+00 3.539e+00 -1.778e+00 5.681e-03 -8.290e-03 -8.034e-03
345 1 -3.522e+00 -1.762e+00 1.761e+00 1.093e-02 -1.262e-02 -1.613e-02
346 1 -3.522e+00 1.760e+00 1.761e+00 5.127e-03 7.077e-03 -1.923e-02
347 1 -1.760e+00 -1.761e+00 3.521e+00 1.208e-02 -4.345e-04 -1.170e-02
348 1 -1.761e+00 1.761e+00 3.520e+00 4.432e-03 7.226e-03 4.025e-03
349 1 1.775e+00 3.538e+00 1.760e+00 1.632e-02 -3.432e-03 -1.697e-02
350 1 -1.760e+00 -3.536e+00 -1.776e+00 6.558e-03 -3.804e-04 -8.321e-03
351 1 1.777e+00 -3.538e+00 1.762e+00 2.459e-02 8.121e-03 -2.221e-02
352 1 -1.761e+00 3.537e+00 -1.774e+00 1.164e-02 -9.015e-03 -1.416e-02
353 1 1.777e+00 1.769e+00 3.529e+00 1.489e-02 -3.001e-03 -8.680e-03
354 1 -3.528e+00 -1.770e+00 -1.777e+00 1.528e-02 -7.541e-03 -1.037e-02
355 1 -3.529e+00 1.769e+00 -1.778e+00 1.418e-02 6.796e-04 -1.628e-02
356 1 1.777e+00 -1.768e+00 3.530e+00 5.283e-03 -8.270e-03 -8.720e-03
357 1 1.029e-03 1.272e-03 3.521e+00 2.584e-02 -3.326e-03 -4.337e-03
358 1 -3.521e+00 -1.218e-03 7.111e-04 -1.597e-03 1.402e-03 -2.103e-02
359 1 -1.761e+00 -3.548e+00 1.761e+00 1.616e-02 1.248e-02 -1.205e-02
360 1 -1.761e+00 3.549e+00 1.763e+00 1.033e-02 -1.521e-03 -7.389e-03
361 1 6.977e-03 3.537e+00 -5.765e-03 1.324e-02 6.691e-03 -2.023e-02
362 1 8.576e-03 -3.540e+00 -9.796e-03 1.613e-02 -7.668e-03 -2.208e-02
363 1 3.550e+00 5.510e-04 -9.954e-03 1.880e-02 -8.090e-03 -1.503e-02
364 1 8.882e-03 1.343e-04 -3.547e+00 2.276e-02 6.294e-03 -2.933e-02
365 1 1.927e-03 -4.126e-04 -1.515e-03 -1.734e+00 -1.247e-03 1.739e+00
366 1 3.995e-04 1.760e+00 1.761e+00 1.355e-02 -2.691e-03 1.255e-02
367 1 -1.760e+00 -1.761e+00 -7.886e-04 2.866e-02 -5.357e-03 -2.737e-02
368 1 -1.761e+00 1.759e+00 -6.536e-04 2.246e-02 -4.761e-03 -2.571e-02
369 1 -9.984e-04 -1.760e+00 1.762e+00 3.500e-02 3.718e-03 -1.294e-02
370 1 1.787e+00 1.530e-03 1.760e+00 -1.022e-02 1.437e-03 -1.738e-02
371 1 -1.761e+00 -1.726e-04 -1.789e+00 1.282e-02 -8.785e-03 1.146e-03
372 1 1.776e+00 1.767e+00 -6.014e-03 4.483e-03 -4.403e-03 -3.388e-03
373 1 7.572e-03 -1.768e+00 -1.777e+00 2.250e-02 -3.469e-03 -1.179e-02
374 1 1.776e+00 -1.768e+00 -4.820e-03 1.287e-02 6.548e-03 -1.636e-02
375 1 6.418e-03 1.770e+00 -1.777e+00 1.593e-02 -8.889e-03 -1.371e-02
376 1 1.777e+00 7.910e-04 -1.777e+00 1.621e-02 1.019e-03 -1.074e-02
ITEM: TIMESTEP
0
ITEM: NUMBER OF ATOMS
47
ITEM: BOX BOUNDS xy xz yz pp pp pp
                     0.00000000000000e+00 1.06200000000000e+01 0.00000000000000e+00
0.00000000000000e+00	1.06200000000000e+01	0.00000000000000e+00
0.00000000000000e+00	1.06200000000000e+01	0.00000000000000e+00
ITEM: ATOMS id type x y z DisplacementX DisplacementY DisplacementZ
377 1 -3.522e+00 3.521e+00 1.777e-04 1.198e-02 -1.078e-02 -8.557e-04
378 1 3.551e+00 1.760e+00 -1.770e+00 1.565e-02 -1.400e-02 7.183e-03
379 1 -1.762e+00 -3.551e+00 1.770e+00 1.134e-02 -9.175e-03 1.185e-03
380 1 -1.760e+00 -3.548e+00 -1.770e+00 5.609e-03 -8.126e-03 4.283e-03
381 1 3.548e+00 1.761e+00 1.773e+00 1.310e-02 -7.632e-03 -2.211e-03
382 1 7.969e-03 3.527e+00 -3.537e+00 1.405e-02 -1.455e-02 -6.508e-03
383 1 -3.526e+00 -6.720e-03 3.538e+00 1.995e-02 -2.215e-02 2.812e-03
384 1 -3.528e+00 -7.299e-03 -3.537e+00 1.173e-02 -1.544e-02 -3.016e-03
385 1 6.384e-03 3.529e+00 3.537e+00 1.266e-02 -2.666e-02 2.000e-05
386 1 1.779e+00 -3.550e+00 1.770e+00 1.391e-02 -6.248e-03 7.287e-03
387 1 1.780e+00 -3.550e+00 -1.770e+00 5.183e-03 -4.123e-03 -5.598e-04
388 1 3.551e+00 -1.778e+00 1.770e+00 1.098e-02 -1.456e-02 -1.940e-03
389 1 3.549e+00 -1.778e+00 -1.768e+00 1.692e-02 -1.553e-02 -3.866e-03