ITEM: TIMESTEP
0
ITEM: NUMBER OF ATOMS
89
ITEM: BOX BOUNDS xy xz yz pp pp pp
                     0.00000000000000e+00 1.06200000000000e+01 0.00000000000000e+00
0.00000000000000e+00	1.06200000000000e+01	0.00000000000000e+00
0.00000000000000e+00	1.06200000000000e+01	0.00000000000000e+00
ITEM: ATOMS id type x y z DisplacementX DisplacementY DisplacementZ
1 1 -6.270e-04 -5.978e+00 -6.961e-04 -1.048e-02 -2.267e-02 2.580e-02
2 1 3.545e+00 -2.490e+00 3.546e+00 -2.719e-03 -7.586e-03 6.553e-02
3 1 -3.544e+00 -2.490e+00 -3.546e+00 1.338e-02 2.369e-02 2.997e-02
4 1 -3.546e+00 -2.489e+00 3.547e+00 -1.042e-02 -2.538e-02 2.031e-02
5 1 3.547e+00 -2.490e+00 -3.547e+00 -5.446e-03 -1.234e-02 6.707e-03
6 1 1.778e+00 -4.257e+00 3.543e+00 -7.085e-03 -1.607e-02 4.317e-02
7 1 3.543e+00 -4.257e+00 1.780e+00 -7.085e-03 -1.607e-02 4.317e-02
8 1 -1.778e+00 -4.255e+00 3.543e+00 -1.042e-02 -2.538e-02 2.031e-02
9 1 3.545e+00 -4.256e+00 -1.778e+00 -1.045e-02 -2.390e-02 2.330e-02
10 1 -3.543e+00 -4.255e+00 -1.778e+00 -8.089e-03 -2.512e-02 2.347e-02
11 1 -1.778e+00 -4.257e+00 -3.544e+00 -8.089e-03 -2.512e-02 2.347e-02
12 1 -3.543e+00 -4.256e+00 1.778e+00 -1.042e-02 -2.538e-02 2.031e-02
13 1 1.777e+00 -4.256e+00 -3.545e+00 -1.045e-02 -2.390e-02 2.330e-02
14 1 1.357e-03 4.668e+00 -3.619e+00 -5.790e-02 -1.495e-01 1.685e-01
15 1 -3.619e+00 4.668e+00 -4.766e-04 5.099e-02 1.473e-02 -2.165e-02
16 1 3.617e+00 4.667e+00 -1.657e-03 -8.394e-02 3.939e-02 -4.867e-02
17 1 -1.105e-03 4.669e+00 3.619e+00 7.242e-02 1.677e-01 -3.035e-02
18 1 5.301e+00 1.052e+00 1.769e+00 -4.428e-02 -3.448e-02 2.748e-02
19 1 1.770e+00 1.053e+00 5.303e+00 3.706e-02 8.182e-02 1.174e-01
20 1 1.769e+00 1.054e+00 -5.300e+00 -6.809e-03 -3.497e-02 -6.019e-02
21 1 -5.301e+00 1.053e+00 1.770e+00 1.324e-02 3.907e-02 -4.946e-02
22 1 -1.771e+00 1.051e+00 -5.301e+00 -8.129e-03 -2.513e-02 7.198e-03
23 1 -5.301e+00 1.053e+00 -1.769e+00 1.785e-02 5.078e-02 -7.838e-02
24 1 5.303e+00 1.052e+00 -1.771e+00 -1.236e-02 -1.458e-03 -9.454e-02
25 1 -1.772e+00 1.053e+00 5.301e+00 3.714e-02 8.370e-02 9.632e-02
26 1 1.127e-03 -7.219e-01 5.280e+00 1.562e-02 3.236e-02 1.056e-01
27 1 5.279e+00 -7.192e-01 1.391e-03 -3.409e-04 1.036e-03 -1.278e-02
28 1 -5.278e+00 -7.215e-01 1.277e-04 1.362e-02 3.759e-02 -3.291e-02
29 1 -1.749e-03 -7.209e-01 -5.280e+00 1.538e-02 3.817e-02 2.838e-02
30 1 -5.279e+00 2.827e+00 3.847e-05 3.734e-02 6.783e-02 -6.281e-02
31 1 -1.341e-03 2.827e+00 -5.280e+00 -3.587e-02 -9.824e-02 7.495e-02
32 1 -2.759e-04 2.828e+00 5.281e+00 7.193e-02 1.660e-01 9.720e-02
33 1 5.279e+00 2.828e+00 -4.976e-04 -5.100e-02 2.697e-02 -5.090e-02
34 1 -1.793e+00 4.608e+00 -1.796e+00 -3.843e-02 -1.955e-01 1.726e-01
35 1 1.793e+00 4.607e+00 1.794e+00 -2.248e-02 5.476e-02 2.223e-02
36 1 1.793e+00 4.607e+00 -1.795e+00 -9.715e-02 -1.310e-01 6.733e-02
37 1 -1.794e+00 4.605e+00 1.794e+00 2.656e-02 -1.437e-02 4.370e-02
38 1 3.524e+00 1.052e+00 3.525e+00 6.466e-03 4.163e-02 1.063e-01
39 1 -3.526e+00 1.053e+00 -3.526e+00 -2.180e-02 -5.060e-02 6.970e-02
40 1 3.525e+00 1.053e+00 -3.525e+00 -6.738e-03 -2.986e-02 -5.183e-02
41 1 -3.524e+00 1.053e+00 3.523e+00 3.150e-02 7.598e-02 4.988e-02
42 1 -6.399e-04 4.547e+00 -1.709e-03 -6.835e-02 -1.792e-01 1.271e-01
43 1 -3.566e+00 2.818e+00 -1.811e+00 8.507e-05 -6.308e-02 8.198e-02
44 1 -1.810e+00 2.817e+00 -3.565e+00 -1.598e-02 -9.435e-02 1.477e-01
45 1 -3.568e+00 2.819e+00 1.811e+00 4.172e-02 5.345e-02 -9.780e-03
46 1 1.810e+00 2.819e+00 -3.567e+00 -4.973e-02 -9.338e-02 7.412e-02
47 1 1.811e+00 2.819e+00 3.567e+00 3.508e-02 1.257e-01 1.305e-01
48 1 3.565e+00 2.818e+00 1.809e+00 -3.713e-02 5.989e-02 2.267e-02
49 1 -1.810e+00 2.817e+00 3.567e+00 6.989e-02 1.358e-01 9.676e-02
50 1 3.565e+00 2.819e+00 -1.811e+00 -7.768e-02 -4.678e-02 4.648e-03
51 1 1.768e+00 -4.219e+00 -7.499e-05 2.504e-02 4.703e-02 6.436e-02
52 1 -1.228e-03 -4.221e+00 1.768e+00 2.506e-02 4.589e-02 6.204e-02
53 1 -1.247e-03 -4.219e+00 -1.766e+00 2.426e-02 4.002e-02 4.910e-02
54 1 -1.767e+00 -4.218e+00 -1.422e-03 2.429e-02 3.888e-02 4.678e-02
55 1 3.618e+00 -2.562e+00 5.242e-04 2.788e-02 5.552e-02 7.551e-02
56 1 -1.375e-03 -2.562e+00 3.619e+00 2.500e-02 4.932e-02 1.465e-01
57 1 9.184e-04 -2.563e+00 -3.619e+00 3.624e-02 6.213e-02 5.821e-02
58 1 -3.619e+00 -2.564e+00 -1.066e-03 3.452e-02 7.050e-02 6.973e-02
59 1 -1.804e-04 2.104e+00 -5.482e-04 -1.115e-01 -2.990e-01 5.047e-01
60 1 2.961e-04 6.256e-04 3.031e-04 1.282e-01 2.373e-01 7.053e-01
61 1 1.810e+00 -7.135e-01 3.568e+00 4.668e-02 9.662e-02 2.453e-01
62 1 3.564e+00 -7.141e-01 1.810e+00 4.012e-02 8.426e-02 1.299e-01
63 1 -1.810e+00 -7.127e-01 3.564e+00 4.537e-02 9.445e-02 2.023e-01
64 1 3.565e+00 -7.119e-01 -1.809e+00 3.027e-02 5.263e-02 6.863e-02
65 1 -3.566e+00 -7.127e-01 -1.810e+00 4.584e-02 9.850e-02 1.086e-01
66 1 -1.809e+00 -7.119e-01 -3.566e+00 4.210e-02 7.526e-02 1.058e-01
67 1 -3.567e+00 -7.140e-01 1.811e+00 4.540e-02 1.037e-01 8.611e-02
68 1 1.810e+00 -7.129e-01 -3.566e+00 3.308e-02 5.220e-02 6.742e-02
69 1 2.230e-04 -8.637e-01 2.034e+00 1.405e-01 2.858e-01 5.095e-01
70 1 2.035e+00 -8.624e-01 -1.664e-03 1.144e-01 2.192e-01 4.114e-01
71 1 -2.035e+00 -8.629e-01 1.220e-03 1.238e-01 2.418e-01 3.920e-01
72 1 8.468e-06 -8.602e-01 -2.035e+00 1.164e-01 2.201e-01 4.105e-01
73 1 -2.035e+00 2.968e+00 -1.036e-04 -7.496e-03 -1.208e-01 1.732e-01
74 1 -4.532e-04 2.966e+00 -2.034e+00 -1.087e-01 -2.793e-01 3.306e-01
75 1 -3.134e-04 2.968e+00 2.034e+00 1.932e-02 2.122e-02 1.858e-01
76 1 2.037e+00 2.967e+00 -2.147e-03 -8.828e-02 -8.633e-02 1.452e-01
77 1 -1.317e-03 1.052e+00 -3.553e+00 -2.842e-02 -9.599e-02 1.316e-01
78 1 -3.555e+00 1.053e+00 2.086e-03 1.476e-02 3.658e-02 1.040e-01
79 1 3.553e+00 1.052e+00 5.341e-04 -3.480e-04 4.109e-02 7.994e-02
80 1 -3.174e-03 1.052e+00 3.554e+00 7.417e-02 1.605e-01 2.981e-01
81 1 1.796e+00 -2.501e+00 1.797e+00 7.936e-02 1.620e-01 1.988e-01
82 1 -1.796e+00 -2.502e+00 1.794e+00 7.527e-02 1.571e-01 1.813e-01
83 1 1.794e+00 -2.503e+00 -1.794e+00 8.117e-02 1.584e-01 9.944e-02
84 1 -1.793e+00 -2.500e+00 -1.792e+00 9.509e-02 1.901e-01 1.285e-01
85 1 -3.367e-05 -2.441e+00 -3.159e-03 1.324e-01 2.563e-01 3.688e-01
86 1 1.675e+00 1.053e+00 1.674e+00 4.121e-02 9.689e-02 4.301e-01
87 1 -1.676e+00 1.053e+00 -1.676e+00 -1.629e-02 -6.102e-02 2.879e-01
88 1 1.674e+00 1.051e+00 -1.675e+00 9.882e-03 -1.307e-02 1.698e-01
89 1 -1.676e+00 1.054e+00 1.676e+00 4.533e-02 9.163e-02 4.158e-01
ITEM: TIMESTEP
0
ITEM: NUMBER OF ATOMS
89
ITEM: BOX BOUNDS xy xz yz pp pp pp
                     0.00000000000000e+00 1.06200000000000e+01 0.00000000000000e+00
0.00000000000000e+00	1.06200000000000e+01	0.00000000000000e+00
0.00000000000000e+00	1.06200000000000e+01	0.00000000000000e+00
ITEM: ATOMS id type x y z DisplacementX DisplacementY DisplacementZ
90 1 -2.481e-05 -5.980e+00 3.230e-04 6.697e-02 -5.757e-02 -2.902e-01
91 1 3.548e+00 -2.488e+00 3.546e+00 -7.807e-02 -1.310e-01 3.718e-02
92 1 -3.548e+00 -2.489e+00 -3.545e+00 1.444e-02 4.243e-02 -5.636e-02
93 1 -3.545e+00 -2.488e+00 3.547e+00 -1.324e-02 -1.542e-01 -2.092e-01
94 1 3.547e+00 -2.488e+00 -3.547e+00 2.902e-02 -1.711e-02 -9.115e-02
95 1 1.778e+00 -4.253e+00 3.545e+00 -6.237e-02 -2.013e-01 -1.557e-01
96 1 3.544e+00 -4.254e+00 1.780e+00 -5.014e-02 -1.653e-01 -1.249e-01
97 1 -1.778e+00 -4.257e+00 3.544e+00 -1.074e-02 -2.213e-01 -3.572e-01
98 1 3.545e+00 -4.255e+00 -1.778e+00 3.054e-02 -4.867e-02 -1.530e-01
99 1 -3.544e+00 -4.255e+00 -1.778e+00 -1.014e-02 -3.817e-02 -5.642e-03
100 1 -1.778e+00 -4.257e+00 -3.544e+00 -1.023e-02 -3.414e-02 2.529e-03
101 1 -3.544e+00 -4.254e+00 1.778e+00 5.781e-05 -1.575e-01 -2.721e-01
102 1 1.779e+00 -4.256e+00 -3.543e+00 2.902e-02 -1.679e-02 -9.051e-02
103 1 -1.661e-04 4.668e+00 -3.618e+00 2.303e-01 4.783e-01 -1.375e-02
104 1 -3.619e+00 4.671e+00 3.485e-04 1.211e-01 2.578e-01 -7.165e-02
105 1 3.618e+00 4.668e+00 -3.783e-04 1.299e-01 3.879e-01 2.811e-01
106 1 -2.183e-03 4.667e+00 3.619e+00 5.669e-02 1.755e-01 5.510e-02
107 1 5.300e+00 1.052e+00 1.769e+00 -1.601e-02 2.071e-02 1.429e-01
108 1 1.770e+00 1.053e+00 5.301e+00 -6.906e-02 -2.081e-02 2.185e-01
109 1 1.769e+00 1.052e+00 -5.303e+00 4.242e-02 9.510e-02 -9.918e-02
110 1 -5.303e+00 1.054e+00 1.771e+00 -6.427e-02 -4.404e-02 5.476e-02
111 1 -1.769e+00 1.053e+00 -5.302e+00 5.692e-02 1.528e-01 -2.381e-01
112 1 -5.302e+00 1.054e+00 -1.770e+00 2.587e-02 1.199e-01 -1.537e-01
113 1 5.303e+00 1.051e+00 -1.769e+00 8.364e-04 -4.252e-02 -8.662e-02
114 1 -1.771e+00 1.054e+00 5.301e+00 -8.630e-02 -6.573e-02 1.514e-01
115 1 -8.696e-04 -7.211e-01 5.281e+00 -9.481e-02 -1.126e-01 1.404e-01
116 1 5.280e+00 -7.204e-01 -1.799e-03 -2.548e-02 -8.054e-02 -3.152e-02
117 1 -5.278e+00 -7.216e-01 1.195e-03 8.390e-03 4.141e-02 -5.482e-02
118 1 7.222e-04 -7.204e-01 -5.280e+00 2.374e-02 6.862e-02 -1.076e-01
119 1 -5.278e+00 2.826e+00 4.292e-04 3.847e-03 8.969e-02 -1.242e-02
120 1 -8.457e-04 2.825e+00 -5.280e+00 1.191e-01 2.614e-01 -1.345e-01
121 1 1.263e-03 2.827e+00 5.281e+00 -5.814e-02 -1.091e-02 1.270e-01
122 1 5.278e+00 2.826e+00 1.274e-03 2.719e-02 1.080e-01 1.494e-01
123 1 -1.795e+00 4.607e+00 -1.794e+00 2.373e-01 3.843e-01 -2.043e-01
124 1 1.794e+00 4.607e+00 1.796e+00 1.304e-01 2.821e-01 1.974e-01
125 1 1.794e+00 4.608e+00 -1.793e+00 2.501e-01 4.780e-01 5.754e-02
126 1 -1.796e+00 4.608e+00 1.794e+00 1.147e-01 1.694e-01 -1.021e-01
127 1 3.524e+00 1.052e+00 3.524e+00 -4.969e-02 3.622e-03 2.773e-01
128 1 -3.524e+00 1.051e+00 -3.524e+00 3.945e-02 1.221e-01 -2.950e-01
129 1 3.523e+00 1.053e+00 -3.524e+00 2.000e-02 4.706e-03 -5.194e-02
130 1 -3.524e+00 1.053e+00 3.524e+00 -7.088e-02 -5.623e-02 9.372e-02
131 1 -1.373e-03 4.548e+00 7.422e-04 2.223e-01 3.487e-01 -6.202e-02
132 1 -3.565e+00 2.820e+00 -1.811e+00 9.049e-02 2.099e-01 -2.169e-01
133 1 -1.811e+00 2.817e+00 -3.565e+00 1.550e-01 3.245e-01 -2.848e-01
134 1 -3.568e+00 2.820e+00 1.808e+00 1.790e-02 9.436e-02 -4.911e-02
135 1 1.811e+00 2.819e+00 -3.565e+00 1.411e-01 3.076e-01 -4.323e-02
136 1 1.809e+00 2.819e+00 3.566e+00 -1.018e-02 8.612e-02 2.599e-01
137 1 3.567e+00 2.819e+00 1.810e+00 3.540e-02 1.532e-01 2.609e-01
138 1 -1.810e+00 2.819e+00 3.567e+00 -4.313e-03 6.103e-02 6.285e-02
139 1 3.568e+00 2.818e+00 -1.810e+00 8.534e-02 1.969e-01 1.067e-01
140 1 1.766e+00 -4.219e+00 -5.887e-04 3.016e-02 -1.291e-01 -3.263e-01
141 1 -5.848e-04 -4.219e+00 1.768e+00 1.364e-02 -2.082e-01 -4.273e-01
142 1 -2.549e-05 -4.217e+00 -1.767e+00 4.395e-02 -4.666e-02 -2.019e-01
143 1 -1.770e+00 -4.219e+00 -2.675e-04 3.188e-02 -1.017e-01 -2.708e-01
144 1 3.618e+00 -2.562e+00 -5.092e-04 -7.442e-03 -1.076e-01 -1.362e-01
145 1 1.341e-03 -2.564e+00 3.618e+00 -6.815e-02 -2.173e-01 -1.212e-01
146 1 1.325e-03 -2.563e+00 -3.618e+00 2.417e-02 3.130e-02 -9.139e-02
147 1 -3.619e+00 -2.563e+00 3.216e-04 2.543e-02 9.079e-03 -1.470e-01
148 1 -1.945e-04 2.106e+00 1.571e-03 -9.828e-03 -1.619e-01 -5.895e-02
149 1 6.228e-04 9.098e-04 1.621e-03 -6.294e-02 -1.480e-01 7.851e-02
150 1 1.809e+00 -7.123e-01 3.566e+00 -1.067e-01 -1.315e-01 2.110e-01
151 1 3.566e+00 -7.127e-01 1.810e+00 -6.148e-02 -1.041e-01 1.038e-01
152 1 -1.811e+00 -7.147e-01 3.565e+00 -6.195e-02 -1.131e-01 5.251e-02
153 1 3.565e+00 -7.131e-01 -1.811e+00 -2.761e-02 -1.290e-01 -6.503e-02
154 1 -3.566e+00 -7.117e-01 -1.811e+00 4.080e-02 1.183e-01 -1.979e-01
155 1 -1.810e+00 -7.128e-01 -3.565e+00 3.627e-02 1.114e-01 -2.372e-01
156 1 -3.565e+00 -7.128e-01 1.809e+00 1.736e-03 8.142e-03 -8.258e-02
157 1 1.810e+00 -7.140e-01 -3.566e+00 3.213e-04 -1.345e-02 -1.028e-01
158 1 -4.389e-04 -8.608e-01 2.035e+00 -4.887e-02 -1.117e-01 8.308e-02
159 1 2.035e+00 -8.622e-01 9.478e-04 -6.557e-02 -1.782e-01 5.407e-02
160 1 -2.034e+00 -8.619e-01 -1.503e-03 1.865e-02 3.458e-02 -1.061e-01
161 1 2.841e-04 -8.624e-01 -2.036e+00 9.742e-03 6.902e-03 -1.245e-01
162 1 -2.035e+00 2.968e+00 1.206e-03 1.366e-01 1.870e-01 -2.343e-01
163 1 -7.111e-04 2.966e+00 -2.037e+00 1.780e-01 2.852e-01 -1.658e-01
164 1 1.114e-04 2.967e+00 2.035e+00 8.093e-02 1.103e-01 -1.953e-02
165 1 2.036e+00 2.967e+00 -2.983e-04 1.011e-01 1.850e-01 1.620e-01
166 1 -1.690e-03 1.051e+00 -3.554e+00 3.976e-02 8.595e-02 -2.718e-01
167 1 -3.553e+00 1.053e+00 -2.020e-05 -3.014e-03 6.247e-02 -1.711e-01
168 1 3.555e+00 1.053e+00 -8.377e-04 3.839e-03 -1.970e-02 7.040e-02
169 1 -2.742e-04 1.051e+00 3.553e+00 -7.403e-02 -5.408e-02 2.392e-01
170 1 1.797e+00 -2.500e+00 1.795e+00 -5.283e-02 -1.731e-01 -7.711e-02
171 1 -1.793e+00 -2.502e+00 1.794e+00 2.421e-03 -1.279e-01 -2.407e-01
172 1 1.794e+00 -2.502e+00 -1.794e+00 4.024e-02 -2.309e-02 -1.787e-01
173 1 -1.793e+00 -2.503e+00 -1.793e+00 4.154e-02 7.827e-02 -1.513e-01
174 1 -2.304e-03 -2.443e+00 -4.132e-04 2.559e-02 -6.258e-02 -1.637e-01
175 1 1.676e+00 1.054e+00 1.675e+00 -2.265e-02 -2.498e-02 3.178e-01
176 1 -1.677e+00 1.053e+00 -1.677e+00 5.291e-02 1.301e-01 -3.819e-01
177 1 1.675e+00 1.051e+00 -1.676e+00 3.918e-02 1.762e-02 -9.803e-02
178 1 -1.676e+00 1.053e+00 1.677e+00 -3.011e-02 -1.358e-02 9.540e-02
ITEM: TIMESTEP
0
ITEM: NUMBER OF ATOMS
89
ITEM: BOX BOUNDS xy xz yz pp pp pp
                     0.00000000000000e+00 1.06200000000000e+01 0.00000000000000e+00
0.00000000000000e+00	1.06200000000000e+01	0.00000000000000e+00
0.00000000000000e+00	1.06200000000000e+01	0.00000000000000e+00
ITEM: ATOMS id type x y z DisplacementX DisplacementY DisplacementZ
179 1 6.977e-04 -5.979e+00 7.850e-04 -9.185e-03 -8.198e-02 -9.452e-02
180 1 3.546e+00 -2.489e+00 3.545e+00 1.786e-02 -5.861e-02 -7.335e-02
181 1 -3.545e+00 -2.489e+00 -3.545e+00 5.370e-03 1.874e-02 -2.646e-02
182 1 -3.547e+00 -2.490e+00 3.544e+00 1.905e-02 -4.973e-03 -1.379e-02
183 1 3.546e+00 -2.489e+00 -3.545e+00 9.218e-03 1.862e-02 -2.895e-02
184 1 1.778e+00 -4.255e+00 3.545e+00 4.759e-03 -1.323e-01 -2.395e-01
185 1 3.544e+00 -4.255e+00 1.779e+00 4.166e-03 -1.051e-01 -1.843e-01
186 1 -1.778e+00 -4.256e+00 3.544e+00 1.557e-02 -7.008e-02 -1.514e-01
187 1 3.544e+00 -4.255e+00 -1.776e+00 -4.928e-03 -4.350e-02 -5.792e-02
188 1 -3.543e+00 -4.256e+00 -1.779e+00 -9.898e-03 -2.116e-02 2.388e-02
189 1 -1.777e+00 -4.255e+00 -3.545e+00 -9.898e-03 -2.116e-02 2.388e-02
190 1 -3.544e+00 -4.255e+00 1.778e+00 1.434e-02 -1.362e-02 -3.686e-02
191 1 1.780e+00 -4.256e+00 -3.545e+00 -5.566e-03 -1.425e-02 1.428e-03
192 1 -1.186e-03 4.668e+00 -3.619e+00 3.283e-02 6.780e-02 3.205e-01
193 1 -3.617e+00 4.668e+00 3.142e-04 2.762e-01 2.726e-01 1.023e-01
194 1 3.618e+00 4.669e+00 1.017e-03 -1.419e-01 -1.094e-01 2.559e-01
195 1 3.304e-04 4.668e+00 3.618e+00 7.077e-02 8.937e-03 1.386e-01
196 1 5.299e+00 1.053e+00 1.769e+00 -2.832e-02 -2.392e-02 8.082e-02
197 1 1.771e+00 1.053e+00 5.302e+00 3.101e-02 4.247e-02 1.643e-01
198 1 1.770e+00 1.051e+00 -5.301e+00 6.239e-03 2.707e-02 -5.964e-02
199 1 -5.302e+00 1.052e+00 1.771e+00 2.952e-02 4.936e-02 3.929e-02
200 1 -1.771e+00 1.053e+00 -5.302e+00 1.620e-02 5.001e-02 -8.110e-02
201 1 -5.302e+00 1.053e+00 -1.769e+00 1.608e-02 2.380e-02 2.682e-02
202 1 5.301e+00 1.053e+00 -1.770e+00 -1.166e-02 1.162e-02 2.040e-02
203 1 -1.771e+00 1.052e+00 5.301e+00 2.020e-02 2.688e-02 1.597e-01
204 1 3.255e-04 -7.212e-01 5.278e+00 2.932e-02 8.997e-03 8.988e-02
205 1 5.280e+00 -7.207e-01 -2.894e-04 1.214e-02 1.290e-02 1.566e-03
206 1 -5.279e+00 -7.202e-01 -1.780e-04 -5.098e-03 -8.616e-03 8.057e-03
207 1 -2.866e-04 -7.212e-01 -5.278e+00 2.559e-02 7.157e-02 -9.314e-02
208 1 -5.281e+00 2.826e+00 -1.073e-03 1.259e-01 1.467e-01 7.440e-02
209 1 6.924e-04 2.827e+00 -5.279e+00 1.564e-02 5.545e-02 9.015e-02
210 1 5.770e-05 2.825e+00 5.280e+00 3.365e-02 2.627e-02 2.108e-01
211 1 5.279e+00 2.825e+00 2.685e-04 -7.777e-02 -5.459e-02 1.248e-01
212 1 -1.794e+00 4.609e+00 -1.795e+00 1.723e-01 9.945e-02 1.963e-01
213 1 1.795e+00 4.606e+00 1.796e+00 -5.552e-02 -1.609e-01 2.146e-01
214 1 1.794e+00 4.604e+00 -1.794e+00 -7.719e-02 -1.210e-01 2.659e-01
215 1 -1.795e+00 4.604e+00 1.793e+00 1.927e-01 5.251e-02 1.087e-01
216 1 3.525e+00 1.052e+00 3.525e+00 1.110e-02 1.902e-02 2.026e-01
217 1 -3.525e+00 1.053e+00 -3.524e+00 -5.792e-03 -2.269e-02 -4.996e-03
218 1 3.526e+00 1.053e+00 -3.524e+00 -4.899e-03 -5.941e-03 4.597e-02
219 1 -3.523e+00 1.053e+00 3.524e+00 1.357e-02 7.485e-03 1.678e-01
220 1 1.955e-03 4.549e+00 -1.355e-03 4.754e-02 -9.524e-02 2.206e-01
221 1 -3.567e+00 2.820e+00 -1.810e+00 1.238e-01 9.061e-02 1.213e-01
222 1 -1.810e+00 2.820e+00 -3.566e+00 6.050e-02 7.194e-02 1.325e-01
223 1 -3.565e+00 2.819e+00 1.810e+00 1.449e-01 9.656e-02 8.876e-02
224 1 1.810e+00 2.819e+00 -3.565e+00 -2.736e-02 8.548e-03 2.008e-01
225 1 1.810e+00 2.819e+00 3.566e+00 1.562e-02 1.132e-02 2.954e-01
226 1 3.567e+00 2.818e+00 1.810e+00 -7.536e-02 -6.442e-02 2.211e-01
227 1 -1.808e+00 2.818e+00 3.567e+00 9.714e-02 5.326e-02 2.366e-01
228 1 3.565e+00 2.818e+00 -1.810e+00 -1.028e-01 -9.188e-02 2.629e-01
229 1 1.768e+00 -4.219e+00 1.417e-03 3.865e-02 -1.382e-02 -1.559e-01
230 1 -1.540e-03 -4.219e+00 1.768e+00 5.072e-02 -4.000e-02 -2.270e-01
231 1 1.921e-05 -4.218e+00 -1.768e+00 2.811e-02 3.460e-02 -2.835e-02
232 1 -1.768e+00 -4.219e+00 -1.162e-03 2.478e-02 6.590e-03 -5.307e-02
233 1 3.619e+00 -2.562e+00 -5.092e-04 6.513e-02 7.609e-02 -5.229e-02
234 1 1.000e-03 -2.564e+00 3.618e+00 6.178e-02 -1.984e-02 -7.732e-02
235 1 9.769e-04 -2.564e+00 -3.617e+00 4.587e-02 1.133e-01 -2.503e-02
236 1 -3.617e+00 -2.563e+00 -3.427e-04 1.947e-02 3.523e-02 1.825e-02
237 1 4.586e-04 2.105e+00 2.010e-03 -6.476e-02 -2.843e-01 4.188e-01
238 1 2.259e-04 -1.708e-03 -1.106e-03 1.246e-01 2.413e-01 5.734e-01
239 1 1.810e+00 -7.139e-01 3.565e+00 7.099e-02 6.345e-02 1.577e-01
240 1 3.567e+00 -7.131e-01 1.810e+00 7.800e-02 1.127e-01 9.637e-02
241 1 -1.811e+00 -7.141e-01 3.566e+00 3.942e-02 2.369e-02 1.596e-01
242 1 3.565e+00 -7.118e-01 -1.811e+00 5.735e-02 1.121e-01 6.724e-02
243 1 -3.565e+00 -7.140e-01 -1.810e+00 1.006e-02 2.924e-02 1.448e-02
244 1 -1.809e+00 -7.141e-01 -3.567e+00 3.715e-02 9.829e-02 -5.233e-02
245 1 -3.566e+00 -7.143e-01 1.809e+00 1.551e-02 1.960e-02 1.020e-01
246 1 1.812e+00 -7.118e-01 -3.568e+00 5.354e-02 1.279e-01 4.205e-03
247 1 -1.215e-03 -8.611e-01 2.036e+00 1.583e-01 2.541e-01 3.918e-01
248 1 2.036e+00 -8.617e-01 -1.231e-03 1.664e-01 3.095e-01 3.211e-01
249 1 -2.035e+00 -8.615e-01 8.341e-04 9.064e-02 1.725e-01 2.760e-01
250 1 5.278e-04 -8.617e-01 -2.035e+00 1.360e-01 3.020e-01 1.807e-01
251 1 -2.034e+00 2.965e+00 -7.509e-04 1.504e-01 -7.414e-03 1.975e-01
252 1 2.330e-04 2.966e+00 -2.036e+00 -1.564e-03 -9.698e-02 2.935e-01
253 1 7.265e-04 2.969e+00 2.036e+00 4.389e-02 -1.063e-01 3.121e-01
254 1 2.037e+00 2.969e+00 2.106e-03 -9.842e-02 -1.805e-01 3.546e-01
255 1 -1.090e-03 1.053e+00 -3.556e+00 1.197e-02 2.399e-02 -4.076e-02
256 1 -3.554e+00 1.053e+00 5.015e-04 2.733e-02 1.808e-02 1.222e-01
257 1 3.555e+00 1.053e+00 -1.631e-04 2.188e-02 7.244e-02 2.044e-01
258 1 -5.919e-04 1.051e+00 3.553e+00 5.113e-02 5.891e-02 4.183e-01
259 1 1.794e+00 -2.503e+00 1.795e+00 1.131e-01 1.032e-01 -4.666e-02
260 1 -1.794e+00 -2.501e+00 1.794e+00 9.162e-02 1.161e-01 1.931e-02
261 1 1.795e+00 -2.502e+00 -1.795e+00 1.121e-01 2.233e-01 1.349e-04
262 1 -1.795e+00 -2.502e+00 -1.795e+00 8.723e-02 1.998e-01 2.733e-02
263 1 -2.533e-04 -2.442e+00 -9.033e-04 1.611e-01 2.794e-01 1.570e-01
264 1 1.677e+00 1.051e+00 1.676e+00 6.295e-02 9.581e-02 5.257e-01
265 1 -1.677e+00 1.054e+00 -1.674e+00 3.111e-02 3.191e-02 1.124e-01
266 1 1.675e+00 1.051e+00 -1.676e+00 4.943e-02 9.688e-02 1.655e-01
267 1 -1.677e+00 1.053e+00 1.674e+00 4.715e-02 3.473e-02 4.847e-01
ITEM: TIMESTEP
0
ITEM: NUMBER OF ATOMS
89
ITEM: BOX BOUNDS xy xz yz pp pp pp
                     0.00000000000000e+00 1.06200000000000e+01 0.00000000000000e+00
0.00000000000000e+00	1.06200000000000e+01	0.00000000000000e+00
0.00000000000000e+00	1.06200000000000e+01	0.00000000000000e+00
ITEM: ATOMS id type x y z DisplacementX DisplacementY DisplacementZ
268 1 -1.547e-03 -5.979e+00 5.432e-04 -1.048e-02 -2.267e-02 2.580e-02
269 1 3.547e+00 -2.489e+00 3.548e+00 -5.308e-02 -3.559e-02 1.429e-01
270 1 -3.548e+00 -2.490e+00 -3.548e+00 -1.048e-02 -2.267e-02 2.580e-02
271 1 -3.547e+00 -2.488e+00 3.546e+00 -1.048e-02 -2.267e-02 2.580e-02
272 1 3.548e+00 -2.490e+00 -3.544e+00 -6.533e-03 -1.436e-02 3.785e-02
273 1 1.776e+00 -4.254e+00 3.544e+00 -6.349e-02 -6.381e-02 1.200e-01
274 1 3.543e+00 -4.257e+00 1.778e+00 -8.767e-02 -8.883e-02 1.522e-01
275 1 -1.778e+00 -4.255e+00 3.544e+00 -1.048e-02 -2.267e-02 2.580e-02
276 1 3.544e+00 -4.256e+00 -1.777e+00 -3.466e-02 -4.770e-02 5.801e-02
277 1 -3.544e+00 -4.254e+00 -1.778e+00 -1.048e-02 -2.267e-02 2.580e-02
278 1 -1.776e+00 -4.257e+00 -3.544e+00 -1.048e-02 -2.267e-02 2.580e-02
279 1 -3.543e+00 -4.255e+00 1.779e+00 -1.048e-02 -2.267e-02 2.580e-02
280 1 1.779e+00 -4.255e+00 -3.545e+00 -1.048e-02 -2.267e-02 2.580e-02
281 1 7.930e-04 4.667e+00 -3.617e+00 1.340e-01 1.026e-01 -7.491e-02
282 1 -3.620e+00 4.668e+00 -1.486e-03 2.336e-01 6.661e-02 -3.991e-02
283 1 3.619e+00 4.667e+00 -1.124e-03 8.836e-02 1.849e-01 -1.634e-01
284 1 1.520e-03 4.669e+00 3.619e+00 1.117e-01 9.825e-02 -7.813e-02
285 1 5.301e+00 1.053e+00 1.770e+00 5.147e-02 1.097e-01 1.688e-02
286 1 1.769e+00 1.053e+00 5.302e+00 5.440e-02 1.025e-01 3.625e-02
287 1 1.770e+00 1.055e+00 -5.303e+00 2.777e-02 7.416e-02 -5.431e-02
288 1 -5.303e+00 1.052e+00 1.770e+00 2.970e-02 4.596e-02 3.684e-02
289 1 -1.772e+00 1.052e+00 -5.302e+00 1.015e-02 2.138e-02 -3.783e-02
290 1 -5.302e+00 1.053e+00 -1.771e+00 1.565e-02 3.993e-03 5.057e-02
291 1 5.303e+00 1.053e+00 -1.771e+00 2.964e-02 7.862e-02 -6.201e-02
292 1 -1.771e+00 1.053e+00 5.301e+00 -1.746e-02 -2.592e-02 3.015e-02
293 1 -1.762e-03 -7.197e-01 5.281e+00 5.489e-03 8.154e-03 2.405e-02
294 1 5.280e+00 -7.211e-01 -4.161e-04 -1.946e-02 -5.486e-03 4.390e-02
295 1 -5.281e+00 -7.233e-01 -4.270e-04 -1.048e-02 -2.267e-02 2.580e-02
296 1 1.080e-04 -7.209e-01 -5.280e+00 1.482e-02 3.959e-02 -9.076e-03
297 1 -5.280e+00 2.826e+00 -4.362e-04 1.047e-01 4.545e-02 3.766e-02
298 1 4.876e-04 2.825e+00 -5.279e+00 6.583e-02 1.099e-01 -7.869e-02
299 1 3.570e-04 2.829e+00 5.282e+00 2.763e-02 4.485e-02 2.578e-02
300 1 5.279e+00 2.827e+00 -7.539e-04 5.366e-02 1.297e-01 -1.100e-01
301 1 -1.794e+00 4.608e+00 -1.794e+00 1.451e-01 -9.664e-02 -2.276e-03
302 1 1.793e+00 4.608e+00 1.795e+00 6.593e-02 3.753e-02 -6.955e-02
303 1 1.797e+00 4.608e+00 -1.795e+00 7.386e-02 5.256e-02 -1.645e-01
304 1 -1.793e+00 4.606e+00 1.792e+00 1.277e-01 -8.150e-02 -4.727e-02
305 1 3.525e+00 1.054e+00 3.524e+00 6.035e-02 1.195e-01 -2.288e-04
306 1 -3.524e+00 1.054e+00 -3.525e+00 -3.637e-02 -1.088e-01 5.633e-02
307 1 3.524e+00 1.053e+00 -3.524e+00 3.241e-02 8.407e-02 -1.528e-02
308 1 -3.524e+00 1.052e+00 3.523e+00 4.717e-03 3.429e-03 5.366e-02
309 1 1.323e-03 4.546e+00 -1.917e-03 7.828e-02 -1.535e-01 -9.387e-02
310 1 -3.566e+00 2.820e+00 -1.811e+00 8.474e-02 -9.679e-02 2.684e-02
311 1 -1.811e+00 2.818e+00 -3.565e+00 8.132e-02 4.267e-03 -3.054e-03
312 1 -3.566e+00 2.818e+00 1.810e+00 1.079e-01 -1.190e-02 -2.746e-02
313 1 1.810e+00 2.817e+00 -3.566e+00 9.447e-02 1.706e-01 -8.074e-02
314 1 1.810e+00 2.820e+00 3.566e+00 7.110e-02 1.133e-01 -5.072e-02
315 1 3.564e+00 2.819e+00 1.810e+00 7.506e-02 1.437e-01 -1.222e-01
316 1 -1.809e+00 2.819e+00 3.566e+00 6.361e-02 1.978e-02 9.777e-04
317 1 3.568e+00 2.818e+00 -1.810e+00 5.524e-02 1.274e-01 -9.472e-02
318 1 1.767e+00 -4.219e+00 6.221e-04 -4.474e-02 -3.793e-02 9.385e-02
319 1 8.520e-04 -4.218e+00 1.766e+00 -4.691e-03 3.512e-03 4.049e-02
320 1 1.273e-03 -4.220e+00 -1.767e+00 5.632e-03 1.296e-02 2.827e-02
321 1 -1.768e+00 -4.218e+00 1.817e-03 5.632e-03 1.296e-02 2.827e-02
322 1 3.620e+00 -2.562e+00 1.849e-03 -1.939e-02 2.113e-02 6.961e-02
323 1 -6.966e-04 -2.561e+00 3.620e+00 1.785e-02 5.136e-02 3.637e-02
324 1 -4.699e-04 -2.563e+00 -3.619e+00 3.107e-02 6.406e-02 4.043e-02
325 1 -3.616e+00 -2.563e+00 1.276e-03 1.849e-02 4.405e-02 4.666e-02
326 1 -5.200e-04 2.105e+00 -1.223e-04 -1.227e-01 -3.996e-01 1.212e-01
327 1 2.683e-04 -8.930e-04 -2.198e-04 6.239e-02 1.193e-01 1.572e-01
328 1 1.811e+00 -7.118e-01 3.565e+00 2.354e-02 8.398e-02 4.528e-02
329 1 3.566e+00 -7.138e-01 1.809e+00 2.519e-02 1.038e-01 2.527e-02
330 1 -1.811e+00 -7.135e-01 3.565e+00 8.437e-03 2.673e-02 3.722e-02
331 1 3.566e+00 -7.146e-01 -1.808e+00 3.359e-02 9.236e-02 6.357e-02
332 1 -3.565e+00 -7.136e-01 -1.812e+00 -1.036e-02 -2.283e-02 6.208e-02
333 1 -1.810e+00 -7.134e-01 -3.567e+00 1.742e-02 3.736e-02 5.798e-03
334 1 -3.566e+00 -7.127e-01 1.810e+00 6.524e-03 2.291e-02 6.708e-02
335 1 1.810e+00 -7.125e-01 -3.566e+00 6.003e-02 1.330e-01 5.793e-02
336 1 1.095e-03 -8.620e-01 2.035e+00 7.992e-02 1.802e-01 6.235e-02
337 1 2.036e+00 -8.627e-01 1.080e-04 7.880e-02 2.019e-01 9.151e-02
338 1 -2.035e+00 -8.610e-01 -3.257e-04 6.147e-02 1.248e-01 1.368e-01
339 1 1.420e-03 -8.626e-01 -2.036e+00 1.014e-01 2.114e-01 1.171e-01
340 1 -2.036e+00 2.968e+00 -1.343e-04 7.287e-02 -2.412e-01 1.788e-02
341 1 -4.504e-04 2.966e+00 -2.035e+00 3.796e-02 -1.355e-01 -1.569e-02
342 1 -7.485e-05 2.968e+00 2.036e+00 1.405e-02 -1.564e-01 -7.237e-02
343 1 2.037e+00 2.966e+00 1.457e-04 1.091e-02 -5.755e-02 -1.147e-01
344 1 -2.510e-03 1.053e+00 -3.553e+00 1.148e-02 5.081e-03 -1.569e-02
345 1 -3.555e+00 1.053e+00 1.564e-03 1.247e-02 -2.973e-02 8.829e-02
346 1 3.554e+00 1.051e+00 9.477e-04 5.615e-02 1.264e-01 -8.106e-02
347 1 -9.593e-04 1.053e+00 3.553e+00 2.183e-02 3.333e-02 -2.313e-04
348 1 1.795e+00 -2.501e+00 1.795e+00 2.082e-02 1.182e-01 9.550e-02
349 1 -1.796e+00 -2.500e+00 1.794e+00 5.476e-02 1.253e-01 4.196e-02
350 1 1.794e+00 -2.501e+00 -1.796e+00 6.117e-02 1.466e-01 3.091e-02
351 1 -1.794e+00 -2.502e+00 -1.793e+00 6.348e-02 1.392e-01 4.875e-02
352 1 1.029e-04 -2.442e+00 -1.859e-04 1.150e-01 2.538e-01 8.702e-02
353 1 1.678e+00 1.051e+00 1.675e+00 6.260e-02 9.800e-02 2.324e-02
354 1 -1.675e+00 1.054e+00 -1.677e+00 -1.367e-02 -9.679e-02 9.652e-02
355 1 1.677e+00 1.053e+00 -1.675e+00 6.195e-02 1.124e-01 -3.466e-02
356 1 -1.674e+00 1.051e+00 1.676e+00 2.820e-03 -4.241e-02 1.431e-01
ITEM: TIMESTEP
0
ITEM: NUMBER OF ATOMS
89
ITEM: BOX BOUNDS xy xz yz pp pp pp
                     0.00000000000000e+00 1.06200000000000e+01 0.00000000000000e+00
0.00000000000000e+00	1.06200000000000e+01	0.00000000000000e+00
0.00000000000000e+00	1.06200000000000e+01	0.00000000000000e+00
ITEM: ATOMS id type x y z DisplacementX DisplacementY DisplacementZ
357 1 2.521e-04 -5.979e+00 -8.257e-04 3.437e-03 2.824e-03 3.066e-02
358 1 3.547e+00 -2.491e+00 3.547e+00 -6.137e-02 -6.952e-02 1.064e-01
359 1 -3.546e+00 -2.491e+00 -3.546e+00 -1.005e-02 -2.156e-02 2.439e-02
360 1 -3.543e+00 -2.489e+00 3.548e+00 -2.377e-02 -4.939e-02 1.815e-02
361 1 3.546e+00 -2.488e+00 -3.547e+00 -1.029e-02 -2.219e-02 2.518e-02
362 1 1.779e+00 -4.257e+00 3.544e+00 -4.948e-02 -6.954e-02 6.500e-02
363 1 3.544e+00 -4.257e+00 1.778e+00 -5.570e-02 -7.316e-02 7.880e-02
364 1 -1.778e+00 -4.253e+00 3.545e+00 -1.763e-02 -4.586e-02 4.459e-03
365 1 3.543e+00 -4.254e+00 -1.777e+00 -2.413e-02 -3.680e-02 4.398e-02
366 1 -3.543e+00 -4.255e+00 -1.777e+00 -1.048e-02 -2.267e-02 2.580e-02
367 1 -1.779e+00 -4.255e+00 -3.546e+00 -1.048e-02 -2.267e-02 2.580e-02
368 1 -3.544e+00 -4.254e+00 1.778e+00 -1.020e-02 -3.535e-02 7.011e-05
369 1 1.778e+00 -4.255e+00 -3.543e+00 -1.048e-02 -2.267e-02 2.580e-02
370 1 2.718e-04 4.667e+00 -3.618e+00 1.922e-01 6.763e-01 5.668e-01
371 1 -3.619e+00 4.667e+00 4.167e-04 5.972e-01 9.646e-01 1.188e-01
372 1 3.619e+00 4.667e+00 -9.067e-04 3.309e-02 3.336e-01 2.298e-01
373 1 1.746e-03 4.668e+00 3.618e+00 2.858e-01 4.852e-01 -3.304e-03
374 1 5.302e+00 1.052e+00 1.770e+00 -5.248e-02 2.098e-02 1.612e-01
375 1 1.769e+00 1.052e+00 5.302e+00 5.301e-02 1.810e-01 1.423e-01
376 1 1.769e+00 1.052e+00 -5.303e+00 -2.574e-02 6.876e-02 9.945e-02
377 1 -5.303e+00 1.052e+00 1.771e+00 6.816e-02 1.417e-01 9.589e-02
378 1 -1.770e+00 1.052e+00 -5.301e+00 -1.763e-02 7.249e-02 1.124e-01
379 1 -5.303e+00 1.053e+00 -1.769e+00 9.350e-02 1.679e-01 6.212e-02
380 1 5.301e+00 1.054e+00 -1.769e+00 -5.613e-02 -1.217e-02 6.372e-02
381 1 -1.770e+00 1.052e+00 5.300e+00 -4.700e-02 2.824e-03 1.734e-01
382 1 -1.513e-04 -7.210e-01 5.281e+00 -2.917e-02 5.376e-03 1.165e-01
383 1 5.280e+00 -7.185e-01 5.158e-04 -6.023e-02 -5.286e-02 8.081e-02
384 1 -5.280e+00 -7.203e-01 6.846e-05 -1.048e-02 -2.267e-02 2.580e-02
385 1 -1.673e-04 -7.200e-01 -5.283e+00 -4.957e-03 1.203e-02 -1.766e-02
386 1 -5.280e+00 2.826e+00 1.161e-04 2.912e-01 4.902e-01 9.862e-02
387 1 -5.750e-04 2.824e+00 -5.281e+00 4.122e-02 3.173e-01 3.198e-01
388 1 1.249e-04 2.829e+00 5.280e+00 8.612e-02 2.187e-01 1.260e-01
389 1 5.281e+00 2.826e+00 -7.878e-04 -4.973e-02 1.028e-01 1.613e-01
390 1 -1.794e+00 4.607e+00 -1.795e+00 4.999e-01 9.222e-01 2.547e-01
391 1 1.794e+00 4.607e+00 1.796e+00 2.324e-01 4.623e-01 -8.244e-04
392 1 1.795e+00 4.606e+00 -1.795e+00 1.543e-01 5.703e-01 3.171e-01
393 1 -1.795e+00 4.607e+00 1.794e+00 5.089e-01 7.253e-01 -5.754e-02
394 1 3.524e+00 1.052e+00 3.524e+00 3.431e-02 1.588e-01 1.846e-01
395 1 -3.526e+00 1.052e+00 -3.524e+00 6.194e-02 1.544e-01 4.583e-02
396 1 3.526e+00 1.054e+00 -3.525e+00 -1.048e-02 7.383e-02 1.015e-01
397 1 -3.525e+00 1.053e+00 3.524e+00 2.744e-02 1.069e-01 1.451e-01
398 1 2.418e-04 4.546e+00 -6.203e-06 4.077e-01 7.070e-01 5.379e-02
399 1 -3.563e+00 2.821e+00 -1.812e+00 3.583e-01 6.254e-01 1.108e-01
400 1 -1.809e+00 2.819e+00 -3.564e+00 1.962e-01 5.431e-01 2.909e-01
401 1 -3.566e+00 2.817e+00 1.811e+00 3.537e-01 5.727e-01 5.262e-02
402 1 1.812e+00 2.819e+00 -3.568e+00 4.788e-02 3.849e-01 3.494e-01
403 1 1.812e+00 2.819e+00 3.565e+00 1.507e-01 3.335e-01 9.733e-02
404 1 3.565e+00 2.819e+00 1.810e+00 6.433e-02 2.921e-01 1.557e-01
405 1 -1.808e+00 2.818e+00 3.565e+00 2.027e-01 3.616e-01 8.963e-02
406 1 3.565e+00 2.820e+00 -1.809e+00 3.422e-03 2.612e-01 2.542e-01
407 1 1.768e+00 -4.218e+00 2.104e-05 -1.363e-02 -8.992e-03 8.595e-02
408 1 -5.279e-04 -4.221e+00 1.767e+00 -5.318e-03 -1.223e-02 5.171e-02
409 1 -2.462e-04 -4.217e+00 -1.770e+00 9.981e-03 1.831e-02 6.009e-02
410 1 -1.766e+00 -4.218e+00 -8.304e-04 1.008e-02 1.380e-02 5.093e-02
411 1 3.619e+00 -2.563e+00 1.031e-03 -3.247e-02 -1.424e-02 1.373e-01
412 1 -4.866e-05 -2.563e+00 3.618e+00 -2.248e-02 -6.642e-03 1.425e-01
413 1 2.136e-04 -2.562e+00 -3.619e+00 2.153e-02 5.257e-02 3.405e-02