ITEM: TIMESTEP
0
ITEM: NUMBER OF ATOMS
107
ITEM: BOX BOUNDS xy xz yz pp pp pp
                     0.00000000000000e+00 1.06200000000000e+01 0.00000000000000e+00
0.00000000000000e+00	1.06200000000000e+01	0.00000000000000e+00
0.00000000000000e+00	1.06200000000000e+01	0.00000000000000e+00
ITEM: ATOMS id type x y z DisplacementX DisplacementY DisplacementZ
1 1 3.557e-01 3.557e-01 3.515e-01 -1.089e-03 -4.681e-03 1.502e-03
2 1 2.124e+00 2.124e+00 3.632e-01 -7.073e-03 -1.293e-02 1.541e-02
3 1 2.124e+00 3.523e-01 2.124e+00 -4.916e-04 -3.867e-03 -3.244e-04
4 1 3.523e-01 2.124e+00 2.124e+00 2.845e-04 -1.640e-03 -4.837e-04
5 1 3.892e+00 3.557e-01 3.515e-01 -3.685e-04 -2.104e-03 1.577e-04
6 1 5.661e+00 2.124e+00 3.507e-01 -1.208e-04 1.244e-03 -1.788e-03
7 1 5.663e+00 3.547e-01 2.124e+00 -2.401e-05 -2.207e-03 -1.280e-03
8 1 3.896e+00 2.124e+00 2.124e+00 7.117e-04 -3.022e-03 -1.942e-03
9 1 7.434e+00 3.547e-01 3.532e-01 -4.094e-05 1.942e-03 1.217e-04
10 1 9.207e+00 2.124e+00 3.507e-01 -2.598e-04 9.642e-04 -2.396e-03
11 1 9.205e+00 3.547e-01 2.124e+00 -4.935e-04 -1.704e-03 -7.582e-05
12 1 7.434e+00 2.124e+00 2.124e+00 -7.119e-04 9.348e-04 -2.435e-04
13 1 3.557e-01 3.892e+00 3.515e-01 -2.479e-03 -3.376e-03 -1.497e-03
14 1 2.124e+00 3.896e+00 2.124e+00 5.215e-04 3.839e-04 -3.984e-04
15 1 3.892e+00 3.892e+00 3.515e-01 4.872e-04 -3.697e-03 -3.805e-03
16 1 5.663e+00 3.893e+00 2.124e+00 -2.453e-04 -7.066e-04 -1.517e-03
17 1 7.434e+00 3.893e+00 3.532e-01 -3.039e-04 1.495e-03 -1.735e-03
18 1 9.205e+00 3.893e+00 2.124e+00 -9.438e-04 -1.396e-03 3.365e-04
19 1 3.557e-01 3.557e-01 3.897e+00 -7.901e-04 -3.226e-03 7.899e-04
20 1 2.124e+00 2.124e+00 3.885e+00 -2.343e-04 -2.031e-03 -6.207e-03
21 1 3.892e+00 3.557e-01 3.897e+00 -5.400e-04 -6.927e-03 -1.862e-03
22 1 5.661e+00 2.124e+00 3.897e+00 -2.254e-03 1.847e-04 3.472e-03
23 1 7.434e+00 3.547e-01 3.895e+00 -4.451e-04 2.765e-03 -1.293e-03
24 1 9.207e+00 2.124e+00 3.897e+00 -4.904e-04 5.876e-04 1.267e-03
25 1 3.557e-01 3.892e+00 3.897e+00 -2.611e-03 -3.830e-03 6.195e-03
26 1 3.892e+00 3.892e+00 3.897e+00 -2.014e-03 -2.017e-03 1.677e-03
27 1 7.434e+00 3.893e+00 3.895e+00 -3.270e-04 1.630e-03 8.612e-04
28 1 2.124e+00 3.632e-01 5.673e+00 -2.628e-02 6.173e-01 7.087e-01
29 1 3.632e-01 2.124e+00 5.673e+00 -2.961e-02 -9.101e-02 1.610e-02
30 1 5.661e+00 3.557e-01 5.666e+00 -1.081e-03 6.246e-03 -1.344e-03
31 1 3.885e+00 2.124e+00 5.673e+00 -1.509e-02 -8.893e-02 1.547e-02
32 1 9.207e+00 3.557e-01 5.666e+00 3.443e-04 5.671e-03 -1.409e-03
33 1 7.434e+00 2.124e+00 5.662e+00 8.207e-04 6.750e-04 -5.228e-03
34 1 2.124e+00 3.885e+00 5.673e+00 -2.520e-02 -4.277e-02 3.099e-03
35 1 5.661e+00 3.892e+00 5.666e+00 4.727e-05 2.859e-03 5.501e-03
36 1 9.207e+00 3.892e+00 5.666e+00 -1.251e-03 4.902e-03 3.062e-03
37 1 3.632e-01 3.632e-01 7.434e+00 -1.052e-02 -7.491e-02 7.985e-03
38 1 2.124e+00 3.632e-01 9.195e+00 -1.336e-02 5.753e-01 -6.614e-01
39 1 3.632e-01 2.124e+00 9.195e+00 3.294e-01 -6.771e-02 -3.369e-01
40 1 3.885e+00 3.632e-01 7.434e+00 -1.383e-02 -7.821e-02 1.084e-02
41 1 5.673e+00 2.124e+00 7.434e+00 2.876e-03 1.412e-02 -5.081e-03
42 1 5.661e+00 3.557e-01 9.202e+00 -2.391e-04 5.160e-03 1.612e-03
43 1 3.885e+00 2.124e+00 9.195e+00 -1.822e-03 -5.887e-02 5.268e-03
44 1 7.434e+00 3.523e-01 7.434e+00 6.829e-04 -5.141e-03 -1.125e-03
45 1 9.195e+00 2.124e+00 7.434e+00 -6.043e-03 1.196e-02 1.210e-02
46 1 9.207e+00 3.557e-01 9.202e+00 1.170e-03 4.770e-03 1.127e-03
47 1 7.434e+00 2.124e+00 9.206e+00 -1.131e-03 -4.026e-04 3.120e-03
48 1 3.632e-01 3.885e+00 7.434e+00 -3.334e-02 -7.312e-02 2.151e-02
49 1 2.124e+00 3.885e+00 9.195e+00 -1.999e-02 -7.333e-02 3.455e-02
50 1 3.885e+00 3.885e+00 7.434e+00 -2.176e-02 -8.198e-02 2.782e-02
51 1 5.661e+00 3.892e+00 9.202e+00 -9.243e-04 2.922e-03 -2.692e-03
52 1 7.434e+00 3.896e+00 7.434e+00 4.662e-04 4.339e-03 -6.824e-04
53 1 9.207e+00 3.892e+00 9.202e+00 7.592e-04 4.563e-03 -3.290e-03
54 1 2.124e+00 5.661e+00 3.507e-01 9.433e-04 -4.970e-03 -7.762e-03
55 1 3.547e-01 5.663e+00 2.124e+00 -7.071e-04 -2.188e-03 -5.660e-04
56 1 5.663e+00 5.663e+00 3.531e-01 3.389e-04 -6.101e-04 -3.030e-03
57 1 3.893e+00 5.663e+00 2.124e+00 2.176e-05 -1.666e-03 -1.239e-03
58 1 9.205e+00 5.663e+00 3.531e-01 2.258e-04 -7.365e-04 -1.728e-03
59 1 7.434e+00 5.664e+00 2.124e+00 5.610e-05 -3.092e-04 -1.056e-03
60 1 3.547e-01 7.434e+00 3.532e-01 7.971e-04 -2.464e-03 -2.996e-04
61 1 2.124e+00 9.207e+00 3.507e-01 1.466e-03 -1.965e-03 1.941e-03
62 1 2.124e+00 7.434e+00 2.124e+00 2.132e-04 -3.429e-03 -1.840e-03
63 1 3.547e-01 9.205e+00 2.124e+00 -2.474e-04 -3.384e-03 -8.488e-04
64 1 3.893e+00 7.434e+00 3.532e-01 7.230e-04 -2.576e-03 -1.751e-03
65 1 5.663e+00 9.205e+00 3.531e-01 6.657e-04 -5.198e-04 -6.012e-04
66 1 5.664e+00 7.434e+00 2.124e+00 2.971e-04 -1.053e-03 -1.438e-03
67 1 3.893e+00 9.205e+00 2.124e+00 -1.210e-04 -3.635e-03 -1.570e-03
68 1 7.434e+00 7.434e+00 3.535e-01 3.222e-04 -3.950e-04 -1.174e-03
69 1 9.205e+00 9.205e+00 3.531e-01 1.822e-04 -5.474e-04 9.620e-05
70 1 9.204e+00 7.434e+00 2.124e+00 1.922e-04 -1.202e-03 -1.261e-03
71 1 7.434e+00 9.204e+00 2.124e+00 1.302e-04 -5.332e-04 -1.153e-03
72 1 2.124e+00 5.661e+00 3.897e+00 -5.869e-04 -6.027e-03 4.837e-03
73 1 5.663e+00 5.663e+00 3.895e+00 1.322e-04 -5.766e-04 3.252e-04
74 1 9.205e+00 5.663e+00 3.895e+00 -7.170e-05 -1.056e-03 -4.190e-04
75 1 3.547e-01 7.434e+00 3.895e+00 7.339e-04 -2.612e-03 -3.450e-03
76 1 2.124e+00 9.207e+00 3.897e+00 -7.996e-04 -2.755e-03 -4.517e-03
77 1 3.893e+00 7.434e+00 3.895e+00 7.036e-04 -2.180e-03 -1.830e-03
78 1 5.663e+00 9.205e+00 3.895e+00 -1.606e-04 -5.029e-04 -1.826e-03
79 1 7.434e+00 7.434e+00 3.894e+00 3.041e-04 -2.776e-04 -1.475e-03
80 1 9.205e+00 9.205e+00 3.895e+00 4.495e-04 -4.296e-04 -2.663e-03
81 1 3.557e-01 5.661e+00 5.666e+00 1.004e-03 -3.796e-03 -2.190e-04
82 1 3.892e+00 5.661e+00 5.666e+00 1.010e-03 -4.407e-03 -6.539e-04
83 1 7.434e+00 5.663e+00 5.665e+00 1.085e-04 1.716e-03 5.224e-04
84 1 2.124e+00 7.434e+00 5.662e+00 2.773e-03 -1.307e-03 -2.740e-03
85 1 3.557e-01 9.207e+00 5.666e+00 4.235e-04 -1.790e-03 -4.085e-03
86 1 5.663e+00 7.434e+00 5.665e+00 6.448e-04 -2.683e-04 -1.508e-03
87 1 3.892e+00 9.207e+00 5.666e+00 4.965e-04 -1.003e-03 -2.473e-03
88 1 9.205e+00 7.434e+00 5.665e+00 8.467e-04 -1.248e-03 -2.749e-03
89 1 7.434e+00 9.205e+00 5.665e+00 6.428e-04 2.173e-03 -1.489e-03
90 1 2.124e+00 5.673e+00 7.434e+00 1.846e-03 8.498e-03 7.312e-04
91 1 3.557e-01 5.661e+00 9.202e+00 2.077e-03 -4.817e-03 -1.737e-03
92 1 5.661e+00 5.661e+00 7.434e+00 6.182e-05 -8.159e-04 -8.006e-04
93 1 3.892e+00 5.661e+00 9.202e+00 1.343e-03 -2.514e-03 -4.908e-03
94 1 9.207e+00 5.661e+00 7.434e+00 1.590e-03 -7.916e-04 -1.888e-03
95 1 7.434e+00 5.663e+00 9.203e+00 3.524e-04 1.891e-03 -2.377e-03
96 1 3.523e-01 7.434e+00 7.434e+00 -1.025e-03 -1.218e-03 -1.987e-04
97 1 2.124e+00 9.195e+00 7.434e+00 2.744e-03 -1.947e-02 -5.283e-03
98 1 2.124e+00 7.434e+00 9.206e+00 -1.149e-03 -2.415e-03 8.549e-04
99 1 3.557e-01 9.207e+00 9.202e+00 1.590e-03 -1.352e-03 4.408e-04
100 1 3.896e+00 7.434e+00 7.434e+00 1.824e-03 -6.790e-04 -2.225e-03
101 1 5.661e+00 9.207e+00 7.434e+00 1.715e-04 3.630e-03 7.981e-05
102 1 5.663e+00 7.434e+00 9.203e+00 1.264e-03 -5.178e-04 -2.056e-03
103 1 3.892e+00 9.207e+00 9.202e+00 2.922e-03 -2.738e-03 -1.062e-03
104 1 7.434e+00 7.434e+00 7.434e+00 6.097e-04 1.598e-03 -1.241e-03
105 1 9.207e+00 9.207e+00 7.434e+00 1.231e-03 4.228e-03 -1.706e-03
106 1 9.205e+00 7.434e+00 9.203e+00 7.160e-04 -9.722e-04 -6.226e-04
107 1 7.434e+00 9.205e+00 9.203e+00 5.975e-04 1.571e-03 -5.302e-04
ITEM: TIMESTEP
0
ITEM: NUMBER OF ATOMS
107
ITEM: BOX BOUNDS xy xz yz pp pp pp
                     0.00000000000000e+00 1.06200000000000e+01 0.00000000000000e+00
0.00000000000000e+00	1.06200000000000e+01	0.00000000000000e+00
0.00000000000000e+00	1.06200000000000e+01	0.00000000000000e+00
ITEM: ATOMS id type x y z DisplacementX DisplacementY DisplacementZ
1 1 3.557e-01 3.557e-01 3.515e-01 -4.265e-03 1.489e-03 8.736e-04
2 1 2.124e+00 2.124e+00 3.632e-01 -1.549e-02 -2.547e-03 1.454e-02
3 1 2.124e+00 3.523e-01 2.124e+00 5.610e-04 -1.012e-03 3.350e-03
4 1 3.523e-01 2.124e+00 2.124e+00 -3.676e-03 2.254e-03 3.136e-03
5 1 3.892e+00 3.557e-01 3.515e-01 -4.999e-03 1.326e-03 6.852e-04
6 1 5.661e+00 2.124e+00 3.507e-01 -4.170e-03 3.084e-03 -2.302e-03
7 1 5.663e+00 3.547e-01 2.124e+00 -3.310e-03 1.388e-03 2.147e-03
8 1 3.896e+00 2.124e+00 2.124e+00 4.414e-04 -8.944e-04 9.170e-04
9 1 7.434e+00 3.547e-01 3.532e-01 -2.746e-03 1.248e-03 1.576e-03
10 1 9.207e+00 2.124e+00 3.507e-01 -2.642e-03 1.480e-03 2.321e-03
11 1 9.205e+00 3.547e-01 2.124e+00 -4.621e-03 1.579e-03 1.313e-03
12 1 7.434e+00 2.124e+00 2.124e+00 -5.058e-03 1.745e-03 1.518e-03
13 1 3.557e-01 3.892e+00 3.515e-01 -5.685e-03 1.496e-03 3.722e-03
14 1 2.124e+00 3.896e+00 2.124e+00 -3.346e-03 2.846e-03 -3.590e-04
15 1 3.892e+00 3.892e+00 3.515e-01 -3.520e-03 2.172e-03 -1.887e-04
16 1 5.663e+00 3.893e+00 2.124e+00 -3.829e-03 1.764e-03 1.943e-03
17 1 7.434e+00 3.893e+00 3.532e-01 -2.735e-03 1.456e-03 1.424e-03
18 1 9.205e+00 3.893e+00 2.124e+00 -4.218e-03 1.167e-03 1.747e-03
19 1 3.557e-01 3.557e-01 3.897e+00 -7.187e-03 2.149e-03 8.785e-04
20 1 2.124e+00 2.124e+00 3.885e+00 -2.857e-03 4.952e-03 -1.187e-02
21 1 3.892e+00 3.557e-01 3.897e+00 -3.806e-03 1.592e-03 4.136e-03
22 1 5.661e+00 2.124e+00 3.897e+00 -8.400e-03 1.608e-03 6.669e-03
23 1 7.434e+00 3.547e-01 3.895e+00 -3.715e-03 1.829e-03 3.971e-04
24 1 9.207e+00 2.124e+00 3.897e+00 -3.766e-03 -2.058e-04 -9.351e-04
25 1 3.557e-01 3.892e+00 3.897e+00 -3.964e-03 -1.175e-03 7.375e-04
26 1 3.892e+00 3.892e+00 3.897e+00 -5.907e-03 2.048e-03 5.076e-03
27 1 7.434e+00 3.893e+00 3.895e+00 -3.731e-03 9.486e-04 1.213e-03
28 1 2.124e+00 3.632e-01 5.673e+00 -4.213e-02 -4.033e-02 3.607e-02
29 1 3.632e-01 2.124e+00 5.673e+00 3.148e-01 -3.635e-02 3.739e-01
30 1 5.661e+00 3.557e-01 5.666e+00 -4.551e-03 2.109e-03 1.173e-03
31 1 3.885e+00 2.124e+00 5.673e+00 -1.704e-02 -3.189e-02 2.433e-02
32 1 9.207e+00 3.557e-01 5.666e+00 -2.885e-03 1.616e-03 -1.744e-03
33 1 7.434e+00 2.124e+00 5.662e+00 1.328e-03 2.608e-03 -5.246e-04
34 1 2.124e+00 3.885e+00 5.673e+00 -4.193e-02 -3.300e-02 3.581e-02
35 1 5.661e+00 3.892e+00 5.666e+00 -5.043e-03 1.271e-04 1.898e-03
36 1 9.207e+00 3.892e+00 5.666e+00 -2.889e-03 -1.129e-03 3.248e-04
37 1 3.632e-01 3.632e-01 7.434e+00 -4.385e-02 -3.478e-02 4.776e-02
38 1 2.124e+00 3.632e-01 9.195e+00 -2.974e-02 3.220e-01 -3.044e-01
39 1 3.632e-01 2.124e+00 9.195e+00 6.322e-01 -3.281e-02 -6.314e-01
40 1 3.885e+00 3.632e-01 7.434e+00 -3.866e-01 3.087e-01 4.977e-02
41 1 5.673e+00 2.124e+00 7.434e+00 8.763e-03 -3.968e-03 -7.563e-03
42 1 5.661e+00 3.557e-01 9.202e+00 -2.961e-03 2.700e-03 -3.592e-04
43 1 3.885e+00 2.124e+00 9.195e+00 -3.854e-02 -2.915e-02 6.150e-02
44 1 7.434e+00 3.523e-01 7.434e+00 -6.269e-04 -1.712e-03 4.210e-03
45 1 9.195e+00 2.124e+00 7.434e+00 -1.953e-02 5.766e-03 5.167e-03
46 1 9.207e+00 3.557e-01 9.202e+00 -2.257e-03 4.690e-04 2.139e-03
47 1 7.434e+00 2.124e+00 9.206e+00 -3.764e-03 -1.113e-03 3.426e-03
48 1 3.632e-01 3.885e+00 7.434e+00 -4.233e-02 -2.746e-02 4.078e-02
49 1 2.124e+00 3.885e+00 9.195e+00 -1.372e-02 -3.104e-02 3.327e-02
50 1 3.885e+00 3.885e+00 7.434e+00 -3.779e-02 -2.609e-02 4.348e-02
51 1 5.661e+00 3.892e+00 9.202e+00 -2.787e-03 1.800e-03 4.623e-04
52 1 7.434e+00 3.896e+00 7.434e+00 -3.937e-03 3.170e-03 5.143e-04
53 1 9.207e+00 3.892e+00 9.202e+00 -1.600e-03 2.026e-03 1.252e-03
54 1 2.124e+00 5.661e+00 3.507e-01 1.510e-03 5.687e-04 1.422e-04
55 1 3.547e-01 5.663e+00 2.124e+00 -3.279e-03 1.025e-03 1.976e-03
56 1 5.663e+00 5.663e+00 3.531e-01 -1.704e-03 1.282e-03 6.942e-04
57 1 3.893e+00 5.663e+00 2.124e+00 -2.952e-03 1.457e-03 1.781e-03
58 1 9.205e+00 5.663e+00 3.531e-01 -1.694e-03 1.036e-03 1.898e-03
59 1 7.434e+00 5.664e+00 2.124e+00 -2.536e-03 1.174e-03 1.551e-03
60 1 3.547e-01 7.434e+00 3.532e-01 -2.208e-04 2.977e-04 1.523e-03
61 1 2.124e+00 9.207e+00 3.507e-01 -7.948e-04 6.472e-04 -5.975e-04
62 1 2.124e+00 7.434e+00 2.124e+00 -1.747e-03 8.033e-04 1.521e-03
63 1 3.547e-01 9.205e+00 2.124e+00 -3.006e-03 1.132e-03 1.646e-03
64 1 3.893e+00 7.434e+00 3.532e-01 -2.730e-04 -5.609e-05 1.132e-03
65 1 5.663e+00 9.205e+00 3.531e-01 -1.444e-03 9.311e-04 9.956e-04
66 1 5.664e+00 7.434e+00 2.124e+00 -1.944e-03 9.916e-04 1.566e-03
67 1 3.893e+00 9.205e+00 2.124e+00 -2.710e-03 1.188e-03 2.013e-03
68 1 7.434e+00 7.434e+00 3.535e-01 -1.675e-03 9.123e-04 1.398e-03
69 1 9.205e+00 9.205e+00 3.531e-01 -2.251e-03 8.479e-04 1.623e-03
70 1 9.204e+00 7.434e+00 2.124e+00 -2.020e-03 1.069e-03 1.482e-03
71 1 7.434e+00 9.204e+00 2.124e+00 -2.477e-03 1.170e-03 1.484e-03
72 1 2.124e+00 5.661e+00 3.897e+00 -1.797e-03 -2.333e-03 4.803e-03
73 1 5.663e+00 5.663e+00 3.895e+00 -2.882e-03 9.984e-04 2.798e-03
74 1 9.205e+00 5.663e+00 3.895e+00 -1.469e-03 3.013e-04 1.116e-03
75 1 3.547e-01 7.434e+00 3.895e+00 3.659e-04 8.643e-04 7.554e-04
76 1 2.124e+00 9.207e+00 3.897e+00 -3.992e-03 2.844e-03 1.682e-03
77 1 3.893e+00 7.434e+00 3.895e+00 -1.112e-03 4.405e-04 2.145e-03
78 1 5.663e+00 9.205e+00 3.895e+00 -2.459e-03 1.200e-03 2.102e-03
79 1 7.434e+00 7.434e+00 3.894e+00 -1.813e-03 1.029e-03 1.380e-03
80 1 9.205e+00 9.205e+00 3.895e+00 -2.250e-03 1.800e-03 5.413e-04
81 1 3.557e-01 5.661e+00 5.666e+00 3.095e-03 -9.027e-04 -3.114e-04
82 1 3.892e+00 5.661e+00 5.666e+00 -8.714e-05 -8.871e-04 4.890e-03
83 1 7.434e+00 5.663e+00 5.665e+00 -2.312e-03 4.099e-04 1.300e-03
84 1 2.124e+00 7.434e+00 5.662e+00 3.022e-03 8.824e-05 -1.635e-03
85 1 3.557e-01 9.207e+00 5.666e+00 1.381e-03 8.987e-04 -9.162e-04
86 1 5.663e+00 7.434e+00 5.665e+00 -5.039e-04 3.305e-04 1.958e-03
87 1 3.892e+00 9.207e+00 5.666e+00 8.227e-04 1.186e-04 2.729e-03
88 1 9.205e+00 7.434e+00 5.665e+00 6.106e-04 1.166e-03 4.576e-04
89 1 7.434e+00 9.205e+00 5.665e+00 -2.085e-03 1.039e-03 6.851e-04
90 1 2.124e+00 5.673e+00 7.434e+00 -1.104e-03 5.743e-03 -4.504e-03
91 1 3.557e-01 5.661e+00 9.202e+00 4.908e-03 -2.157e-03 1.192e-03
92 1 5.661e+00 5.661e+00 7.434e+00 -2.449e-03 1.646e-04 3.003e-03
93 1 3.892e+00 5.661e+00 9.202e+00 1.218e-03 2.673e-04 -1.036e-03
94 1 9.207e+00 5.661e+00 7.434e+00 4.602e-03 -2.406e-03 4.175e-05
95 1 7.434e+00 5.663e+00 9.203e+00 -1.728e-03 1.375e-03 1.423e-03
96 1 3.523e-01 7.434e+00 7.434e+00 -4.279e-03 1.257e-03 4.759e-03
97 1 2.124e+00 9.195e+00 7.434e+00 1.579e-02 -1.255e-02 6.007e-03
98 1 2.124e+00 7.434e+00 9.206e+00 -3.549e-03 8.053e-04 4.649e-03
99 1 3.557e-01 9.207e+00 9.202e+00 1.678e-03 1.133e-04 1.078e-03
100 1 3.896e+00 7.434e+00 7.434e+00 2.640e-03 5.322e-04 -1.079e-03
101 1 5.661e+00 9.207e+00 7.434e+00 -1.849e-03 1.148e-03 1.015e-03
102 1 5.663e+00 7.434e+00 9.203e+00 6.129e-04 -5.156e-06 2.698e-04
103 1 3.892e+00 9.207e+00 9.202e+00 3.315e-03 -2.430e-03 9.787e-05
104 1 7.434e+00 7.434e+00 7.434e+00 -4.680e-04 3.511e-04 2.745e-04
105 1 9.207e+00 9.207e+00 7.434e+00 -1.005e-03 1.923e-03 -1.914e-03
106 1 9.205e+00 7.434e+00 9.203e+00 1.907e-06 3.251e-04 1.229e-03
107 1 7.434e+00 9.205e+00 9.203e+00 -1.628e-03 9.813e-04 1.285e-03
ITEM: TIMESTEP
0
ITEM: NUMBER OF ATOMS
107
ITEM: BOX BOUNDS xy xz yz pp pp pp
                     0.00000000000000e+00 1.06200000000000e+01 0.00000000000000e+00
0.00000000000000e+00	1.06200000000000e+01	0.00000000000000e+00
0.00000000000000e+00	1.06200000000000e+01	0.00000000000000e+00
ITEM: ATOMS id type x y z DisplacementX DisplacementY DisplacementZ
1 1 3.557e-01 3.557e-01 3.515e-01 3.454e-03 2.927e-04 2.150e-05
2 1 2.124e+00 2.124e+00 3.632e-01 1.787e-02 -1.392e-03 2.070e-02
3 1 2.124e+00 3.523e-01 2.124e+00 -1.062e-03 -6.058e-04 4.949e-04
4 1 3.523e-01 2.124e+00 2.124e+00 8.138e-04 -7.048e-04 1.335e-03
5 1 3.892e+00 3.557e-01 3.515e-01 6.540e-03 6.291e-04 2.710e-03
6 1 5.661e+00 2.124e+00 3.507e-01 5.859e-03 9.177e-04 4.014e-03
7 1 5.663e+00 3.547e-01 2.124e+00 4.613e-03 5.461e-04 2.528e-03
8 1 3.896e+00 2.124e+00 2.124e+00 3.704e-03 -6.154e-04 1.913e-03
9 1 7.434e+00 3.547e-01 3.532e-01 3.666e-03 -2.036e-04 3.184e-03
10 1 9.207e+00 2.124e+00 3.507e-01 3.910e-03 7.892e-04 -2.888e-03
11 1 9.205e+00 3.547e-01 2.124e+00 3.864e-03 -5.527e-05 2.396e-03
12 1 7.434e+00 2.124e+00 2.124e+00 5.389e-03 5.075e-04 2.988e-03
13 1 3.557e-01 3.892e+00 3.515e-01 3.341e-03 1.444e-03 -1.749e-03
14 1 2.124e+00 3.896e+00 2.124e+00 4.605e-03 -2.647e-04 2.266e-03
15 1 3.892e+00 3.892e+00 3.515e-01 5.002e-03 4.588e-04 3.007e-03
16 1 5.663e+00 3.893e+00 2.124e+00 4.387e-03 1.860e-04 3.478e-03
17 1 7.434e+00 3.893e+00 3.532e-01 3.917e-03 1.184e-04 3.058e-03
18 1 9.205e+00 3.893e+00 2.124e+00 4.172e-03 2.403e-04 1.974e-03
19 1 3.557e-01 3.557e-01 3.897e+00 6.455e-03 5.835e-04 4.190e-03
20 1 2.124e+00 2.124e+00 3.885e+00 1.964e-03 4.621e-03 -1.880e-02
21 1 3.892e+00 3.557e-01 3.897e+00 4.144e-03 1.205e-03 1.049e-03
22 1 5.661e+00 2.124e+00 3.897e+00 1.940e-03 2.877e-05 -2.148e-04
23 1 7.434e+00 3.547e-01 3.895e+00 3.569e-03 3.204e-04 2.034e-03
24 1 9.207e+00 2.124e+00 3.897e+00 9.260e-03 -1.111e-04 9.275e-03
25 1 3.557e-01 3.892e+00 3.897e+00 5.695e-03 -1.354e-04 2.534e-03
26 1 3.892e+00 3.892e+00 3.897e+00 3.321e-03 4.222e-04 2.905e-03
27 1 7.434e+00 3.893e+00 3.895e+00 3.530e-03 2.451e-04 1.472e-03
28 1 2.124e+00 3.632e-01 5.673e+00 6.459e-02 -2.184e-02 3.972e-02
29 1 3.632e-01 2.124e+00 5.673e+00 3.487e-02 -1.410e-02 1.694e-02
30 1 5.661e+00 3.557e-01 5.666e+00 1.826e-03 -1.425e-04 7.158e-04
31 1 3.885e+00 2.124e+00 5.673e+00 -2.768e-01 -1.726e-02 3.704e-01
32 1 9.207e+00 3.557e-01 5.666e+00 4.124e-03 1.351e-03 2.314e-03
33 1 7.434e+00 2.124e+00 5.662e+00 1.894e-03 4.870e-04 -1.095e-03
34 1 2.124e+00 3.885e+00 5.673e+00 5.832e-02 -1.328e-02 3.548e-02
35 1 5.661e+00 3.892e+00 5.666e+00 1.482e-03 -6.570e-04 -1.851e-03
36 1 9.207e+00 3.892e+00 5.666e+00 3.430e-03 7.061e-04 2.700e-03
37 1 3.632e-01 3.632e-01 7.434e+00 4.177e-01 3.210e-01 5.104e-02
38 1 2.124e+00 3.632e-01 9.195e+00 6.842e-02 -1.433e-02 3.680e-02
39 1 3.632e-01 2.124e+00 9.195e+00 6.560e-02 -1.743e-02 7.699e-02
40 1 3.885e+00 3.632e-01 7.434e+00 6.786e-02 -1.903e-02 4.494e-02
41 1 5.673e+00 2.124e+00 7.434e+00 1.715e-02 -9.472e-04 8.639e-03
42 1 5.661e+00 3.557e-01 9.202e+00 6.022e-03 -9.368e-04 4.478e-03
43 1 3.885e+00 2.124e+00 9.195e+00 -9.461e-01 -2.466e-02 -9.635e-01
44 1 7.434e+00 3.523e-01 7.434e+00 -7.884e-04 1.711e-04 -1.653e-05
45 1 9.195e+00 2.124e+00 7.434e+00 -9.507e-03 8.632e-04 -6.745e-03
46 1 9.207e+00 3.557e-01 9.202e+00 2.063e-03 -4.641e-04 1.434e-03
47 1 7.434e+00 2.124e+00 9.206e+00 2.072e-03 -8.632e-04 4.195e-03
48 1 3.632e-01 3.885e+00 7.434e+00 6.137e-02 -6.044e-03 4.489e-02
49 1 2.124e+00 3.885e+00 9.195e+00 4.318e-02 -1.558e-02 1.858e-02
50 1 3.885e+00 3.885e+00 7.434e+00 5.798e-02 -5.467e-03 3.755e-02
51 1 5.661e+00 3.892e+00 9.202e+00 2.013e-03 -8.002e-06 3.936e-03
52 1 7.434e+00 3.896e+00 7.434e+00 3.959e-03 -4.293e-04 2.987e-03
53 1 9.207e+00 3.892e+00 9.202e+00 5.183e-03 -9.246e-05 7.890e-04
54 1 2.124e+00 5.661e+00 3.507e-01 -3.059e-03 1.012e-03 -2.652e-03
55 1 3.547e-01 5.663e+00 2.124e+00 3.146e-03 2.854e-04 1.796e-03
56 1 5.663e+00 5.663e+00 3.531e-01 1.724e-03 -8.251e-05 2.896e-03
57 1 3.893e+00 5.663e+00 2.124e+00 2.531e-03 2.177e-04 2.709e-03
58 1 9.205e+00 5.663e+00 3.531e-01 1.651e-03 2.469e-04 5.779e-04
59 1 7.434e+00 5.664e+00 2.124e+00 2.560e-03 -3.095e-05 2.211e-03
60 1 3.547e-01 7.434e+00 3.532e-01 -1.257e-03 -5.257e-04 3.104e-05
61 1 2.124e+00 9.207e+00 3.507e-01 -3.469e-04 3.701e-04 -1.545e-03
62 1 2.124e+00 7.434e+00 2.124e+00 2.606e-04 2.552e-04 1.667e-03
63 1 3.547e-01 9.205e+00 2.124e+00 1.759e-03 8.826e-05 2.154e-03
64 1 3.893e+00 7.434e+00 3.532e-01 -1.210e-03 -1.945e-04 1.447e-03
65 1 5.663e+00 9.205e+00 3.531e-01 2.418e-03 -3.697e-05 2.839e-03
66 1 5.664e+00 7.434e+00 2.124e+00 1.656e-03 -3.770e-06 2.051e-03
67 1 3.893e+00 9.205e+00 2.124e+00 3.181e-03 2.827e-04 2.178e-03
68 1 7.434e+00 7.434e+00 3.535e-01 1.508e-03 -2.140e-04 2.011e-03
69 1 9.205e+00 9.205e+00 3.531e-01 9.947e-04 -4.989e-04 9.244e-04
70 1 9.204e+00 7.434e+00 2.124e+00 1.677e-03 -1.960e-04 2.088e-03
71 1 7.434e+00 9.204e+00 2.124e+00 2.394e-03 -6.868e-05 2.312e-03
72 1 2.124e+00 5.661e+00 3.897e+00 -1.117e-03 -8.195e-04 3.042e-03
73 1 5.663e+00 5.663e+00 3.895e+00 7.646e-04 -1.457e-04 1.125e-03
74 1 9.205e+00 5.663e+00 3.895e+00 2.668e-03 -3.960e-04 3.111e-03
75 1 3.547e-01 7.434e+00 3.895e+00 8.374e-06 -7.069e-04 2.973e-03
76 1 2.124e+00 9.207e+00 3.897e+00 2.977e-03 -1.668e-04 4.367e-03
77 1 3.893e+00 7.434e+00 3.895e+00 -2.145e-03 -2.362e-05 -5.477e-04
78 1 5.663e+00 9.205e+00 3.895e+00 1.218e-03 1.984e-04 7.856e-04
79 1 7.434e+00 7.434e+00 3.894e+00 1.515e-03 -2.190e-04 1.931e-03
80 1 9.205e+00 9.205e+00 3.895e+00 2.914e-03 -3.286e-04 3.939e-03
81 1 3.557e-01 5.661e+00 5.666e+00 -2.134e-03 -9.441e-04 1.803e-03
82 1 3.892e+00 5.661e+00 5.666e+00 -8.970e-03 -3.581e-04 -2.750e-03
83 1 7.434e+00 5.663e+00 5.665e+00 1.677e-03 -3.376e-04 1.189e-03
84 1 2.124e+00 7.434e+00 5.662e+00 -2.845e-03 5.172e-04 -5.196e-03
85 1 3.557e-01 9.207e+00 5.666e+00 -2.144e-03 -1.499e-03 3.589e-03
86 1 5.663e+00 7.434e+00 5.665e+00 -2.249e-03 6.013e-05 -2.465e-04
87 1 3.892e+00 9.207e+00 5.666e+00 -7.163e-03 5.230e-04 -4.899e-03
88 1 9.205e+00 7.434e+00 5.665e+00 -2.715e-05 -1.002e-03 3.008e-03
89 1 7.434e+00 9.205e+00 5.665e+00 1.333e-03 1.018e-04 1.561e-03
90 1 2.124e+00 5.673e+00 7.434e+00 -3.549e-03 -1.590e-03 -1.799e-03
91 1 3.557e-01 5.661e+00 9.202e+00 -7.681e-03 -6.890e-04 -3.489e-03
92 1 5.661e+00 5.661e+00 7.434e+00 -5.798e-03 -7.264e-04 -9.899e-04
93 1 3.892e+00 5.661e+00 9.202e+00 -4.278e-03 -6.241e-04 7.340e-04
94 1 9.207e+00 5.661e+00 7.434e+00 -2.939e-04 3.134e-04 1.009e-04
95 1 7.434e+00 5.663e+00 9.203e+00 2.479e-03 -6.099e-05 2.262e-03
96 1 3.523e-01 7.434e+00 7.434e+00 -4.910e-03 9.490e-04 -1.252e-03
97 1 2.124e+00 9.195e+00 7.434e+00 -3.130e-02 -8.410e-04 -1.336e-02
98 1 2.124e+00 7.434e+00 9.206e+00 3.016e-03 -2.663e-03 6.596e-03
99 1 3.557e-01 9.207e+00 9.202e+00 -4.408e-03 -1.630e-03 -3.473e-03
100 1 3.896e+00 7.434e+00 7.434e+00 5.286e-03 -8.569e-04 4.519e-03
101 1 5.661e+00 9.207e+00 7.434e+00 -1.961e-03 4.849e-04 -6.988e-04
102 1 5.663e+00 7.434e+00 9.203e+00 -1.296e-03 -8.495e-05 1.477e-03
103 1 3.892e+00 9.207e+00 9.202e+00 -6.606e-03 3.618e-04 -1.088e-03
104 1 7.434e+00 7.434e+00 7.434e+00 -7.348e-04 -5.065e-04 9.253e-04
105 1 9.207e+00 9.207e+00 7.434e+00 2.381e-03 -1.404e-03 3.434e-03
106 1 9.205e+00 7.434e+00 9.203e+00 -1.910e-03 -5.490e-04 -2.204e-04
107 1 7.434e+00 9.205e+00 9.203e+00 1.931e-03 -8.278e-04 2.494e-03
ITEM: TIMESTEP
0
ITEM: NUMBER OF ATOMS
107
ITEM: BOX BOUNDS xy xz yz pp pp pp
                     0.00000000000000e+00 1.06200000000000e+01 0.00000000000000e+00
0.00000000000000e+00	1.06200000000000e+01	0.00000000000000e+00
0.00000000000000e+00	1.06200000000000e+01	0.00000000000000e+00
ITEM: ATOMS id type x y z DisplacementX DisplacementY DisplacementZ
1 1 3.557e-01 3.557e-01 3.515e-01 1.586e-04 1.020e-03 1.237e-03
2 1 2.124e+00 2.124e+00 3.632e-01 -2.836e-03 -1.514e-04 1.059e-02
3 1 2.124e+00 3.523e-01 2.124e+00 -1.260e-03 -1.927e-04 -5.788e-04
4 1 3.523e-01 2.124e+00 2.124e+00 -6.633e-04 -8.363e-04 -1.292e-03
5 1 3.892e+00 3.557e-01 3.515e-01 8.308e-04 2.751e-04 -2.437e-03
6 1 5.661e+00 2.124e+00 3.507e-01 8.487e-04 5.939e-04 -7.668e-04
7 1 5.663e+00 3.547e-01 2.124e+00 4.627e-04 -3.057e-04 -1.190e-03
8 1 3.896e+00 2.124e+00 2.124e+00 1.716e-04 1.305e-04 -1.350e-04
9 1 7.434e+00 3.547e-01 3.532e-01 4.035e-04 1.883e-03 3.526e-04
10 1 9.207e+00 2.124e+00 3.507e-01 1.007e-03 5.449e-04 -1.668e-03
11 1 9.205e+00 3.547e-01 2.124e+00 9.914e-04 7.170e-04 3.457e-04
12 1 7.434e+00 2.124e+00 2.124e+00 8.732e-04 1.112e-03 -7.716e-05
13 1 3.557e-01 3.892e+00 3.515e-01 1.563e-03 1.525e-03 -2.498e-03
14 1 2.124e+00 3.896e+00 2.124e+00 2.115e-03 2.458e-03 1.392e-03
15 1 3.892e+00 3.892e+00 3.515e-01 -8.570e-04 -5.517e-04 -2.350e-03
16 1 5.663e+00 3.893e+00 2.124e+00 -3.762e-05 7.172e-04 -1.420e-03
17 1 7.434e+00 3.893e+00 3.532e-01 3.653e-04 1.987e-05 -2.445e-04
18 1 9.205e+00 3.893e+00 2.124e+00 6.998e-04 1.524e-03 -5.369e-04
19 1 3.557e-01 3.557e-01 3.897e+00 1.837e-03 8.546e-04 2.653e-03
20 1 2.124e+00 2.124e+00 3.885e+00 2.738e-03 4.024e-03 -4.327e-03
21 1 3.892e+00 3.557e-01 3.897e+00 -1.557e-04 -1.716e-03 -7.732e-04
22 1 5.661e+00 2.124e+00 3.897e+00 2.547e-05 8.117e-04 1.624e-03
23 1 7.434e+00 3.547e-01 3.895e+00 3.132e-04 1.272e-03 3.359e-05
24 1 9.207e+00 2.124e+00 3.897e+00 -1.283e-04 1.735e-03 2.847e-03
25 1 3.557e-01 3.892e+00 3.897e+00 5.849e-05 4.019e-03 3.107e-03
26 1 3.892e+00 3.892e+00 3.897e+00 -4.453e-04 1.205e-03 -1.275e-03
27 1 7.434e+00 3.893e+00 3.895e+00 8.721e-04 1.399e-03 7.591e-04
28 1 2.124e+00 3.632e-01 5.673e+00 2.134e-03 6.628e-01 6.585e-01
29 1 3.632e-01 2.124e+00 5.673e+00 9.985e-04 -3.122e-02 -1.618e-02
30 1 5.661e+00 3.557e-01 5.666e+00 5.892e-04 5.227e-04 8.502e-04
31 1 3.885e+00 2.124e+00 5.673e+00 9.338e-03 -2.230e-02 -1.348e-02
32 1 9.207e+00 3.557e-01 5.666e+00 -7.414e-04 2.449e-03 3.797e-03
33 1 7.434e+00 2.124e+00 5.662e+00 4.119e-04 -3.858e-04 -4.369e-03
34 1 2.124e+00 3.885e+00 5.673e+00 9.610e-05 -3.560e-01 3.048e-01
35 1 5.661e+00 3.892e+00 5.666e+00 4.877e-04 2.213e-03 3.266e-03
36 1 9.207e+00 3.892e+00 5.666e+00 8.931e-04 8.447e-04 3.977e-03
37 1 3.632e-01 3.632e-01 7.434e+00 -1.467e-03 -2.117e-02 -1.454e-02
38 1 2.124e+00 3.632e-01 9.195e+00 3.988e-03 3.098e-01 -3.222e-01
39 1 3.632e-01 2.124e+00 9.195e+00 -4.156e-03 -2.493e-02 -3.860e-02
40 1 3.885e+00 3.632e-01 7.434e+00 3.251e-03 -2.858e-02 -1.800e-02
41 1 5.673e+00 2.124e+00 7.434e+00 -8.471e-04 1.944e-03 3.381e-03
42 1 5.661e+00 3.557e-01 9.202e+00 1.267e-03 4.464e-03 1.663e-03
43 1 3.885e+00 2.124e+00 9.195e+00 5.597e-03 -1.625e-02 -3.238e-02
44 1 7.434e+00 3.523e-01 7.434e+00 1.398e-04 -5.236e-03 1.653e-04
45 1 9.195e+00 2.124e+00 7.434e+00 9.748e-04 2.017e-03 8.267e-03
46 1 9.207e+00 3.557e-01 9.202e+00 -2.124e-04 1.291e-03 6.709e-04
47 1 7.434e+00 2.124e+00 9.206e+00 -1.492e-03 1.513e-03 3.432e-03
48 1 3.632e-01 3.885e+00 7.434e+00 9.154e-05 -2.061e-02 -2.341e-02
49 1 2.124e+00 3.885e+00 9.195e+00 4.216e-03 -3.604e-01 -3.253e-01
50 1 3.885e+00 3.885e+00 7.434e+00 8.123e-03 -2.775e-02 -2.872e-02
51 1 5.661e+00 3.892e+00 9.202e+00 9.968e-04 -1.085e-03 3.091e-04
52 1 7.434e+00 3.896e+00 7.434e+00 1.291e-03 4.869e-03 -5.961e-04
53 1 9.207e+00 3.892e+00 9.202e+00 9.977e-05 -3.558e-04 -8.159e-04
54 1 2.124e+00 5.661e+00 3.507e-01 3.690e-04 -1.923e-03 -4.318e-03
55 1 3.547e-01 5.663e+00 2.124e+00 9.364e-04 1.677e-03 -1.483e-03
56 1 5.663e+00 5.663e+00 3.531e-01 5.867e-04 -4.689e-05 -1.342e-03
57 1 3.893e+00 5.663e+00 2.124e+00 1.365e-04 1.245e-03 -1.765e-03
58 1 9.205e+00 5.663e+00 3.531e-01 8.090e-04 5.593e-04 -1.241e-03
59 1 7.434e+00 5.664e+00 2.124e+00 7.534e-04 9.466e-04 -9.164e-04
60 1 3.547e-01 7.434e+00 3.532e-01 1.339e-03 1.228e-03 -3.056e-04
61 1 2.124e+00 9.207e+00 3.507e-01 1.826e-03 3.487e-03 -9.110e-04
62 1 2.124e+00 7.434e+00 2.124e+00 9.278e-04 8.916e-04 -2.471e-03
63 1 3.547e-01 9.205e+00 2.124e+00 5.932e-04 5.825e-04 -8.697e-04
64 1 3.893e+00 7.434e+00 3.532e-01 1.241e-03 9.244e-04 -1.073e-03
65 1 5.663e+00 9.205e+00 3.531e-01 6.925e-04 1.512e-03 -1.221e-03
66 1 5.664e+00 7.434e+00 2.124e+00 6.473e-04 7.056e-04 -1.322e-03
67 1 3.893e+00 9.205e+00 2.124e+00 6.386e-04 -4.704e-04 -2.026e-03
68 1 7.434e+00 7.434e+00 3.535e-01 7.874e-04 8.765e-04 -7.787e-04
69 1 9.205e+00 9.205e+00 3.531e-01 1.110e-03 1.338e-03 4.825e-05
70 1 9.204e+00 7.434e+00 2.124e+00 8.710e-04 8.627e-04 -1.252e-03
71 1 7.434e+00 9.204e+00 2.124e+00 6.753e-04 7.113e-04 -8.377e-04
72 1 2.124e+00 5.661e+00 3.897e+00 -3.421e-04 1.417e-03 7.460e-05
73 1 5.663e+00 5.663e+00 3.895e+00 5.087e-04 1.154e-03 -9.722e-04
74 1 9.205e+00 5.663e+00 3.895e+00 9.471e-04 1.122e-03 -8.765e-04
75 1 3.547e-01 7.434e+00 3.895e+00 1.048e-03 4.589e-04 -3.421e-03
76 1 2.124e+00 9.207e+00 3.897e+00 2.166e-03 8.614e-04 -8.530e-04
77 1 3.893e+00 7.434e+00 3.895e+00 1.240e-03 7.636e-04 -2.033e-03
78 1 5.663e+00 9.205e+00 3.895e+00 8.786e-04 3.932e-04 -1.004e-03
79 1 7.434e+00 7.434e+00 3.894e+00 8.186e-04 8.551e-04 -1.225e-03
80 1 9.205e+00 9.205e+00 3.895e+00 6.512e-04 6.775e-04 -1.401e-03
81 1 3.557e-01 5.661e+00 5.666e+00 2.387e-03 2.353e-03 -5.422e-04
82 1 3.892e+00 5.661e+00 5.666e+00 1.683e-03 -1.353e-03 -2.776e-03
83 1 7.434e+00 5.663e+00 5.665e+00 8.793e-04 1.282e-03 2.813e-04
84 1 2.124e+00 7.434e+00 5.662e+00 1.086e-03 3.441e-05 4.940e-04
85 1 3.557e-01 9.207e+00 5.666e+00 6.504e-04 1.159e-03 -2.598e-03
86 1 5.663e+00 7.434e+00 5.665e+00 1.007e-03 1.186e-03 -1.344e-03
87 1 3.892e+00 9.207e+00 5.666e+00 1.739e-03 3.094e-03 -2.420e-03
88 1 9.205e+00 7.434e+00 5.665e+00 1.324e-03 1.079e-03 -2.344e-03
89 1 7.434e+00 9.205e+00 5.665e+00 5.205e-04 6.709e-04 4.488e-04
90 1 2.124e+00 5.673e+00 7.434e+00 8.622e-03 1.464e-02 1.754e-03
91 1 3.557e-01 5.661e+00 9.202e+00 -1.148e-05 -8.098e-05 -1.208e-04
92 1 5.661e+00 5.661e+00 7.434e+00 5.987e-04 -1.459e-03 -8.374e-06
93 1 3.892e+00 5.661e+00 9.202e+00 2.179e-03 -6.826e-04 -8.548e-04
94 1 9.207e+00 5.661e+00 7.434e+00 5.226e-04 -4.503e-04 -2.365e-04
95 1 7.434e+00 5.663e+00 9.203e+00 8.874e-04 1.605e-04 -1.143e-03
96 1 3.523e-01 7.434e+00 7.434e+00 1.174e-03 9.395e-04 -1.271e-03
97 1 2.124e+00 9.195e+00 7.434e+00 -3.235e-03 -9.152e-03 -5.003e-03
98 1 2.124e+00 7.434e+00 9.206e+00 1.543e-03 1.467e-03 8.244e-04
99 1 3.557e-01 9.207e+00 9.202e+00 2.614e-03 3.472e-03 -2.698e-04
100 1 3.896e+00 7.434e+00 7.434e+00 2.388e-04 1.011e-03 -1.929e-04
101 1 5.661e+00 9.207e+00 7.434e+00 1.896e-03 4.411e-03 -7.525e-05
102 1 5.663e+00 7.434e+00 9.203e+00 6.740e-04 1.098e-03 -9.815e-04
103 1 3.892e+00 9.207e+00 9.202e+00 1.196e-03 2.705e-03 -1.129e-03
104 1 7.434e+00 7.434e+00 7.434e+00 1.224e-03 1.641e-03 -2.266e-04
105 1 9.207e+00 9.207e+00 7.434e+00 1.492e-03 3.523e-03 9.876e-04
106 1 9.205e+00 7.434e+00 9.203e+00 1.494e-03 1.559e-03 -1.318e-04
107 1 7.434e+00 9.205e+00 9.203e+00 9.294e-04 1.357e-03 5.290e-05
ITEM: TIMESTEP
0
ITEM: NUMBER OF ATOMS
107
ITEM: BOX BOUNDS xy xz yz pp pp pp
                     0.00000000000000e+00 1.06200000000000e+01 0.00000000000000e+00