ITEM: TIMESTEP
0
ITEM: NUMBER OF ATOMS
73
ITEM: BOX BOUNDS xy xz yz pp pp pp
                     0.00000000000000e+00 1.06200000000000e+01 0.00000000000000e+00
0.00000000000000e+00	1.06200000000000e+01	0.00000000000000e+00
0.00000000000000e+00	1.06200000000000e+01	0.00000000000000e+00
ITEM: ATOMS id type x y z DisplacementX DisplacementY DisplacementZ
1 1 -3.508e+00 4.124e-03 3.478e+00 -1.636e-03 -2.115e-03 2.038e-03
2 1 -5.259e+00 -1.741e+00 3.679e-03 -3.060e-03 -7.635e-03 -6.682e-03
3 1 -5.259e+00 1.759e+00 1.362e-02 -4.057e-03 7.010e-03 -8.944e-03
4 1 -5.259e+00 5.714e-03 -1.773e+00 -1.908e-03 -1.413e-03 -7.819e-03
5 1 5.296e+00 1.759e+00 -1.331e-02 6.827e-04 3.113e-03 1.131e-03
6 1 5.295e+00 -1.759e+00 -1.432e-02 1.266e-03 -7.316e-04 -7.524e-04
7 1 1.774e+00 5.273e+00 -1.576e-02 2.919e-03 6.553e-03 -2.337e-03
8 1 1.771e+00 -5.274e+00 -1.479e-02 3.986e-03 -6.811e-03 -1.652e-03
9 1 -1.750e+00 5.276e+00 -1.023e-02 5.280e-04 2.806e-03 -1.657e-05
10 1 -1.748e+00 -5.279e+00 -9.989e-03 2.979e-04 -3.790e-03 -1.223e-03
11 1 1.534e-02 -5.275e+00 1.746e+00 3.251e-03 -3.494e-03 -6.381e-04
12 1 1.588e-02 5.278e+00 1.746e+00 5.037e-04 2.379e-03 -1.738e-03
13 1 9.040e-03 -5.276e+00 -1.773e+00 4.586e-03 -7.695e-03 -4.222e-03
14 1 1.102e-02 5.272e+00 -1.773e+00 2.728e-03 7.184e-03 -4.830e-03
15 1 5.297e+00 1.785e-03 -1.774e+00 1.958e-03 1.395e-03 -2.236e-03
16 1 5.297e+00 1.579e-03 1.747e+00 -1.358e-03 -1.023e-04 5.676e-04
17 1 -3.505e+00 -1.739e+00 1.747e+00 -5.141e-03 -7.236e-03 -6.200e-03
18 1 -3.512e+00 1.751e+00 1.746e+00 -4.344e-03 6.906e-03 -5.320e-03
19 1 -3.507e+00 1.680e-03 -3.534e+00 1.081e-02 -4.079e-04 2.790e-03
20 1 3.537e+00 -1.281e-03 3.509e+00 -7.119e-03 9.402e-05 -8.351e-03
21 1 3.532e+00 1.258e-04 -3.535e+00 -8.546e-04 -7.255e-04 2.216e-03
22 1 6.387e-03 -3.513e+00 -3.532e+00 5.814e-03 1.571e-03 3.840e-03
23 1 8.149e-03 3.514e+00 -3.532e+00 5.998e-03 -9.329e-04 2.998e-03
24 1 7.672e-03 -3.514e+00 3.504e+00 5.141e-03 -6.079e-04 -4.507e-03
25 1 1.286e-02 3.513e+00 3.502e+00 5.470e-03 2.958e-03 -2.382e-03
26 1 -3.507e+00 -3.518e+00 -2.249e-03 6.178e-03 -1.175e-04 -4.858e-03
27 1 -3.518e+00 3.511e+00 7.802e-03 6.342e-03 1.282e-03 -7.027e-03
28 1 3.531e+00 -3.516e+00 -1.492e-02 -2.504e-03 -5.278e-04 -3.744e-03
29 1 3.534e+00 3.518e+00 -1.399e-02 -1.378e-03 -1.693e-03 -3.491e-03
30 1 -1.751e+00 1.744e+00 3.485e+00 9.257e-03 1.396e-02 8.376e-03
31 1 -1.755e+00 -1.742e+00 3.489e+00 6.202e-03 -1.077e-02 8.749e-03
32 1 -1.752e+00 1.762e+00 -3.533e+00 6.345e-03 -1.659e-03 1.360e-03
33 1 -1.751e+00 -1.756e+00 -3.532e+00 6.776e-03 3.271e-03 4.097e-03
34 1 1.772e+00 1.758e+00 3.503e+00 1.832e-03 2.613e-03 -1.618e-03
35 1 1.770e+00 -1.757e+00 3.505e+00 1.793e-03 -1.786e-03 -2.376e-03
36 1 1.767e+00 1.759e+00 -3.534e+00 2.525e-04 4.538e-04 1.891e-03
37 1 1.770e+00 -1.757e+00 -3.533e+00 1.001e-03 -2.101e-04 4.205e-03
38 1 -3.507e+00 -1.753e+00 -1.763e+00 3.708e-03 -9.662e-04 -2.675e-03
39 1 -3.505e+00 1.758e+00 -1.762e+00 4.526e-03 -6.599e-04 -4.446e-03
40 1 3.537e+00 -1.761e+00 1.746e+00 -4.940e-03 1.297e-03 -6.060e-03
41 1 3.538e+00 1.761e+00 1.746e+00 -3.415e-03 -6.216e-04 -3.826e-03
42 1 3.533e+00 -1.758e+00 -1.774e+00 -1.552e-03 1.866e-03 1.107e-03
43 1 3.532e+00 1.759e+00 -1.774e+00 -4.755e-04 8.122e-05 2.879e-04
44 1 1.768e+00 -3.514e+00 -1.773e+00 1.471e-04 -1.627e-03 9.299e-04
45 1 1.770e+00 3.516e+00 -1.774e+00 1.699e-03 1.655e-03 -1.536e-03
46 1 1.770e+00 3.513e+00 1.747e+00 3.100e-03 5.747e-03 -5.809e-03
47 1 1.768e+00 -3.510e+00 1.746e+00 3.005e-03 -5.930e-03 -4.126e-03
48 1 -1.752e+00 3.510e+00 -1.762e+00 5.103e-03 5.857e-03 -5.095e-03
49 1 -1.752e+00 -3.511e+00 -1.765e+00 5.953e-03 -3.528e-03 -4.232e-03
50 1 -1.737e+00 3.524e+00 1.747e+00 7.222e-03 -1.151e-02 -4.886e-03
51 1 -1.756e+00 -3.528e+00 1.745e+00 3.834e-03 1.107e-02 -3.283e-03
52 1 -1.754e+00 2.192e-03 5.267e+00 1.463e-03 1.129e-03 -1.050e-02
53 1 1.765e+00 -1.982e-05 5.261e+00 6.172e-03 -1.797e-03 3.449e-03
54 1 4.582e-03 -1.753e+00 5.260e+00 6.284e-03 -5.462e-03 2.551e-03
55 1 6.049e-03 1.757e+00 5.259e+00 5.161e-03 4.053e-03 3.799e-03
56 1 -3.508e+00 4.983e-03 1.348e-02 -1.973e-02 -7.195e-04 -1.058e-02
57 1 -2.139e-04 6.280e-04 6.822e-04 -1.721e+00 4.041e-03 1.728e+00
58 1 9.321e-04 -1.673e-04 3.492e+00 1.709e-02 -1.902e-04 2.142e-02
59 1 -1.527e-03 -1.748e+00 1.746e+00 1.544e-02 -1.928e-03 -1.446e-02
60 1 6.027e-03 1.746e+00 1.746e+00 1.467e-02 3.762e-03 -1.561e-02
61 1 -1.751e+00 1.742e+00 8.481e-03 1.668e-02 7.196e-03 -1.916e-02
62 1 -1.751e+00 -1.744e+00 4.620e-03 1.553e-02 -3.891e-03 -1.654e-02
63 1 -1.754e+00 1.393e-03 -1.776e+00 1.589e-02 -7.888e-05 2.160e-02
64 1 9.768e-03 -1.658e-03 -3.534e+00 2.747e-03 2.031e-04 -1.027e-02
65 1 1.772e+00 1.757e+00 -1.240e-02 -5.621e-03 -8.213e-03 -5.224e-03
66 1 1.769e+00 -1.756e+00 -1.198e-02 -5.944e-03 9.646e-03 -4.083e-03
67 1 1.784e+00 -1.196e-03 1.745e+00 -2.051e-02 2.046e-04 -1.538e-02
68 1 1.767e+00 9.974e-04 -1.769e+00 -6.264e-03 -3.013e-04 6.299e-03
69 1 3.391e-03 -1.755e+00 -1.767e+00 4.443e-03 7.449e-03 5.835e-03
70 1 4.546e-03 1.755e+00 -1.769e+00 6.499e-03 -6.146e-03 6.975e-03
71 1 7.653e-03 -3.514e+00 -1.155e-02 6.104e-03 -1.586e-02 -7.107e-03
72 1 1.077e-02 3.514e+00 -1.285e-02 5.362e-03 1.562e-02 -7.215e-03
73 1 3.536e+00 4.029e-04 -1.503e-02 7.871e-03 -2.935e-04 -2.169e-05
ITEM: TIMESTEP
0
ITEM: NUMBER OF ATOMS
72
ITEM: BOX BOUNDS xy xz yz pp pp pp
                     0.00000000000000e+00 1.06200000000000e+01 0.00000000000000e+00
0.00000000000000e+00	1.06200000000000e+01	0.00000000000000e+00
0.00000000000000e+00	1.06200000000000e+01	0.00000000000000e+00
ITEM: ATOMS id type x y z DisplacementX DisplacementY DisplacementZ
74 1 -5.250e+00 1.693e-02 1.736e+00 -4.367e-03 1.051e-03 -9.138e-04
75 1 -5.252e+00 -1.737e+00 -4.717e-03 -3.236e-03 3.183e-03 -1.546e-03
76 1 -5.252e+00 1.771e+00 -5.323e-03 -4.420e-03 3.300e-03 -1.351e-03
77 1 -3.507e+00 1.390e-02 3.469e+00 1.134e-03 3.793e-03 -2.263e-03
78 1 -8.101e-04 -3.486e+00 3.480e+00 1.934e-03 -4.299e-03 5.278e-03
79 1 -1.756e+00 -5.262e+00 -1.342e-02 -3.257e-03 -1.132e-03 -5.004e-03
80 1 1.759e+00 -5.258e+00 -1.901e-02 3.764e-03 -3.591e-03 -3.963e-03
81 1 1.169e-03 -5.256e+00 -1.774e+00 -1.332e-03 -4.247e-03 -7.282e-03
82 1 -1.756e+00 5.293e+00 -2.070e-02 -1.183e-03 1.532e-04 6.318e-04
83 1 5.288e+00 -1.743e+00 -2.342e-02 7.437e-04 1.428e-03 -1.658e-03
84 1 1.765e+00 5.293e+00 -2.184e-02 -7.363e-04 2.840e-03 7.507e-04
85 1 5.285e+00 1.774e+00 -2.243e-02 4.756e-03 4.530e-03 2.553e-04
86 1 4.661e-03 5.291e+00 1.738e+00 6.794e-04 2.247e-03 -4.900e-04
87 1 5.292e-03 5.290e+00 -1.782e+00 1.201e-03 2.297e-03 4.307e-04
88 1 5.290e+00 1.656e-02 1.737e+00 8.758e-04 5.670e-05 -3.041e-04
89 1 5.285e+00 1.527e-02 -1.781e+00 5.708e-03 7.449e-04 -1.759e-03
90 1 -5.025e-03 -5.272e+00 1.739e+00 -1.801e-03 1.142e-02 -1.089e-03
91 1 -3.507e+00 -3.485e+00 -5.821e-03 1.424e-03 6.200e-03 -5.096e-03
92 1 -3.509e+00 3.522e+00 -7.365e-03 3.724e-03 -5.342e-03 1.520e-03
93 1 -5.262e+00 1.646e-02 -1.774e+00 -6.843e-03 3.330e-03 -2.192e-03
94 1 -3.507e+00 1.556e-02 -3.541e+00 3.313e-04 4.278e-03 2.804e-03
95 1 1.608e-03 -3.503e+00 -3.542e+00 8.175e-06 8.777e-03 3.784e-03
96 1 3.522e+00 1.084e-02 3.496e+00 1.647e-03 4.661e-03 -4.203e-03
97 1 5.275e-04 3.530e+00 3.495e+00 8.011e-04 -8.635e-03 -7.249e-03
98 1 5.676e-03 3.524e+00 -3.541e+00 -4.338e-04 -4.605e-04 4.843e-03
99 1 3.523e+00 1.337e-02 -3.545e+00 1.122e-03 4.921e-03 3.059e-03
100 1 3.523e+00 -3.500e+00 -2.069e-02 -7.430e-04 1.861e-03 -4.746e-03
101 1 3.525e+00 3.533e+00 -2.262e-02 -5.433e-03 -3.253e-03 -4.031e-05
102 1 -1.753e+00 -3.481e+00 1.739e+00 -1.008e-02 -1.051e-03 -3.052e-03
103 1 -1.756e+00 -1.738e+00 3.472e+00 -9.922e-03 6.039e-03 4.704e-03
104 1 1.751e+00 -1.746e+00 3.484e+00 1.048e-02 7.077e-03 8.014e-03
105 1 -1.765e+00 3.526e+00 1.738e+00 3.440e-03 -6.597e-03 -4.563e-03
106 1 1.752e+00 -3.491e+00 1.738e+00 1.143e-02 -6.778e-03 -4.546e-03
107 1 -1.768e+00 1.767e+00 3.476e+00 9.239e-04 6.369e-04 -1.188e-03
108 1 -1.754e+00 -1.742e+00 -3.542e+00 2.496e-03 3.514e-03 5.434e-03
109 1 -1.751e+00 1.770e+00 -3.542e+00 1.582e-03 1.246e-04 2.285e-03
110 1 1.759e+00 -1.744e+00 -3.542e+00 -4.533e-03 2.859e-03 -1.083e-03
111 1 1.766e+00 1.770e+00 3.497e+00 -2.797e-04 2.425e-03 -2.116e-03
112 1 1.757e+00 1.771e+00 -3.543e+00 9.190e-04 2.936e-03 1.836e-03
113 1 -1.756e+00 -3.499e+00 -1.772e+00 6.723e-04 2.996e-03 -4.092e-03
114 1 1.757e+00 -3.498e+00 -1.779e+00 5.539e-04 3.342e-03 -3.340e-03
115 1 -1.754e+00 3.527e+00 -1.778e+00 8.039e-04 -1.921e-03 6.999e-04
116 1 3.537e+00 -1.746e+00 1.739e+00 -9.865e-03 5.506e-03 -5.802e-03
117 1 3.519e+00 -1.745e+00 -1.779e+00 5.518e-03 4.199e-03 -5.242e-03
118 1 3.523e+00 1.769e+00 1.739e+00 3.748e-03 5.078e-03 -2.722e-03
119 1 1.766e+00 3.536e+00 1.737e+00 -1.864e-03 -5.513e-03 -5.494e-03
120 1 1.763e+00 3.528e+00 -1.781e+00 -1.196e-03 3.893e-04 -1.060e-03
121 1 3.523e+00 1.770e+00 -1.781e+00 2.642e-03 4.043e-03 -8.627e-04
122 1 -3.507e+00 -1.739e+00 -1.781e+00 -3.269e-03 5.666e-03 -2.533e-03
123 1 -3.507e+00 1.768e+00 -1.784e+00 -7.394e-04 1.765e-03 7.200e-04
124 1 -1.759e+00 8.380e-03 1.737e+00 -2.136e-04 9.599e-03 -1.235e-02
125 1 -1.755e+00 -1.738e+00 6.325e-03 -1.299e-03 1.234e-02 -1.554e-02
126 1 1.758e+00 1.007e-02 5.252e+00 5.432e-03 5.146e-03 2.604e-03
127 1 -2.134e-05 1.767e+00 5.244e+00 7.985e-04 8.095e-03 4.139e-03
128 1 -2.511e-03 -1.741e+00 5.259e+00 1.259e-03 1.306e-03 -1.053e-02
129 1 -1.753e+00 1.387e-02 5.245e+00 -5.510e-03 4.597e-03 2.782e-03
130 1 -3.505e+00 1.273e-02 4.510e-03 -1.502e-02 4.213e-03 -3.671e-03
131 1 -1.768e+00 1.769e+00 5.041e-04 1.205e-02 -9.484e-03 -5.673e-03
132 1 1.751e+00 -1.745e+00 -9.082e-03 4.052e-03 1.446e-02 -1.754e-02
133 1 2.265e-04 -7.166e-04 3.476e+00 1.637e-03 1.783e-02 2.383e-02
134 1 -1.007e-04 2.505e-04 3.748e-04 1.074e-02 -1.721e+00 1.719e+00
135 1 1.758e+00 9.742e-04 1.737e+00 5.364e-03 1.595e-02 -1.109e-02
136 1 -1.770e-03 -3.487e+00 -2.731e-03 2.347e-04 -1.889e-02 -1.507e-02
137 1 -1.753e+00 1.403e-02 -1.769e+00 9.716e-03 4.149e-03 6.104e-03
138 1 -2.292e-03 -1.744e+00 -1.782e+00 -4.283e-04 1.639e-02 2.277e-02
139 1 1.763e+00 1.769e+00 -1.918e-02 -5.301e-03 -6.564e-03 -4.953e-03
140 1 2.500e-03 1.725e-02 -3.543e+00 1.763e-03 7.977e-04 -1.086e-02
141 1 1.344e-02 1.781e+00 1.737e+00 1.641e-03 -2.685e-02 -1.748e-02
142 1 -9.872e-04 1.766e+00 -1.767e+00 2.640e-03 -5.962e-03 6.603e-03
143 1 1.759e+00 1.163e-02 -1.777e+00 -5.241e-03 4.515e-03 5.727e-03
144 1 2.287e-03 3.534e+00 -1.817e-02 -6.094e-04 8.118e-03 -1.324e-03
145 1 3.523e+00 1.075e-02 -1.975e-02 1.383e-02 3.956e-03 -5.953e-03
ITEM: TIMESTEP
0
ITEM: NUMBER OF ATOMS
74
ITEM: BOX BOUNDS xy xz yz pp pp pp
                     0.00000000000000e+00 1.06200000000000e+01 0.00000000000000e+00
0.00000000000000e+00	1.06200000000000e+01	0.00000000000000e+00
0.00000000000000e+00	1.06200000000000e+01	0.00000000000000e+00
ITEM: ATOMS id type x y z DisplacementX DisplacementY DisplacementZ
146 1 5.280e+00 -1.056e-03 1.748e+00 -1.127e-02 -3.895e-05 -7.132e-04
147 1 3.495e+00 -2.557e-03 3.494e+00 6.764e-03 -6.090e-04 7.057e-03
148 1 -1.015e-02 5.283e+00 1.748e+00 -1.812e-03 1.211e-03 -1.267e-03
149 1 -1.333e-02 -5.281e+00 1.747e+00 2.154e-04 1.033e-04 -1.242e-03
150 1 1.749e+00 5.281e+00 -1.244e-02 -2.536e-03 1.268e-03 5.933e-04
151 1 1.749e+00 -5.279e+00 -1.409e-02 -2.179e-03 1.395e-03 -1.301e-04
152 1 5.264e+00 -1.587e-03 -1.769e+00 3.875e-03 -1.052e-03 -9.512e-03
153 1 -5.294e+00 -3.830e-04 1.748e+00 -1.377e-03 6.634e-04 -1.084e-03
154 1 -5.293e+00 1.470e-04 -1.773e+00 -3.431e-03 5.134e-04 -1.454e-03
155 1 -5.295e+00 1.760e+00 -1.338e-02 -1.760e-03 -1.070e-03 -3.644e-04
156 1 -5.296e+00 -1.758e+00 -1.235e-02 -1.309e-03 -1.772e-03 -1.992e-03
157 1 -1.225e-02 -5.275e+00 -1.771e+00 -4.181e-03 -5.277e-03 -2.146e-03
158 1 -1.015e-02 5.278e+00 -1.771e+00 -3.994e-03 5.050e-03 -5.690e-03
159 1 -1.769e+00 5.280e+00 -1.330e-02 -2.743e-03 4.901e-03 1.520e-05
160 1 -1.771e+00 -5.277e+00 -1.174e-02 -1.696e-03 -6.717e-03 -3.152e-03
161 1 5.266e+00 1.754e+00 -1.117e-02 2.928e-03 4.580e-03 -4.872e-03
162 1 5.267e+00 -1.756e+00 -8.926e-03 1.479e-03 -2.680e-03 -2.128e-03
163 1 3.509e+00 -1.517e-03 -3.533e+00 -7.693e-03 -1.042e-05 5.559e-03
164 1 -3.534e+00 9.923e-04 3.507e+00 4.785e-03 1.131e-04 -5.546e-03
165 1 -3.530e+00 -4.350e-04 -3.533e+00 -3.793e-04 -7.392e-04 2.941e-03
166 1 -3.531e+00 -3.519e+00 -1.156e-02 3.131e-03 2.385e-03 -2.316e-03
167 1 -3.530e+00 3.518e+00 -1.288e-02 3.653e-03 -2.884e-03 -2.606e-03
168 1 -9.851e-03 3.518e+00 -3.533e+00 -2.226e-03 -3.839e-03 4.126e-03
169 1 -1.253e-02 -3.517e+00 -3.532e+00 -2.764e-03 3.380e-03 3.456e-03
170 1 3.505e+00 -3.517e+00 -9.712e-03 -2.386e-03 1.016e-03 -5.374e-03
171 1 3.506e+00 3.515e+00 -9.777e-03 -4.514e-03 7.046e-05 -3.896e-03
172 1 -8.838e-03 3.516e+00 3.504e+00 -6.297e-03 -7.619e-05 -3.900e-03
173 1 -1.045e-02 -3.513e+00 3.504e+00 -3.091e-03 3.857e-03 -1.974e-03
174 1 1.748e+00 -1.747e+00 3.494e+00 -5.095e-03 -1.042e-02 7.104e-03
175 1 1.749e+00 1.748e+00 3.496e+00 -4.737e-03 1.051e-02 7.930e-03
176 1 3.494e+00 1.747e+00 1.747e+00 7.805e-03 9.990e-03 -4.039e-03
177 1 3.496e+00 -1.747e+00 1.748e+00 5.526e-03 -9.847e-03 -3.471e-03
178 1 1.748e+00 -1.762e+00 -3.533e+00 -4.038e-03 4.205e-03 1.338e-03
179 1 1.749e+00 1.762e+00 -3.533e+00 -2.944e-03 -5.586e-03 2.830e-03
180 1 -1.768e+00 -1.758e+00 3.505e+00 -1.729e-03 -1.198e-03 -2.143e-03
181 1 -1.770e+00 1.757e+00 3.505e+00 -2.654e-03 -1.203e-04 -2.678e-03
182 1 -1.770e+00 -1.757e+00 -3.532e+00 -1.564e-03 -3.262e-04 6.612e-04
183 1 -1.770e+00 1.758e+00 -3.533e+00 -1.964e-03 -2.136e-03 1.631e-03
184 1 3.506e+00 1.755e+00 -1.768e+00 -2.203e-03 7.076e-05 -1.435e-03
185 1 3.505e+00 -1.757e+00 -1.771e+00 -8.516e-04 -1.734e-03 -1.165e-03
186 1 -3.534e+00 1.760e+00 1.746e+00 3.534e-03 -2.517e-03 -4.769e-03
187 1 -3.536e+00 -1.759e+00 1.746e+00 4.882e-03 4.808e-03 -5.542e-03
188 1 -3.530e+00 1.760e+00 -1.773e+00 -6.272e-04 -2.146e-03 -4.403e-05
189 1 -3.530e+00 -1.758e+00 -1.772e+00 -5.909e-04 8.905e-04 -6.593e-05
190 1 -1.768e+00 3.518e+00 -1.770e+00 -1.899e-03 -7.712e-04 4.273e-04
191 1 -1.771e+00 -3.517e+00 -1.770e+00 -2.156e-03 2.791e-03 -6.006e-05
192 1 1.749e+00 -3.515e+00 -1.768e+00 -4.437e-03 -2.403e-03 -4.078e-03
193 1 1.748e+00 3.516e+00 -1.766e+00 -5.248e-03 1.870e-03 -5.212e-03
194 1 -1.765e+00 3.518e+00 1.746e+00 -2.878e-03 2.973e-03 -4.288e-03
195 1 -1.768e+00 -3.513e+00 1.749e+00 -3.305e-03 -3.409e-03 -3.417e-03
196 1 1.750e+00 3.529e+00 1.746e+00 -2.433e-03 -1.262e-02 -3.669e-03
197 1 1.749e+00 -3.530e+00 1.748e+00 -5.555e-03 1.359e-02 -5.513e-03
198 1 1.749e+00 -1.059e-03 5.277e+00 -3.646e-04 -1.065e-03 -1.103e-02
199 1 -1.767e+00 4.347e-04 5.262e+00 -8.798e-03 -9.843e-04 3.767e-03
200 1 -9.823e-03 -1.757e+00 5.264e+00 -4.719e-03 -2.910e-03 2.960e-03
201 1 -1.112e-02 1.758e+00 5.263e+00 -5.482e-03 3.675e-03 1.880e-03
202 1 -1.492e-03 -1.714e-04 3.911e-04 1.733e+00 5.643e-04 1.735e+00
203 1 -9.638e-05 4.278e-04 3.495e+00 -1.317e-02 1.157e-03 2.190e-02
204 1 3.495e+00 -7.737e-04 -1.351e-03 1.955e-02 1.603e-03 -1.353e-02
205 1 -7.877e-04 -1.745e+00 1.747e+00 -1.447e-02 2.004e-03 -1.290e-02
206 1 -1.566e-04 1.748e+00 1.748e+00 -1.513e-02 -1.338e-03 -1.437e-02
207 1 1.748e+00 1.747e+00 1.522e-04 -1.403e-02 -2.257e-03 -1.567e-02
208 1 1.746e+00 -1.747e+00 1.418e-03 -1.274e-02 7.593e-04 -1.398e-02
209 1 -8.983e-03 3.518e+00 -9.006e-03 -4.332e-03 1.220e-02 -6.573e-03
210 1 -1.081e-02 -3.516e+00 -9.531e-03 -5.350e-03 -1.127e-02 -3.118e-03
211 1 -1.365e-02 -8.573e-04 -3.534e+00 -8.827e-04 -5.959e-04 -8.751e-03
212 1 -3.533e+00 -1.347e-04 -1.356e-02 -9.731e-03 -7.905e-04 1.621e-03
213 1 -1.783e+00 2.705e-03 1.746e+00 2.072e-02 1.188e-03 -1.512e-02
214 1 1.747e+00 -6.588e-04 -1.778e+00 -1.506e-02 7.149e-04 1.913e-02
215 1 -1.765e+00 -1.216e-04 -1.767e+00 5.599e-03 2.553e-04 5.596e-03
216 1 -1.137e-02 -1.758e+00 -1.768e+00 -4.282e-03 1.182e-02 6.084e-03
217 1 -7.522e-03 1.757e+00 -1.768e+00 -2.847e-03 -1.260e-02 7.444e-03
218 1 -1.771e+00 1.759e+00 -8.992e-03 6.957e-03 -1.058e-02 -6.076e-03
219 1 -1.769e+00 -1.756e+00 -1.035e-02 7.988e-03 9.356e-03 -6.811e-03
ITEM: TIMESTEP
0
ITEM: NUMBER OF ATOMS
74
ITEM: BOX BOUNDS xy xz yz pp pp pp
                     0.00000000000000e+00 1.06200000000000e+01 0.00000000000000e+00
0.00000000000000e+00	1.06200000000000e+01	0.00000000000000e+00
0.00000000000000e+00	1.06200000000000e+01	0.00000000000000e+00
ITEM: ATOMS id type x y z DisplacementX DisplacementY DisplacementZ
220 1 -5.277e+00 1.050e-03 1.748e+00 1.120e-02 -1.654e-03 1.801e-03
221 1 -3.498e+00 1.887e-03 3.495e+00 -4.785e-03 -1.533e-03 5.834e-03
222 1 1.131e-02 5.279e+00 1.746e+00 -3.652e-04 -4.414e-04 -2.186e-03
223 1 1.296e-02 -5.279e+00 1.748e+00 2.600e-03 -1.318e-03 -7.621e-04
224 1 -1.749e+00 5.281e+00 -1.357e-02 7.771e-04 1.477e-03 -2.645e-03
225 1 -1.749e+00 -5.280e+00 -1.323e-02 1.983e-03 1.059e-03 -1.204e-03
226 1 -5.264e+00 1.128e-03 -1.766e+00 -4.633e-03 1.869e-06 -8.415e-03
227 1 5.292e+00 1.043e-03 1.749e+00 1.054e-03 6.261e-04 -1.601e-03
228 1 5.294e+00 -3.431e-04 -1.777e+00 2.145e-03 9.394e-05 9.168e-05
229 1 5.292e+00 1.759e+00 -1.355e-02 3.123e-03 1.228e-03 1.625e-03
230 1 5.297e+00 -1.760e+00 -1.281e-02 1.516e-03 -1.403e-03 -1.172e-03
231 1 1.147e-02 -5.277e+00 -1.772e+00 2.278e-03 -2.891e-03 -3.532e-03
232 1 1.077e-02 5.280e+00 -1.771e+00 2.891e-03 6.131e-03 -2.954e-03
233 1 1.771e+00 5.277e+00 -1.480e-02 2.849e-03 3.253e-03 -1.633e-03
234 1 1.771e+00 -5.275e+00 -1.325e-02 5.154e-03 -4.653e-03 -2.980e-03
235 1 -5.266e+00 1.759e+00 -8.366e-03 -2.599e-03 4.017e-03 -5.438e-03
236 1 -5.267e+00 -1.756e+00 -1.019e-02 -1.504e-03 -4.082e-03 -4.478e-03
237 1 -3.507e+00 1.207e-03 -3.532e+00 8.540e-03 5.180e-04 1.547e-03
238 1 3.535e+00 2.519e-05 3.511e+00 -6.801e-03 2.418e-03 -7.538e-03
239 1 3.529e+00 -5.855e-04 -3.532e+00 -1.731e-04 1.551e-03 3.049e-03
240 1 3.534e+00 -3.517e+00 -1.057e-02 -2.875e-03 2.373e-03 -1.976e-03
241 1 3.530e+00 3.517e+00 -1.400e-02 -1.396e-04 -3.850e-03 -1.099e-03
242 1 1.042e-02 3.517e+00 -3.532e+00 4.876e-03 -1.790e-03 3.308e-03
243 1 1.036e-02 -3.515e+00 -3.532e+00 2.081e-03 2.922e-03 4.785e-03
244 1 -3.507e+00 -3.514e+00 -9.744e-03 6.136e-03 2.245e-03 -3.938e-03
245 1 -3.505e+00 3.518e+00 -9.375e-03 5.183e-03 -1.283e-03 -3.748e-03
246 1 1.159e-02 3.516e+00 3.506e+00 5.230e-03 -4.997e-04 -4.744e-03
247 1 7.480e-03 -3.513e+00 3.503e+00 3.948e-03 1.073e-03 -4.160e-03
248 1 -1.748e+00 -1.745e+00 3.493e+00 5.117e-03 -9.940e-03 5.624e-03
249 1 -1.750e+00 1.747e+00 3.497e+00 4.563e-03 9.299e-03 7.864e-03
250 1 -3.496e+00 1.747e+00 1.748e+00 -7.238e-03 8.380e-03 -3.025e-03
251 1 -3.497e+00 -1.747e+00 1.745e+00 -7.578e-03 -8.861e-03 -5.283e-03
252 1 -1.750e+00 -1.761e+00 -3.532e+00 2.813e-03 2.484e-03 3.518e-03
253 1 -1.747e+00 1.760e+00 -3.532e+00 3.097e-03 -4.399e-03 2.326e-03
254 1 1.769e+00 -1.757e+00 3.504e+00 1.746e-03 -9.288e-05 -1.387e-03
255 1 1.770e+00 1.757e+00 3.504e+00 1.839e-03 -1.809e-04 -3.304e-03
256 1 1.771e+00 -1.757e+00 -3.532e+00 1.985e-03 -5.294e-04 1.470e-03
257 1 1.769e+00 1.755e+00 -3.533e+00 1.261e-03 -2.043e-03 2.711e-03
258 1 -3.505e+00 1.760e+00 -1.769e+00 2.213e-03 -4.349e-04 -3.856e-03
259 1 -3.506e+00 -1.756e+00 -1.768e+00 9.216e-04 8.096e-04 -2.801e-03
260 1 3.533e+00 1.760e+00 1.749e+00 -3.985e-03 -3.219e-03 -4.574e-03
261 1 3.535e+00 -1.762e+00 1.747e+00 -2.992e-03 6.197e-04 -4.795e-03
262 1 3.527e+00 1.757e+00 -1.773e+00 -1.172e-03 -1.757e-03 1.037e-03
263 1 3.534e+00 -1.761e+00 -1.772e+00 6.558e-04 2.727e-03 -1.334e-03
264 1 1.770e+00 3.518e+00 -1.772e+00 1.242e-03 -7.065e-04 -9.918e-04
265 1 1.771e+00 -3.515e+00 -1.772e+00 -1.710e-04 -5.113e-05 1.304e-03
266 1 -1.748e+00 -3.513e+00 -1.767e+00 4.424e-03 -2.363e-03 -4.809e-03
267 1 -1.746e+00 3.517e+00 -1.767e+00 7.797e-03 1.735e-03 -2.636e-03
268 1 1.768e+00 3.515e+00 1.748e+00 4.764e-03 3.416e-03 -2.520e-03
269 1 1.767e+00 -3.512e+00 1.748e+00 2.563e-03 -1.618e-03 -4.025e-03
270 1 -1.749e+00 3.531e+00 1.747e+00 4.563e-03 -1.231e-02 -3.675e-03
271 1 -1.748e+00 -3.530e+00 1.749e+00 5.306e-03 1.347e-02 -5.778e-03
272 1 -1.749e+00 1.187e-04 5.276e+00 5.209e-04 1.563e-03 -9.619e-03
273 1 1.769e+00 -1.138e-03 5.263e+00 6.001e-03 1.100e-03 3.578e-03
274 1 9.546e-03 -1.757e+00 5.265e+00 3.663e-03 -3.761e-03 3.069e-03
275 1 7.471e-03 1.756e+00 5.265e+00 3.209e-03 2.186e-03 9.237e-04
276 1 4.167e-04 1.880e-04 1.290e-03 -1.735e+00 -7.471e-04 1.734e+00
277 1 -7.844e-06 2.661e-04 3.495e+00 1.339e-02 8.627e-04 2.062e-02
278 1 -3.497e+00 2.126e-03 -5.610e-04 -2.018e-02 -1.008e-03 -1.606e-02
279 1 -1.142e-03 -1.748e+00 1.749e+00 1.513e-02 1.195e-03 -1.613e-02
280 1 6.411e-04 1.746e+00 1.747e+00 1.424e-02 5.626e-04 -1.306e-02
281 1 -1.748e+00 1.748e+00 1.649e-03 1.412e-02 -1.265e-03 -1.469e-02
282 1 -1.749e+00 -1.745e+00 1.519e-04 1.647e-02 1.332e-03 -1.429e-02
283 1 8.110e-03 3.518e+00 -1.139e-02 6.303e-03 1.253e-02 -5.607e-03
284 1 9.165e-03 -3.515e+00 -9.895e-03 4.896e-03 -1.462e-02 -4.492e-03
285 1 1.428e-02 -8.463e-04 -3.533e+00 -8.169e-04 1.593e-03 -1.165e-02
286 1 3.534e+00 -1.965e-03 -1.354e-02 8.999e-03 9.359e-04 -1.548e-03
287 1 1.784e+00 -1.171e-03 1.750e+00 -2.036e-02 1.977e-03 -1.337e-02
288 1 -1.748e+00 -7.365e-04 -1.780e+00 1.358e-02 7.783e-04 1.910e-02
289 1 1.769e+00 -8.296e-04 -1.768e+00 -4.868e-03 -9.355e-04 3.864e-03
290 1 1.157e-02 -1.757e+00 -1.768e+00 5.559e-03 1.107e-02 7.471e-03
291 1 8.985e-03 1.757e+00 -1.770e+00 5.239e-03 -9.881e-03 6.501e-03
292 1 1.769e+00 1.757e+00 -1.047e-02 -6.829e-03 -1.029e-02 -6.116e-03
293 1 1.769e+00 -1.755e+00 -1.168e-02 -6.430e-03 8.584e-03 -4.418e-03
ITEM: TIMESTEP
0
ITEM: NUMBER OF ATOMS
74
ITEM: BOX BOUNDS xy xz yz pp pp pp
                     0.00000000000000e+00 1.06200000000000e+01 0.00000000000000e+00
0.00000000000000e+00	1.06200000000000e+01	0.00000000000000e+00
0.00000000000000e+00	1.06200000000000e+01	0.00000000000000e+00
ITEM: ATOMS id type x y z DisplacementX DisplacementY DisplacementZ
294 1 -1.681e-03 -5.276e+00 1.749e+00 3.005e-04 9.517e-03 -7.264e-04
295 1 1.883e-04 -3.494e+00 3.494e+00 -3.977e-04 -5.174e-03 5.369e-03
296 1 5.283e+00 1.286e-02 1.748e+00 1.350e-03 9.887e-04 1.979e-04
297 1 -5.283e+00 1.567e-02 1.746e+00 -6.107e-04 7.169e-04 1.019e-03
298 1 5.282e+00 -1.747e+00 -1.617e-02 1.589e-03 8.315e-04 -1.741e-03
299 1 -5.284e+00 -1.744e+00 -1.392e-02 -4.357e-04 2.647e-03 -7.743e-04
300 1 -3.854e-04 -5.260e+00 -1.765e+00 -2.448e-05 -4.876e-03 -7.393e-03
301 1 3.225e-03 5.296e+00 1.747e+00 3.718e-04 2.212e-03 -1.387e-03
302 1 1.673e-03 5.296e+00 -1.775e+00 -9.300e-04 3.025e-03 -1.746e-03
303 1 1.762e+00 5.297e+00 -1.087e-02 7.531e-05 3.067e-03 -4.390e-04
304 1 -1.760e+00 5.295e+00 -1.574e-02 -2.192e-04 3.053e-03 -1.214e-03
305 1 -5.278e+00 1.416e-02 -1.771e+00 -3.965e-03 2.520e-03 -2.798e-03
306 1 5.278e+00 1.056e-02 -1.774e+00 2.960e-03 1.083e-03 -2.928e-03
307 1 5.276e+00 1.772e+00 -1.198e-02 6.097e-03 1.269e-03 -2.675e-03
308 1 -5.280e+00 1.772e+00 -1.338e-02 -4.084e-03 2.418e-03 -2.675e-03
309 1 1.755e+00 -5.262e+00 -1.121e-02 3.859e-03 -3.092e-03 -4.645e-03
310 1 -1.759e+00 -5.263e+00 -9.156e-03 -3.858e-03 -3.164e-03 -5.005e-03
311 1 -9.296e-04 -3.508e+00 -3.532e+00 5.430e-05 1.021e-02 3.562e-03
312 1 2.650e-04 3.535e+00 3.507e+00 7.167e-04 -4.860e-03 -6.446e-03
313 1 7.418e-04 3.531e+00 -3.532e+00 -1.702e-03 1.793e-03 2.848e-03
314 1 -3.517e+00 3.533e+00 -1.186e-02 1.627e-03 -1.903e-03 -2.446e-03
315 1 3.519e+00 3.529e+00 -1.392e-02 -3.154e-03 -2.679e-03 -2.521e-03
316 1 3.516e+00 1.077e-02 -3.532e+00 1.226e-03 1.873e-03 4.671e-03
317 1 -3.517e+00 1.368e-02 -3.532e+00 1.464e-03 3.907e-03 2.383e-03
318 1 -3.516e+00 -3.502e+00 -9.031e-03 1.171e-04 4.429e-03 -9.096e-04
319 1 3.519e+00 -3.506e+00 -1.070e-02 -8.940e-04 4.950e-03 -3.938e-03
320 1 3.519e+00 7.935e-03 3.505e+00 -5.168e-05 3.960e-03 -4.045e-03
321 1 -3.516e+00 1.040e-02 3.505e+00 4.139e-04 4.741e-03 -2.721e-03
322 1 -1.748e+00 -1.747e+00 3.494e+00 -1.008e-02 3.769e-03 8.330e-03
323 1 1.750e+00 -1.748e+00 3.495e+00 7.293e-03 5.897e-03 5.412e-03
324 1 1.748e+00 -3.494e+00 1.747e+00 1.048e-02 -6.984e-03 -4.236e-03
325 1 -1.750e+00 -3.493e+00 1.746e+00 -9.895e-03 -6.614e-03 -3.778e-03
326 1 -1.763e+00 -1.747e+00 -3.535e+00 6.175e-03 5.564e-03 3.110e-03
327 1 1.762e+00 -1.749e+00 -3.534e+00 -3.186e-03 3.086e-03 2.442e-03
328 1 -1.756e+00 1.770e+00 3.506e+00 1.174e-04 2.228e-03 -3.664e-03
329 1 1.756e+00 1.769e+00 3.506e+00 -2.011e-04 1.550e-03 2.137e-04
330 1 -1.758e+00 1.771e+00 -3.533e+00 1.523e-03 2.103e-04 2.178e-03
331 1 1.758e+00 1.769e+00 -3.533e+00 -2.971e-04 8.357e-04 3.675e-03
332 1 1.758e+00 -3.504e+00 -1.767e+00 -4.337e-04 1.024e-03 -1.989e-03
333 1 -1.757e+00 -3.503e+00 -1.768e+00 -1.356e-03 2.307e-03 -1.958e-03
334 1 1.759e+00 3.533e+00 1.747e+00 -2.026e-03 -2.364e-03 -4.822e-03
335 1 -1.758e+00 3.537e+00 1.747e+00 3.755e-03 -8.107e-04 -5.886e-03
336 1 1.758e+00 3.532e+00 -1.772e+00 -1.061e-03 -9.016e-04 1.330e-03
337 1 -1.759e+00 3.532e+00 -1.772e+00 1.662e-03 -7.602e-04 2.037e-04
338 1 3.517e+00 1.769e+00 -1.774e+00 -6.492e-04 1.259e-03 -1.663e-03
339 1 -3.516e+00 1.773e+00 -1.770e+00 -6.862e-04 1.239e-03 -4.801e-05
340 1 -3.517e+00 -1.744e+00 -1.769e+00 -2.340e-03 6.452e-03 -1.848e-03
341 1 3.517e+00 -1.750e+00 -1.768e+00 1.381e-03 4.961e-03 -2.638e-03
342 1 3.515e+00 1.766e+00 1.746e+00 1.153e-03 3.076e-03 -4.426e-03
343 1 -3.516e+00 1.771e+00 1.746e+00 -3.672e-03 2.839e-03 -3.151e-03
344 1 3.532e+00 -1.749e+00 1.747e+00 -1.081e-02 6.399e-03 -4.991e-03
345 1 -3.530e+00 -1.746e+00 1.747e+00 1.206e-02 5.696e-03 -5.159e-03
346 1 1.463e-04 -1.746e+00 5.277e+00 -2.585e-04 1.411e-03 -1.041e-02
347 1 1.008e-03 1.767e+00 5.262e+00 1.142e-03 6.895e-03 2.557e-03
348 1 -1.757e+00 1.130e-02 5.263e+00 -2.874e-03 6.443e-03 2.125e-03
349 1 1.758e+00 9.996e-03 5.264e+00 4.114e-03 4.678e-03 3.564e-03
350 1 4.400e-04 4.323e-04 -2.526e-04 1.870e-03 -1.732e+00 1.734e+00
351 1 1.633e-04 -4.867e-04 3.493e+00 -6.024e-04 1.439e-02 1.852e-02
352 1 -2.518e-03 -3.494e+00 -1.058e-03 -1.095e-03 -2.117e-02 -1.404e-02
353 1 -1.749e+00 7.716e-04 1.746e+00 5.698e-04 1.365e-02 -1.408e-02
354 1 1.748e+00 1.343e-03 1.747e+00 -1.441e-03 1.431e-02 -1.461e-02
355 1 1.747e+00 -1.748e+00 -1.912e-03 -2.961e-04 1.523e-02 -1.333e-02
356 1 -1.749e+00 -1.745e+00 -2.214e-03 9.648e-04 1.375e-02 -1.347e-02
357 1 3.519e+00 9.823e-03 -1.202e-02 1.262e-02 4.927e-03 -5.603e-03
358 1 -3.519e+00 1.087e-02 -9.766e-03 -1.170e-02 5.893e-03 -3.165e-03
359 1 8.816e-05 1.499e-02 -3.534e+00 4.360e-04 -3.838e-05 -1.060e-02
360 1 3.557e-03 3.535e+00 -1.380e-02 -1.268e-04 8.526e-03 -2.804e-04
361 1 2.178e-03 1.782e+00 1.747e+00 2.669e-04 -1.904e-02 -1.378e-02
362 1 -9.879e-04 -1.748e+00 -1.783e+00 1.718e-03 1.514e-02 1.874e-02
363 1 7.583e-04 1.769e+00 -1.766e+00 -1.094e-03 -6.536e-03 4.566e-03
364 1 -1.757e+00 1.167e-02 -1.769e+00 1.050e-02 4.932e-03 5.421e-03
365 1 1.757e+00 9.370e-03 -1.770e+00 -9.479e-03 4.941e-03 6.219e-03
366 1 1.757e+00 1.770e+00 -1.151e-02 -9.500e-03 -8.866e-03 -4.427e-03
367 1 -1.758e+00 1.772e+00 -1.064e-02 9.984e-03 -6.632e-03 -3.176e-03
ITEM: TIMESTEP
0
ITEM: NUMBER OF ATOMS
73
ITEM: BOX BOUNDS xy xz yz pp pp pp
                     0.00000000000000e+00 1.06200000000000e+01 0.00000000000000e+00
0.00000000000000e+00	1.06200000000000e+01	0.00000000000000e+00
0.00000000000000e+00	1.06200000000000e+01	0.00000000000000e+00
ITEM: ATOMS id type x y z DisplacementX DisplacementY DisplacementZ
368 1 -2.249e-03 -5.255e+00 1.742e+00 -4.377e-03 -7.115e-03 -1.091e-05
369 1 1.747e+00 -5.256e+00 3.739e-04 -4.827e-04 -5.995e-03 -1.992e-03
370 1 -7.663e-04 -3.507e+00 3.484e+00 -4.158e-03 1.538e-03 -5.570e-03
371 1 3.485e+00 -1.199e-03 3.480e+00 8.152e-03 1.553e-03 7.878e-03
372 1 3.497e+00 -3.510e+00 9.395e-03 -8.061e-03 -1.068e-03 -7.720e-03
373 1 -1.179e-02 -5.269e+00 -1.770e+00 -2.853e-03 -7.817e-03 -3.805e-03
374 1 -1.769e+00 -5.267e+00 -1.672e-02 -3.497e-03 -3.949e-03 -2.941e-03
375 1 5.253e+00 -3.396e-03 -1.765e+00 6.092e-03 -2.686e-04 -8.250e-03
376 1 5.255e+00 1.760e+00 -1.452e-02 3.321e-03 3.871e-03 -4.347e-03
377 1 1.742e+00 5.286e+00 -1.958e-02 -7.664e-04 1.248e-03 -3.944e-03
378 1 -1.778e+00 5.279e+00 -1.747e-02 -4.952e-03 4.314e-03 -6.648e-04
379 1 -5.298e+00 1.764e+00 -1.807e-02 -2.497e-03 1.059e-03 -2.376e-03
380 1 -5.296e+00 -1.754e+00 -2.009e-02 -8.052e-04 -3.429e-04 -2.402e-04
381 1 -2.067e-02 5.286e+00 1.744e+00 -9.376e-04 2.358e-03 -1.784e-03
382 1 -1.709e-02 5.280e+00 -1.779e+00 -2.110e-03 6.252e-03 -2.364e-03
383 1 -5.296e+00 4.495e-03 -1.779e+00 -2.401e-03 1.981e-04 -1.838e-03
384 1 -5.297e+00 5.590e-03 1.743e+00 -1.419e-03 2.489e-03 -1.626e-03
385 1 5.267e+00 1.150e-02 1.742e+00 -1.088e-02 -2.317e-03 -1.097e-03
386 1 5.252e+00 -1.770e+00 5.024e-03 -3.182e-04 -6.893e-03 -5.818e-03
387 1 3.503e+00 -1.147e-03 -3.538e+00 -8.708e-03 -2.435e-04 4.727e-03
388 1 -1.560e-02 3.520e+00 3.499e+00 -4.739e-03 2.500e-05 -2.733e-03
389 1 -1.546e-02 3.520e+00 -3.536e+00 -2.180e-03 9.706e-04 2.649e-03
390 1 -3.531e+00 5.804e-03 -3.537e+00 -1.868e-03 -1.119e-03 4.247e-03
391 1 -3.538e+00 4.191e-03 3.505e+00 8.046e-03 -1.639e-03 -6.260e-03
392 1 -1.185e-02 -3.512e+00 -3.536e+00 -2.669e-03 3.416e-03 2.967e-03
393 1 3.499e+00 3.521e+00 -1.587e-02 -5.196e-03 -2.839e-04 -4.308e-03
394 1 -3.536e+00 3.521e+00 -1.744e-02 3.095e-03 -2.954e-03 -1.285e-03
395 1 1.746e+00 -1.757e+00 3.474e+00 -5.614e-03 -9.614e-03 3.256e-03
396 1 -3.533e+00 -3.512e+00 -2.082e-02 3.213e-03 3.611e-03 -3.091e-03
397 1 3.491e+00 -1.763e+00 1.741e+00 1.260e-03 -7.839e-03 -3.709e-03
398 1 1.742e+00 1.751e+00 3.489e+00 -4.777e-03 1.101e-02 9.560e-03
399 1 3.486e+00 1.755e+00 1.741e+00 8.812e-03 9.595e-03 -3.440e-03
400 1 1.747e+00 -1.757e+00 -3.538e+00 -5.890e-03 4.116e-03 2.833e-03
401 1 1.741e+00 1.760e+00 -3.535e+00 -5.519e-03 -3.009e-03 2.522e-03
402 1 -1.770e+00 -1.755e+00 -3.538e+00 -1.815e-03 1.767e-03 1.633e-03
403 1 -1.772e+00 1.760e+00 3.500e+00 -3.529e-03 -2.642e-04 -3.370e-03
404 1 -1.773e+00 1.762e+00 -3.537e+00 -2.390e-03 1.506e-03 -1.095e-03
405 1 -1.771e+00 -1.753e+00 3.496e+00 -1.193e-03 -2.447e-03 -4.361e-03