ITEM: TIMESTEP
0
ITEM: NUMBER OF ATOMS
73
ITEM: BOX BOUNDS xy xz yz pp pp pp
                     0.00000000000000e+00 1.06200000000000e+01 0.00000000000000e+00
0.00000000000000e+00	1.06200000000000e+01	0.00000000000000e+00
0.00000000000000e+00	1.06200000000000e+01	0.00000000000000e+00
ITEM: ATOMS id type x y z DisplacementX DisplacementY DisplacementZ
1 1 -3.508e+00 4.124e-03 3.478e+00 1.863e-02 -1.198e-02 6.469e-02
2 1 -5.259e+00 -1.741e+00 3.679e-03 1.115e-02 1.278e-03 7.323e-03
3 1 -5.259e+00 1.759e+00 1.362e-02 -4.432e-02 -1.664e-01 2.150e-02
4 1 -5.259e+00 5.714e-03 -1.773e+00 1.003e-03 -5.026e-03 7.394e-03
5 1 5.296e+00 1.759e+00 -1.331e-02 -1.635e-03 3.246e-03 1.055e-03
6 1 5.295e+00 -1.759e+00 -1.432e-02 2.136e-04 -4.392e-03 -1.843e-03
7 1 1.774e+00 5.273e+00 -1.576e-02 3.878e-03 -1.682e-03 -6.561e-04
8 1 1.771e+00 -5.274e+00 -1.479e-02 6.530e-04 -2.264e-03 -1.644e-03
9 1 -1.750e+00 5.276e+00 -1.023e-02 2.015e-03 -1.552e-03 3.433e-03
10 1 -1.748e+00 -5.279e+00 -9.989e-03 3.825e-04 1.844e-03 4.282e-03
11 1 1.534e-02 -5.275e+00 1.746e+00 -2.768e-03 -3.523e-03 -5.161e-03
12 1 1.588e-02 5.278e+00 1.746e+00 -9.938e-04 -1.042e-02 -7.687e-03
13 1 9.040e-03 -5.276e+00 -1.773e+00 -1.312e-03 -3.136e-03 9.968e-05
14 1 1.102e-02 5.272e+00 -1.773e+00 -6.712e-05 4.153e-03 5.283e-03
15 1 5.297e+00 1.785e-03 -1.774e+00 -1.206e-03 -1.720e-03 4.084e-03
16 1 5.297e+00 1.579e-03 1.747e+00 3.360e-04 -9.056e-04 8.064e-03
17 1 -3.505e+00 -1.739e+00 1.747e+00 -3.722e-02 3.576e-02 -5.473e-02
18 1 -3.512e+00 1.751e+00 1.746e+00 1.605e-02 3.089e-02 -5.869e-02
19 1 -3.507e+00 1.680e-03 -3.534e+00 -6.123e-04 -3.236e-03 -6.575e-04
20 1 3.537e+00 -1.281e-03 3.509e+00 2.542e-03 5.728e-03 9.418e-03
21 1 3.532e+00 1.258e-04 -3.535e+00 2.740e-03 -1.364e-03 1.254e-04
22 1 6.387e-03 -3.513e+00 -3.532e+00 -2.729e-04 7.556e-04 6.067e-03
23 1 8.149e-03 3.514e+00 -3.532e+00 -1.711e-03 4.623e-03 -5.946e-03
24 1 7.672e-03 -3.514e+00 3.504e+00 1.690e-03 -3.534e-04 3.824e-03
25 1 1.286e-02 3.513e+00 3.502e+00 -2.523e-03 -6.467e-04 -3.659e-03
26 1 -3.507e+00 -3.518e+00 -2.249e-03 7.584e-03 -3.120e-03 1.227e-02
27 1 -3.518e+00 3.511e+00 7.802e-03 6.110e-03 1.292e-02 -1.476e-02
28 1 3.531e+00 -3.516e+00 -1.492e-02 1.710e-03 -7.891e-03 -8.455e-03
29 1 3.534e+00 3.518e+00 -1.399e-02 1.442e-04 1.742e-03 2.585e-04
30 1 -1.751e+00 1.744e+00 3.485e+00 1.396e-03 1.818e-02 7.550e-03
31 1 -1.755e+00 -1.742e+00 3.489e+00 -1.455e-02 -1.296e-02 2.567e-02
32 1 -1.752e+00 1.762e+00 -3.533e+00 2.483e-03 -1.379e-03 -5.147e-03
33 1 -1.751e+00 -1.756e+00 -3.532e+00 2.899e-05 2.093e-04 2.279e-03
34 1 1.772e+00 1.758e+00 3.503e+00 -4.421e-03 3.589e-03 -5.694e-03
35 1 1.770e+00 -1.757e+00 3.505e+00 -3.237e-04 -7.856e-03 8.483e-03
36 1 1.767e+00 1.759e+00 -3.534e+00 -4.008e-03 4.399e-03 1.966e-04
37 1 1.770e+00 -1.757e+00 -3.533e+00 -3.107e-05 7.189e-04 1.976e-03
38 1 -3.507e+00 -1.753e+00 -1.763e+00 -5.905e-04 -1.860e-05 6.793e-03
39 1 -3.505e+00 1.758e+00 -1.762e+00 -4.733e-03 -3.700e-03 -5.910e-03
40 1 3.537e+00 -1.761e+00 1.746e+00 -9.563e-04 1.364e-04 -4.125e-04
41 1 3.538e+00 1.761e+00 1.746e+00 -1.450e-03 -1.131e-03 -1.038e-03
42 1 3.533e+00 -1.758e+00 -1.774e+00 -3.337e-03 -2.163e-03 -1.050e-02
43 1 3.532e+00 1.759e+00 -1.774e+00 1.810e-03 3.670e-03 6.334e-03
44 1 1.768e+00 -3.514e+00 -1.773e+00 -1.073e-04 4.293e-03 -4.375e-04
45 1 1.770e+00 3.516e+00 -1.774e+00 4.203e-04 3.194e-03 -3.498e-03
46 1 1.770e+00 3.513e+00 1.747e+00 3.418e-04 -1.331e-03 -9.567e-04
47 1 1.768e+00 -3.510e+00 1.746e+00 -2.281e-03 -7.436e-03 -6.374e-03
48 1 -1.752e+00 3.510e+00 -1.762e+00 -1.828e-03 1.997e-03 -5.636e-03
49 1 -1.752e+00 -3.511e+00 -1.765e+00 -4.749e-03 -7.539e-04 -2.919e-03
50 1 -1.737e+00 3.524e+00 1.747e+00 -5.596e-03 -1.870e-02 -4.428e-03
51 1 -1.756e+00 -3.528e+00 1.745e+00 4.988e-03 2.970e-03 1.204e-02
52 1 -1.754e+00 2.192e-03 5.267e+00 1.792e-03 -3.897e-05 -3.527e-03
53 1 1.765e+00 -1.982e-05 5.261e+00 3.384e-03 8.997e-04 2.948e-03
54 1 4.582e-03 -1.753e+00 5.260e+00 -3.001e-03 -3.327e-04 1.344e-03
55 1 6.049e-03 1.757e+00 5.259e+00 2.966e-03 9.447e-04 6.504e-03
56 1 -3.508e+00 4.983e-03 1.348e-02 -1.096e-01 -5.581e-02 4.035e-02
57 1 -2.139e-04 6.280e-04 6.822e-04 -1.674e+00 -1.964e-02 1.669e+00
58 1 9.321e-04 -1.673e-04 3.492e+00 -1.413e-02 1.843e-02 -2.167e-02
59 1 -1.527e-03 -1.748e+00 1.746e+00 -1.714e-02 1.555e-02 -1.041e-03
60 1 6.027e-03 1.746e+00 1.746e+00 -3.710e-03 -1.636e-02 -9.304e-03
61 1 -1.751e+00 1.742e+00 8.481e-03 -4.094e-03 2.741e-03 -5.849e-03
62 1 -1.751e+00 -1.744e+00 4.620e-03 -4.822e-03 -4.796e-02 -1.120e-03
63 1 -1.754e+00 1.393e-03 -1.776e+00 6.259e-03 -1.468e-03 1.178e-02
64 1 9.768e-03 -1.658e-03 -3.534e+00 -1.966e-03 1.973e-03 2.321e-03
65 1 1.772e+00 1.757e+00 -1.240e-02 1.528e-03 1.600e-03 2.139e-03
66 1 1.769e+00 -1.756e+00 -1.198e-02 -2.751e-03 -4.155e-03 1.055e-03
67 1 1.784e+00 -1.196e-03 1.745e+00 -6.874e-03 1.206e-03 -2.482e-03
68 1 1.767e+00 9.974e-04 -1.769e+00 -7.502e-04 7.607e-03 -7.062e-05
69 1 3.391e-03 -1.755e+00 -1.767e+00 1.152e-02 -1.459e-03 1.021e-02
70 1 4.546e-03 1.755e+00 -1.769e+00 -8.703e-04 -6.222e-04 -1.037e-03
71 1 7.653e-03 -3.514e+00 -1.155e-02 4.890e-04 -2.265e-03 -3.355e-03
72 1 1.077e-02 3.514e+00 -1.285e-02 4.762e-03 8.969e-04 1.315e-02
73 1 3.536e+00 4.029e-04 -1.503e-02 -8.533e-04 -1.375e-03 -4.322e-04
ITEM: TIMESTEP
0
ITEM: NUMBER OF ATOMS
72
ITEM: BOX BOUNDS xy xz yz pp pp pp
                     0.00000000000000e+00 1.06200000000000e+01 0.00000000000000e+00
0.00000000000000e+00	1.06200000000000e+01	0.00000000000000e+00
0.00000000000000e+00	1.06200000000000e+01	0.00000000000000e+00
ITEM: ATOMS id type x y z DisplacementX DisplacementY DisplacementZ
74 1 -5.250e+00 1.693e-02 1.736e+00 6.525e-02 -8.222e-03 -9.273e-02
75 1 -5.252e+00 -1.737e+00 -4.717e-03 -2.791e-03 -1.735e-02 -5.401e-03
76 1 -5.252e+00 1.771e+00 -5.323e-03 -9.600e-03 1.127e-02 1.090e-02
77 1 -3.507e+00 1.390e-02 3.469e+00 -2.612e-02 -3.066e-03 4.454e-02
78 1 -8.101e-04 -3.486e+00 3.480e+00 9.272e-03 1.935e-03 1.655e-02
79 1 -1.756e+00 -5.262e+00 -1.342e-02 -1.216e-04 -2.733e-03 1.255e-03
80 1 1.759e+00 -5.258e+00 -1.901e-02 -1.366e-04 8.960e-04 -3.112e-03
81 1 1.169e-03 -5.256e+00 -1.774e+00 -2.649e-03 -3.756e-03 -9.744e-03
82 1 -1.756e+00 5.293e+00 -2.070e-02 -2.001e-03 3.726e-03 7.501e-04
83 1 5.288e+00 -1.743e+00 -2.342e-02 1.608e-03 -1.045e-03 3.966e-03
84 1 1.765e+00 5.293e+00 -2.184e-02 -1.116e-03 -1.531e-03 2.028e-03
85 1 5.285e+00 1.774e+00 -2.243e-02 -2.433e-03 4.800e-03 -2.727e-03
86 1 4.661e-03 5.291e+00 1.738e+00 -5.446e-03 -4.127e-03 -1.038e-02
87 1 5.292e-03 5.290e+00 -1.782e+00 -2.364e-03 1.320e-03 1.608e-03
88 1 5.290e+00 1.656e-02 1.737e+00 5.632e-03 1.326e-03 2.335e-03
89 1 5.285e+00 1.527e-02 -1.781e+00 -2.208e-03 -2.744e-03 -5.855e-03
90 1 -5.025e-03 -5.272e+00 1.739e+00 4.143e-03 5.856e-03 1.826e-03
91 1 -3.507e+00 -3.485e+00 -5.821e-03 -1.416e-02 -2.776e-02 -4.070e-03
92 1 -3.509e+00 3.522e+00 -7.365e-03 1.073e-02 1.389e-03 -3.023e-02
93 1 -5.262e+00 1.646e-02 -1.774e+00 -1.150e-03 4.329e-03 -1.932e-03
94 1 -3.507e+00 1.556e-02 -3.541e+00 -3.086e-03 1.825e-03 -5.002e-03
95 1 1.608e-03 -3.503e+00 -3.542e+00 -4.302e-03 -5.877e-05 1.793e-04
96 1 3.522e+00 1.084e-02 3.496e+00 1.117e-03 1.727e-03 -8.693e-04
97 1 5.275e-04 3.530e+00 3.495e+00 4.085e-04 -6.754e-03 2.306e-04
98 1 5.676e-03 3.524e+00 -3.541e+00 4.239e-03 4.939e-03 9.613e-03
99 1 3.523e+00 1.337e-02 -3.545e+00 7.385e-04 -9.375e-04 2.205e-03
100 1 3.523e+00 -3.500e+00 -2.069e-02 -2.051e-03 -2.716e-03 4.650e-04
101 1 3.525e+00 3.533e+00 -2.262e-02 -1.795e-04 2.411e-03 -1.060e-03
102 1 -1.753e+00 -3.481e+00 1.739e+00 -2.374e-01 2.402e-02 1.309e-02
103 1 -1.756e+00 -1.738e+00 3.472e+00 6.420e-03 1.656e-02 6.250e-04
104 1 1.751e+00 -1.746e+00 3.484e+00 4.312e-03 -1.072e-04 1.136e-02
105 1 -1.765e+00 3.526e+00 1.738e+00 1.067e-02 -3.519e-03 -1.640e-03
106 1 1.752e+00 -3.491e+00 1.738e+00 4.112e-02 -1.580e-02 -1.698e-02
107 1 -1.768e+00 1.767e+00 3.476e+00 -3.270e-03 -1.155e-02 2.062e-02
108 1 -1.754e+00 -1.742e+00 -3.542e+00 -1.037e-03 3.035e-03 -2.411e-03
109 1 -1.751e+00 1.770e+00 -3.542e+00 -1.243e-03 1.202e-02 6.697e-03
110 1 1.759e+00 -1.744e+00 -3.542e+00 -3.888e-04 1.508e-03 1.900e-03
111 1 1.766e+00 1.770e+00 3.497e+00 2.125e-03 6.008e-03 -4.634e-04
112 1 1.757e+00 1.771e+00 -3.543e+00 1.414e-03 -2.589e-03 6.225e-03
113 1 -1.756e+00 -3.499e+00 -1.772e+00 -1.274e-04 1.237e-03 4.224e-03
114 1 1.757e+00 -3.498e+00 -1.779e+00 1.511e-03 -3.493e-04 2.526e-03
115 1 -1.754e+00 3.527e+00 -1.778e+00 1.358e-02 7.795e-03 5.426e-03
116 1 3.537e+00 -1.746e+00 1.739e+00 -7.828e-03 4.164e-03 -4.789e-03
117 1 3.519e+00 -1.745e+00 -1.779e+00 2.209e-03 2.478e-03 -5.853e-03
118 1 3.523e+00 1.769e+00 1.739e+00 4.777e-03 4.013e-04 6.503e-03
119 1 1.766e+00 3.536e+00 1.737e+00 1.624e-03 -6.439e-03 7.151e-03
120 1 1.763e+00 3.528e+00 -1.781e+00 -2.647e-03 7.239e-04 -1.585e-03
121 1 3.523e+00 1.770e+00 -1.781e+00 -7.217e-04 3.473e-03 -3.934e-03
122 1 -3.507e+00 -1.739e+00 -1.781e+00 3.646e-04 -3.036e-03 1.327e-02
123 1 -3.507e+00 1.768e+00 -1.784e+00 1.772e-03 -7.173e-04 3.133e-03
124 1 -1.759e+00 8.380e-03 1.737e+00 -2.410e-02 -4.759e-02 -6.276e-02
125 1 -1.755e+00 -1.738e+00 6.325e-03 1.340e-01 5.752e-02 -5.693e-03
126 1 1.758e+00 1.007e-02 5.252e+00 1.501e-03 9.299e-04 2.464e-03
127 1 -2.134e-05 1.767e+00 5.244e+00 2.551e-03 1.799e-04 1.172e-02
128 1 -2.511e-03 -1.741e+00 5.259e+00 -7.473e-03 -3.595e-03 -1.125e-02
129 1 -1.753e+00 1.387e-02 5.245e+00 -3.061e-03 -9.339e-04 9.777e-04
130 1 -3.505e+00 1.273e-02 4.510e-03 -5.764e-03 -2.519e-02 -1.679e-02
131 1 -1.768e+00 1.769e+00 5.041e-04 1.181e-02 6.848e-03 -1.447e-02
132 1 1.751e+00 -1.745e+00 -9.082e-03 2.563e-02 -5.778e-03 -3.240e-02
133 1 2.265e-04 -7.166e-04 3.476e+00 1.178e-03 8.913e-03 -1.200e-02
134 1 -1.007e-04 2.505e-04 3.748e-04 -1.568e-02 -1.764e+00 1.732e+00
135 1 1.758e+00 9.742e-04 1.737e+00 1.829e-02 5.419e-03 2.323e-03
136 1 -1.770e-03 -3.487e+00 -2.731e-03 2.331e-02 9.146e-03 -1.638e-02
137 1 -1.753e+00 1.403e-02 -1.769e+00 -3.269e-04 -3.709e-03 1.431e-03
138 1 -2.292e-03 -1.744e+00 -1.782e+00 -9.537e-05 -1.941e-03 8.723e-03
139 1 1.763e+00 1.769e+00 -1.918e-02 -1.701e-03 1.587e-02 -3.976e-03
140 1 2.500e-03 1.725e-02 -3.543e+00 -2.244e-03 -4.361e-03 -4.316e-03
141 1 1.344e-02 1.781e+00 1.737e+00 -8.045e-03 -7.108e-03 -7.018e-03
142 1 -9.872e-04 1.766e+00 -1.767e+00 8.942e-04 -2.653e-03 -2.324e-03
143 1 1.759e+00 1.163e-02 -1.777e+00 -1.117e-03 6.675e-05 -1.295e-03
144 1 2.287e-03 3.534e+00 -1.817e-02 4.604e-04 -2.793e-03 1.822e-03
145 1 3.523e+00 1.075e-02 -1.975e-02 4.462e-03 1.242e-02 -3.947e-03
ITEM: TIMESTEP
0
ITEM: NUMBER OF ATOMS
74
ITEM: BOX BOUNDS xy xz yz pp pp pp
                     0.00000000000000e+00 1.06200000000000e+01 0.00000000000000e+00
0.00000000000000e+00	1.06200000000000e+01	0.00000000000000e+00
0.00000000000000e+00	1.06200000000000e+01	0.00000000000000e+00
ITEM: ATOMS id type x y z DisplacementX DisplacementY DisplacementZ
146 1 5.280e+00 -1.056e-03 1.748e+00 -4.478e-03 1.382e-03 4.442e-03
147 1 3.495e+00 -2.557e-03 3.494e+00 4.634e-03 -1.370e-02 -1.489e-02
148 1 -1.015e-02 5.283e+00 1.748e+00 -4.018e-04 4.716e-04 9.131e-03
149 1 -1.333e-02 -5.281e+00 1.747e+00 2.381e-03 -2.628e-03 3.247e-03
150 1 1.749e+00 5.281e+00 -1.244e-02 5.782e-04 4.562e-03 4.216e-03
151 1 1.749e+00 -5.279e+00 -1.409e-02 -1.664e-03 -1.851e-03 -2.657e-03
152 1 5.264e+00 -1.587e-03 -1.769e+00 3.997e-03 1.888e-03 2.170e-03
153 1 -5.294e+00 -3.830e-04 1.748e+00 1.148e-03 -1.806e-03 1.619e-03
154 1 -5.293e+00 1.470e-04 -1.773e+00 4.052e-03 -3.438e-03 8.463e-03
155 1 -5.295e+00 1.760e+00 -1.338e-02 -1.194e-04 5.150e-03 3.472e-04
156 1 -5.296e+00 -1.758e+00 -1.235e-02 -1.273e-03 -6.689e-04 -2.578e-03
157 1 -1.225e-02 -5.275e+00 -1.771e+00 -1.286e-03 2.900e-03 7.428e-04
158 1 -1.015e-02 5.278e+00 -1.771e+00 2.933e-03 -1.745e-03 -2.326e-03
159 1 -1.769e+00 5.280e+00 -1.330e-02 3.043e-04 6.266e-03 -3.045e-03
160 1 -1.771e+00 -5.277e+00 -1.174e-02 6.171e-04 3.115e-03 4.544e-03
161 1 5.266e+00 1.754e+00 -1.117e-02 1.468e-03 -4.440e-03 -1.980e-03
162 1 5.267e+00 -1.756e+00 -8.926e-03 2.692e-03 -3.979e-03 -6.441e-04
163 1 3.509e+00 -1.517e-03 -3.533e+00 -2.437e-03 -7.720e-04 -9.902e-03
164 1 -3.534e+00 9.923e-04 3.507e+00 3.319e-03 4.108e-03 3.198e-03
165 1 -3.530e+00 -4.350e-04 -3.533e+00 -3.963e-03 -2.519e-03 -5.349e-03
166 1 -3.531e+00 -3.519e+00 -1.156e-02 1.757e-03 -1.100e-03 4.212e-03
167 1 -3.530e+00 3.518e+00 -1.288e-02 -2.039e-03 7.458e-03 5.653e-04
168 1 -9.851e-03 3.518e+00 -3.533e+00 4.641e-04 -3.742e-03 2.225e-03
169 1 -1.253e-02 -3.517e+00 -3.532e+00 -1.175e-03 3.237e-03 -6.822e-04
170 1 3.505e+00 -3.517e+00 -9.712e-03 2.906e-03 1.194e-03 -6.535e-03
171 1 3.506e+00 3.515e+00 -9.777e-03 2.731e-03 -4.029e-03 -1.983e-03
172 1 -8.838e-03 3.516e+00 3.504e+00 -3.748e-03 -2.632e-03 -4.498e-03
173 1 -1.045e-02 -3.513e+00 3.504e+00 5.414e-03 -3.371e-03 4.087e-03
174 1 1.748e+00 -1.747e+00 3.494e+00 -2.063e-03 -1.270e-02 1.687e-02
175 1 1.749e+00 1.748e+00 3.496e+00 1.360e-02 -7.604e-03 3.772e-03
176 1 3.494e+00 1.747e+00 1.747e+00 1.193e-02 1.846e-02 -7.196e-03
177 1 3.496e+00 -1.747e+00 1.748e+00 -1.841e-03 -4.943e-02 -1.022e-02
178 1 1.748e+00 -1.762e+00 -3.533e+00 1.598e-03 5.706e-03 -2.545e-03
179 1 1.749e+00 1.762e+00 -3.533e+00 4.139e-03 -3.543e-04 -4.547e-03
180 1 -1.768e+00 -1.758e+00 3.505e+00 1.839e-03 3.186e-03 -2.596e-04
181 1 -1.770e+00 1.757e+00 3.505e+00 2.590e-03 -1.478e-03 5.874e-03
182 1 -1.770e+00 -1.757e+00 -3.532e+00 1.492e-03 -4.887e-03 1.489e-03
183 1 -1.770e+00 1.758e+00 -3.533e+00 -2.974e-03 2.639e-03 -4.276e-03
184 1 3.506e+00 1.755e+00 -1.768e+00 -3.029e-03 5.114e-03 -3.201e-04
185 1 3.505e+00 -1.757e+00 -1.771e+00 2.763e-04 -1.039e-04 -3.772e-04
186 1 -3.534e+00 1.760e+00 1.746e+00 8.707e-04 -2.800e-03 -3.161e-03
187 1 -3.536e+00 -1.759e+00 1.746e+00 1.491e-03 -5.621e-04 4.058e-03
188 1 -3.530e+00 1.760e+00 -1.773e+00 1.858e-04 -3.609e-04 -1.029e-03
189 1 -3.530e+00 -1.758e+00 -1.772e+00 1.956e-03 3.116e-03 -1.433e-03
190 1 -1.768e+00 3.518e+00 -1.770e+00 -2.970e-03 -4.106e-03 -1.877e-03
191 1 -1.771e+00 -3.517e+00 -1.770e+00 2.194e-03 5.365e-04 1.834e-03
192 1 1.749e+00 -3.515e+00 -1.768e+00 -1.953e-03 -9.495e-03 -7.836e-03
193 1 1.748e+00 3.516e+00 -1.766e+00 1.579e-03 -3.024e-03 -3.346e-03
194 1 -1.765e+00 3.518e+00 1.746e+00 2.287e-03 5.807e-03 -4.958e-03
195 1 -1.768e+00 -3.513e+00 1.749e+00 1.377e-03 3.305e-04 2.814e-03
196 1 1.750e+00 3.529e+00 1.746e+00 -4.027e-03 -7.711e-03 -2.809e-03
197 1 1.749e+00 -3.530e+00 1.748e+00 4.808e-03 2.966e-03 4.263e-04
198 1 1.749e+00 -1.059e-03 5.277e+00 -5.947e-03 8.568e-03 -1.484e-02
199 1 -1.767e+00 4.347e-04 5.262e+00 5.030e-03 -1.497e-03 2.137e-03
200 1 -9.823e-03 -1.757e+00 5.264e+00 1.035e-04 4.411e-03 -6.771e-03
201 1 -1.112e-02 1.758e+00 5.263e+00 6.804e-04 -2.423e-03 2.794e-03
202 1 -1.492e-03 -1.714e-04 3.911e-04 1.755e+00 -2.260e-02 1.722e+00
203 1 -9.638e-05 4.278e-04 3.495e+00 4.978e-04 -1.012e-02 3.399e-02
204 1 3.495e+00 -7.737e-04 -1.351e-03 7.662e-03 1.611e-02 -1.918e-02
205 1 -7.877e-04 -1.745e+00 1.747e+00 2.951e-02 6.161e-02 4.609e-03
206 1 -1.566e-04 1.748e+00 1.748e+00 -2.535e-02 4.204e-02 -1.694e-02
207 1 1.748e+00 1.747e+00 1.522e-04 9.489e-03 3.467e-03 -6.639e-03
208 1 1.746e+00 -1.747e+00 1.418e-03 4.153e-02 4.931e-02 -1.850e-02
209 1 -8.983e-03 3.518e+00 -9.006e-03 3.548e-03 -1.777e-03 -1.710e-03
210 1 -1.081e-02 -3.516e+00 -9.531e-03 -1.004e-03 -1.500e-03 -8.531e-04
211 1 -1.365e-02 -8.573e-04 -3.534e+00 -4.620e-03 -5.266e-03 3.028e-03
212 1 -3.533e+00 -1.347e-04 -1.356e-02 4.043e-03 -2.202e-03 3.175e-03
213 1 -1.783e+00 2.705e-03 1.746e+00 1.798e-03 6.475e-04 -2.221e-03
214 1 1.747e+00 -6.588e-04 -1.778e+00 4.042e-03 3.016e-03 1.438e-02
215 1 -1.765e+00 -1.216e-04 -1.767e+00 -3.753e-03 7.048e-03 -5.385e-04
216 1 -1.137e-02 -1.758e+00 -1.768e+00 -3.266e-03 -5.056e-03 -4.059e-03
217 1 -7.522e-03 1.757e+00 -1.768e+00 6.670e-03 5.948e-04 7.870e-03
218 1 -1.771e+00 1.759e+00 -8.992e-03 8.294e-03 -2.357e-03 1.026e-03
219 1 -1.769e+00 -1.756e+00 -1.035e-02 4.603e-03 -9.803e-04 -5.632e-03
ITEM: TIMESTEP
0
ITEM: NUMBER OF ATOMS
74
ITEM: BOX BOUNDS xy xz yz pp pp pp
                     0.00000000000000e+00 1.06200000000000e+01 0.00000000000000e+00
0.00000000000000e+00	1.06200000000000e+01	0.00000000000000e+00
0.00000000000000e+00	1.06200000000000e+01	0.00000000000000e+00
ITEM: ATOMS id type x y z DisplacementX DisplacementY DisplacementZ
220 1 -5.277e+00 1.050e-03 1.748e+00 1.609e-03 2.951e-03 -3.064e-03
221 1 -3.498e+00 1.887e-03 3.495e+00 -1.467e-02 1.091e-02 3.662e-03
222 1 1.131e-02 5.279e+00 1.746e+00 3.312e-03 -2.232e-03 4.017e-03
223 1 1.296e-02 -5.279e+00 1.748e+00 -2.244e-03 -3.483e-04 -1.175e-03
224 1 -1.749e+00 5.281e+00 -1.357e-02 -2.189e-03 -2.747e-03 8.589e-03
225 1 -1.749e+00 -5.280e+00 -1.323e-02 4.669e-03 -2.608e-03 7.138e-03
226 1 -5.264e+00 1.128e-03 -1.766e+00 -3.977e-03 -1.725e-04 -8.870e-03
227 1 5.292e+00 1.043e-03 1.749e+00 -3.014e-03 6.095e-03 3.407e-04
228 1 5.294e+00 -3.431e-04 -1.777e+00 6.180e-04 -4.195e-04 -2.494e-03
229 1 5.292e+00 1.759e+00 -1.355e-02 2.114e-03 2.682e-03 2.112e-03
230 1 5.297e+00 -1.760e+00 -1.281e-02 1.197e-03 2.506e-03 1.761e-03
231 1 1.147e-02 -5.277e+00 -1.772e+00 -4.776e-03 -8.974e-03 -9.212e-03
232 1 1.077e-02 5.280e+00 -1.771e+00 -1.115e-03 7.123e-04 -5.753e-04
233 1 1.771e+00 5.277e+00 -1.480e-02 -4.140e-03 2.437e-04 -5.464e-03
234 1 1.771e+00 -5.275e+00 -1.325e-02 -2.830e-04 -3.660e-03 -2.975e-03
235 1 -5.266e+00 1.759e+00 -8.366e-03 7.656e-03 8.103e-04 6.030e-03
236 1 -5.267e+00 -1.756e+00 -1.019e-02 1.747e-03 6.434e-04 -7.434e-03
237 1 -3.507e+00 1.207e-03 -3.532e+00 1.175e-03 -5.339e-03 1.630e-04
238 1 3.535e+00 2.519e-05 3.511e+00 3.483e-03 1.054e-03 6.254e-03
239 1 3.529e+00 -5.855e-04 -3.532e+00 3.420e-03 -1.804e-03 4.344e-03
240 1 3.534e+00 -3.517e+00 -1.057e-02 1.230e-03 2.732e-03 -2.493e-05
241 1 3.530e+00 3.517e+00 -1.400e-02 -2.622e-03 2.299e-03 -1.805e-03
242 1 1.042e-02 3.517e+00 -3.532e+00 -2.700e-03 7.868e-04 2.320e-03
243 1 1.036e-02 -3.515e+00 -3.532e+00 1.340e-03 2.872e-03 -6.944e-03
244 1 -3.507e+00 -3.514e+00 -9.744e-03 -3.983e-03 1.918e-04 -2.216e-03
245 1 -3.505e+00 3.518e+00 -9.375e-03 1.654e-03 2.115e-03 2.596e-03
246 1 1.159e-02 3.516e+00 3.506e+00 1.490e-03 -4.137e-03 6.937e-03
247 1 7.480e-03 -3.513e+00 3.503e+00 -9.270e-04 4.854e-03 -7.710e-04
248 1 -1.748e+00 -1.745e+00 3.493e+00 -8.266e-03 -1.428e-02 5.756e-03
249 1 -1.750e+00 1.747e+00 3.497e+00 2.822e-04 5.775e-03 2.826e-03
250 1 -3.496e+00 1.747e+00 1.748e+00 -1.058e-03 1.236e-02 1.271e-02
251 1 -3.497e+00 -1.747e+00 1.745e+00 2.121e-02 1.345e-02 -2.569e-02
252 1 -1.750e+00 -1.761e+00 -3.532e+00 -3.370e-03 2.131e-04 -4.252e-03
253 1 -1.747e+00 1.760e+00 -3.532e+00 3.194e-04 -2.606e-03 2.867e-04
254 1 1.769e+00 -1.757e+00 3.504e+00 3.415e-03 6.584e-03 1.325e-02
255 1 1.770e+00 1.757e+00 3.504e+00 3.144e-03 -1.341e-03 1.801e-03
256 1 1.771e+00 -1.757e+00 -3.532e+00 1.591e-05 3.679e-04 5.755e-03
257 1 1.769e+00 1.755e+00 -3.533e+00 -4.587e-03 3.280e-04 -5.422e-03
258 1 -3.505e+00 1.760e+00 -1.769e+00 -6.113e-04 4.229e-03 -5.890e-03
259 1 -3.506e+00 -1.756e+00 -1.768e+00 -6.067e-03 -3.888e-03 -8.312e-03
260 1 3.533e+00 1.760e+00 1.749e+00 -3.551e-03 -2.927e-03 -1.841e-03
261 1 3.535e+00 -1.762e+00 1.747e+00 1.328e-02 -4.914e-03 1.018e-02
262 1 3.527e+00 1.757e+00 -1.773e+00 5.061e-03 4.175e-03 1.155e-02
263 1 3.534e+00 -1.761e+00 -1.772e+00 1.995e-03 3.032e-03 -2.142e-04
264 1 1.770e+00 3.518e+00 -1.772e+00 3.842e-04 1.659e-03 4.562e-03
265 1 1.771e+00 -3.515e+00 -1.772e+00 2.354e-03 2.140e-03 -1.118e-03
266 1 -1.748e+00 -3.513e+00 -1.767e+00 -8.255e-03 -2.134e-03 -6.693e-03
267 1 -1.746e+00 3.517e+00 -1.767e+00 4.418e-03 4.571e-03 6.408e-03
268 1 1.768e+00 3.515e+00 1.748e+00 1.031e-03 1.029e-03 -1.184e-03
269 1 1.767e+00 -3.512e+00 1.748e+00 -1.658e-03 -1.684e-03 -2.592e-03
270 1 -1.749e+00 3.531e+00 1.747e+00 -1.636e-03 -7.309e-03 -1.963e-03
271 1 -1.748e+00 -3.530e+00 1.749e+00 -1.046e-03 1.544e-02 -1.718e-03
272 1 -1.749e+00 1.187e-04 5.276e+00 6.939e-05 -3.457e-03 -8.031e-03
273 1 1.769e+00 -1.138e-03 5.263e+00 2.168e-04 -3.138e-04 4.594e-03
274 1 9.546e-03 -1.757e+00 5.265e+00 1.136e-03 -4.735e-03 -5.183e-04
275 1 7.471e-03 1.756e+00 5.265e+00 -2.595e-03 -3.424e-04 5.657e-03
276 1 4.167e-04 1.880e-04 1.290e-03 -1.732e+00 -2.919e-02 1.701e+00
277 1 -7.844e-06 2.661e-04 3.495e+00 5.141e-05 7.683e-03 1.949e-02
278 1 -3.497e+00 2.126e-03 -5.610e-04 -1.845e-03 -1.733e-03 -7.051e-03
279 1 -1.142e-03 -1.748e+00 1.749e+00 -2.084e-02 2.802e-02 -2.486e-02
280 1 6.411e-04 1.746e+00 1.747e+00 2.783e-03 1.258e-04 -9.874e-03
281 1 -1.748e+00 1.748e+00 1.649e-03 1.123e-02 -7.731e-04 -9.535e-03
282 1 -1.749e+00 -1.745e+00 1.519e-04 7.646e-03 -1.679e-02 -2.253e-02
283 1 8.110e-03 3.518e+00 -1.139e-02 -1.709e-03 4.185e-03 8.023e-04
284 1 9.165e-03 -3.515e+00 -9.895e-03 -3.566e-03 -9.313e-04 1.215e-04
285 1 1.428e-02 -8.463e-04 -3.533e+00 -6.298e-03 2.785e-03 -8.434e-03
286 1 3.534e+00 -1.965e-03 -1.354e-02 -3.405e-04 4.160e-03 -1.063e-02
287 1 1.784e+00 -1.171e-03 1.750e+00 -4.062e-03 -4.784e-03 -1.083e-03
288 1 -1.748e+00 -7.365e-04 -1.780e+00 -3.939e-04 -8.010e-04 -4.414e-03
289 1 1.769e+00 -8.296e-04 -1.768e+00 2.478e-04 7.200e-03 -5.781e-03
290 1 1.157e-02 -1.757e+00 -1.768e+00 -3.078e-03 -6.766e-03 1.504e-03
291 1 8.985e-03 1.757e+00 -1.770e+00 1.234e-03 4.021e-03 -2.463e-03
292 1 1.769e+00 1.757e+00 -1.047e-02 -3.098e-03 6.565e-03 -4.714e-03
293 1 1.769e+00 -1.755e+00 -1.168e-02 7.720e-03 -3.303e-03 4.311e-03
ITEM: TIMESTEP
0
ITEM: NUMBER OF ATOMS
74
ITEM: BOX BOUNDS xy xz yz pp pp pp
                     0.00000000000000e+00 1.06200000000000e+01 0.00000000000000e+00
0.00000000000000e+00	1.06200000000000e+01	0.00000000000000e+00
0.00000000000000e+00	1.06200000000000e+01	0.00000000000000e+00
ITEM: ATOMS id type x y z DisplacementX DisplacementY DisplacementZ
294 1 -1.681e-03 -5.276e+00 1.749e+00 1.490e-03 5.449e-03 4.207e-03
295 1 1.883e-04 -3.494e+00 3.494e+00 2.313e-02 -7.559e-03 4.717e-03
296 1 5.283e+00 1.286e-02 1.748e+00 -8.223e-04 -3.132e-03 -4.099e-03
297 1 -5.283e+00 1.567e-02 1.746e+00 7.090e-03 -2.074e-03 5.753e-03
298 1 5.282e+00 -1.747e+00 -1.617e-02 -2.845e-03 -2.582e-03 -1.321e-03
299 1 -5.284e+00 -1.744e+00 -1.392e-02 -2.137e-03 -3.133e-03 -1.286e-03
300 1 -3.854e-04 -5.260e+00 -1.765e+00 1.231e-03 -3.752e-03 -2.023e-03
301 1 3.225e-03 5.296e+00 1.747e+00 -1.737e-03 5.837e-04 -4.183e-03
302 1 1.673e-03 5.296e+00 -1.775e+00 2.109e-03 3.541e-03 3.077e-03
303 1 1.762e+00 5.297e+00 -1.087e-02 -3.225e-03 4.979e-04 -5.295e-03
304 1 -1.760e+00 5.295e+00 -1.574e-02 -1.567e-03 2.320e-03 -7.365e-03
305 1 -5.278e+00 1.416e-02 -1.771e+00 4.196e-03 -6.719e-03 -3.599e-03
306 1 5.278e+00 1.056e-02 -1.774e+00 -3.630e-03 -4.761e-03 -2.693e-03
307 1 5.276e+00 1.772e+00 -1.198e-02 8.516e-04 3.745e-04 -6.442e-04
308 1 -5.280e+00 1.772e+00 -1.338e-02 1.325e-03 -1.048e-04 2.439e-03
309 1 1.755e+00 -5.262e+00 -1.121e-02 -9.488e-04 -4.357e-03 5.238e-03
310 1 -1.759e+00 -5.263e+00 -9.156e-03 8.508e-04 4.133e-03 -4.815e-04
311 1 -9.296e-04 -3.508e+00 -3.532e+00 -2.450e-03 -5.890e-03 5.670e-04
312 1 2.650e-04 3.535e+00 3.507e+00 2.478e-03 -1.270e-03 -7.205e-03
313 1 7.418e-04 3.531e+00 -3.532e+00 -1.502e-03 2.383e-03 7.902e-04
314 1 -3.517e+00 3.533e+00 -1.186e-02 1.337e-03 1.806e-04 -9.251e-04
315 1 3.519e+00 3.529e+00 -1.392e-02 -2.078e-03 2.266e-03 -2.024e-03
316 1 3.516e+00 1.077e-02 -3.532e+00 -4.111e-04 8.428e-04 -4.542e-03
317 1 -3.517e+00 1.368e-02 -3.532e+00 -4.988e-04 1.747e-03 5.283e-03
318 1 -3.516e+00 -3.502e+00 -9.031e-03 -3.267e-03 -1.757e-03 -3.936e-03
319 1 3.519e+00 -3.506e+00 -1.070e-02 -2.453e-04 2.310e-03 2.433e-03
320 1 3.519e+00 7.935e-03 3.505e+00 -1.674e-03 3.276e-03 6.159e-03
321 1 -3.516e+00 1.040e-02 3.505e+00 3.191e-03 -4.537e-03 4.799e-03
322 1 -1.748e+00 -1.747e+00 3.494e+00 8.333e-03 -1.787e-02 2.594e-02
323 1 1.750e+00 -1.748e+00 3.495e+00 -2.106e-03 9.452e-03 1.622e-02
324 1 1.748e+00 -3.494e+00 1.747e+00 1.535e-02 2.575e-02 2.046e-03
325 1 -1.750e+00 -3.493e+00 1.746e+00 3.008e-02 4.083e-02 -4.547e-03
326 1 -1.763e+00 -1.747e+00 -3.535e+00 -1.605e-03 -6.600e-04 -7.651e-03
327 1 1.762e+00 -1.749e+00 -3.534e+00 6.116e-04 -4.148e-03 1.172e-03
328 1 -1.756e+00 1.770e+00 3.506e+00 4.154e-04 -1.348e-03 3.977e-03
329 1 1.756e+00 1.769e+00 3.506e+00 -2.569e-03 1.753e-04 -3.950e-03
330 1 -1.758e+00 1.771e+00 -3.533e+00 1.947e-03 -3.502e-03 7.240e-03
331 1 1.758e+00 1.769e+00 -3.533e+00 3.114e-03 -2.553e-03 -3.845e-03
332 1 1.758e+00 -3.504e+00 -1.767e+00 4.626e-03 -1.622e-03 3.132e-03
333 1 -1.757e+00 -3.503e+00 -1.768e+00 -3.374e-04 -3.791e-03 -3.494e-03
334 1 1.759e+00 3.533e+00 1.747e+00 -1.673e-03 -7.333e-04 -6.133e-04
335 1 -1.758e+00 3.537e+00 1.747e+00 1.539e-03 1.107e-04 -5.882e-04
336 1 1.758e+00 3.532e+00 -1.772e+00 -7.785e-04 5.942e-03 -2.343e-03
337 1 -1.759e+00 3.532e+00 -1.772e+00 7.944e-04 -1.203e-03 3.921e-05
338 1 3.517e+00 1.769e+00 -1.774e+00 -4.126e-03 3.850e-03 -7.341e-03
339 1 -3.516e+00 1.773e+00 -1.770e+00 5.750e-03 2.549e-03 -4.306e-03
340 1 -3.517e+00 -1.744e+00 -1.769e+00 -6.323e-05 1.347e-03 -5.371e-03
341 1 3.517e+00 -1.750e+00 -1.768e+00 -3.163e-03 -1.841e-03 -3.963e-03
342 1 3.515e+00 1.766e+00 1.746e+00 4.389e-03 3.923e-03 6.634e-03
343 1 -3.516e+00 1.771e+00 1.746e+00 2.310e-03 1.923e-03 2.102e-03
344 1 3.532e+00 -1.749e+00 1.747e+00 -9.210e-03 3.544e-03 -3.817e-03
345 1 -3.530e+00 -1.746e+00 1.747e+00 5.677e-03 -1.117e-03 -5.806e-03
346 1 1.463e-04 -1.746e+00 5.277e+00 -1.276e-03 1.809e-03 -1.894e-02
347 1 1.008e-03 1.767e+00 5.262e+00 -4.804e-03 -9.950e-04 -8.838e-04
348 1 -1.757e+00 1.130e-02 5.263e+00 9.755e-04 2.153e-03 6.499e-03
349 1 1.758e+00 9.996e-03 5.264e+00 -1.844e-03 -9.783e-06 -5.215e-04
350 1 4.400e-04 4.323e-04 -2.526e-04 6.058e-02 -1.849e+00 1.709e+00
351 1 1.633e-04 -4.867e-04 3.493e+00 -9.972e-04 1.529e-02 2.286e-03
352 1 -2.518e-03 -3.494e+00 -1.058e-03 2.815e-03 1.667e-02 -8.598e-03
353 1 -1.749e+00 7.716e-04 1.746e+00 1.362e-02 4.712e-03 3.524e-02
354 1 1.748e+00 1.343e-03 1.747e+00 1.222e-02 -5.965e-03 -6.306e-03
355 1 1.747e+00 -1.748e+00 -1.912e-03 1.338e-02 -2.251e-03 -1.454e-02
356 1 -1.749e+00 -1.745e+00 -2.214e-03 -1.888e-03 -1.071e-02 -7.946e-03
357 1 3.519e+00 9.823e-03 -1.202e-02 2.906e-03 9.853e-04 1.449e-04
358 1 -3.519e+00 1.087e-02 -9.766e-03 -2.862e-03 -1.203e-04 -9.083e-04
359 1 8.816e-05 1.499e-02 -3.534e+00 -2.671e-03 -3.005e-03 7.232e-04
360 1 3.557e-03 3.535e+00 -1.380e-02 1.293e-03 -3.081e-03 -1.603e-03
361 1 2.178e-03 1.782e+00 1.747e+00 -2.806e-03 -5.999e-03 -3.244e-03
362 1 -9.879e-04 -1.748e+00 -1.783e+00 7.656e-03 -6.766e-04 5.659e-03
363 1 7.583e-04 1.769e+00 -1.766e+00 -2.875e-03 8.235e-05 3.047e-03
364 1 -1.757e+00 1.167e-02 -1.769e+00 4.980e-04 -2.652e-03 -3.513e-03
365 1 1.757e+00 9.370e-03 -1.770e+00 6.266e-04 2.406e-04 -4.601e-03
366 1 1.757e+00 1.770e+00 -1.151e-02 4.755e-03 3.988e-03 1.588e-03
367 1 -1.758e+00 1.772e+00 -1.064e-02 -1.213e-05 -1.899e-03 9.011e-04
ITEM: TIMESTEP
0
ITEM: NUMBER OF ATOMS
73
ITEM: BOX BOUNDS xy xz yz pp pp pp
                     0.00000000000000e+00 1.06200000000000e+01 0.00000000000000e+00
0.00000000000000e+00	1.06200000000000e+01	0.00000000000000e+00
0.00000000000000e+00	1.06200000000000e+01	0.00000000000000e+00
ITEM: ATOMS id type x y z DisplacementX DisplacementY DisplacementZ
368 1 -2.249e-03 -5.255e+00 1.742e+00 8.181e-02 8.540e-02 -3.568e-02
369 1 1.747e+00 -5.256e+00 3.739e-04 -1.582e-02 -4.309e-02 1.109e-02
370 1 -7.663e-04 -3.507e+00 3.484e+00 -9.903e-03 2.021e-03 -1.099e-03
371 1 3.485e+00 -1.199e-03 3.480e+00 8.822e-03 -1.527e-03 1.780e-02
372 1 3.497e+00 -3.510e+00 9.395e-03 1.442e-01 1.036e-02 3.878e-02
373 1 -1.179e-02 -5.269e+00 -1.770e+00 1.159e-03 4.433e-05 -2.955e-03
374 1 -1.769e+00 -5.267e+00 -1.672e-02 -2.304e-04 -3.700e-04 -3.883e-03
375 1 5.253e+00 -3.396e-03 -1.765e+00 1.769e-03 3.239e-03 -6.920e-03
376 1 5.255e+00 1.760e+00 -1.452e-02 5.187e-03 -1.536e-03 8.709e-03
377 1 1.742e+00 5.286e+00 -1.958e-02 -1.469e-03 2.171e-03 6.487e-03
378 1 -1.778e+00 5.279e+00 -1.747e-02 -1.774e-03 3.494e-03 -1.828e-03
379 1 -5.298e+00 1.764e+00 -1.807e-02 1.679e-03 2.373e-03 -5.839e-03
380 1 -5.296e+00 -1.754e+00 -2.009e-02 -3.270e-03 -6.108e-04 4.678e-03
381 1 -2.067e-02 5.286e+00 1.744e+00 -1.771e-03 -6.260e-03 -2.232e-03
382 1 -1.709e-02 5.280e+00 -1.779e+00 -1.340e-03 -2.609e-03 -5.216e-03
383 1 -5.296e+00 4.495e-03 -1.779e+00 -2.318e-03 -3.752e-03 2.121e-04
384 1 -5.297e+00 5.590e-03 1.743e+00 3.232e-04 -8.219e-03 1.904e-03
385 1 5.267e+00 1.150e-02 1.742e+00 -1.819e-03 -8.466e-03 1.152e-03
386 1 5.252e+00 -1.770e+00 5.024e-03 3.739e-03 3.976e-05 -1.007e-02
387 1 3.503e+00 -1.147e-03 -3.538e+00 -3.672e-03 1.088e-03 -3.105e-03
388 1 -1.560e-02 3.520e+00 3.499e+00 5.704e-05 5.230e-03 -1.909e-03
389 1 -1.546e-02 3.520e+00 -3.536e+00 5.189e-05 -2.735e-03 7.129e-04
390 1 -3.531e+00 5.804e-03 -3.537e+00 -2.851e-04 4.180e-03 -4.449e-03
391 1 -3.538e+00 4.191e-03 3.505e+00 -2.906e-03 5.092e-03 -3.399e-03
392 1 -1.185e-02 -3.512e+00 -3.536e+00 3.392e-04 -2.858e-03 9.651e-04
393 1 3.499e+00 3.521e+00 -1.587e-02 -2.286e-03 -1.392e-03 -3.493e-03
394 1 -3.536e+00 3.521e+00 -1.744e-02 3.462e-03 2.401e-03 4.389e-03
395 1 1.746e+00 -1.757e+00 3.474e+00 -4.089e-02 -1.015e-01 1.045e-01
396 1 -3.533e+00 -3.512e+00 -2.082e-02 -1.353e-03 -5.604e-03 -8.397e-04
397 1 3.491e+00 -1.763e+00 1.741e+00 -6.725e-02 -9.196e-02 -5.092e-02
398 1 1.742e+00 1.751e+00 3.489e+00 2.235e-03 3.698e-03 8.917e-04
399 1 3.486e+00 1.755e+00 1.741e+00 -4.271e-03 4.463e-03 2.532e-02
400 1 1.747e+00 -1.757e+00 -3.538e+00 3.944e-04 1.345e-03 3.148e-03
401 1 1.741e+00 1.760e+00 -3.535e+00 2.173e-03 -3.845e-03 -3.285e-04
402 1 -1.770e+00 -1.755e+00 -3.538e+00 -1.960e-04 -3.034e-03 4.054e-03
403 1 -1.772e+00 1.760e+00 3.500e+00 -2.900e-05 -1.584e-03 1.042e-03
404 1 -1.773e+00 1.762e+00 -3.537e+00 -2.278e-03 5.233e-03 -3.048e-03
405 1 -1.771e+00 -1.753e+00 3.496e+00 8.040e-03 -5.788e-03 1.802e-02