ITEM: TIMESTEP
0
ITEM: NUMBER OF ATOMS
89
ITEM: BOX BOUNDS xy xz yz pp pp pp
                     0.00000000000000e+00 2.81697006000000e+01 0.00000000000000e+00
0.00000000000000e+00	2.81697006000000e+01	0.00000000000000e+00
0.00000000000000e+00	2.81697006000000e+01	0.00000000000000e+00
ITEM: ATOMS id type x y z DisplacementX DisplacementY DisplacementZ
1091 1 -1.767e-09 -5.979e+00 1.105e-08 -1.395e-02 -7.929e-03 6.197e-06
1255 1 3.546e+00 -2.489e+00 3.546e+00 -2.043e-02 -2.756e-02 2.020e-02
2047 1 -3.546e+00 -2.489e+00 -3.546e+00 -2.304e-03 5.142e-03 1.862e-03
1279 1 -3.546e+00 -2.489e+00 3.546e+00 -2.319e-03 5.127e-03 -1.850e-03
2023 1 3.546e+00 -2.489e+00 -3.546e+00 -2.043e-02 -2.755e-02 -2.017e-02
1224 1 1.778e+00 -4.255e+00 3.544e+00 -1.878e-02 2.420e-02 -1.971e-02
1222 1 3.544e+00 -4.255e+00 1.778e+00 -1.835e-02 -1.818e-02 3.257e-02
1220 1 -1.778e+00 -4.255e+00 3.544e+00 -4.160e-03 3.176e-03 1.511e-03
1094 1 3.544e+00 -4.255e+00 -1.778e+00 -1.835e-02 -1.817e-02 -3.255e-02
1118 1 -3.544e+00 -4.255e+00 -1.778e+00 -3.675e-03 5.159e-03 3.719e-04
1988 1 -1.778e+00 -4.255e+00 -3.544e+00 -4.145e-03 3.191e-03 -1.501e-03
1246 1 -3.544e+00 -4.255e+00 1.778e+00 -3.685e-03 5.152e-03 -3.657e-04
1992 1 1.778e+00 -4.255e+00 -3.544e+00 -1.877e-02 2.421e-02 1.972e-02
931 1 1.571e-08 4.668e+00 -3.619e+00 -5.445e-03 -7.172e-02 7.431e-02
63 1 -3.619e+00 4.668e+00 2.276e-08 5.531e-02 -4.991e-02 1.019e-05
39 1 3.619e+00 4.668e+00 2.596e-08 -8.617e-02 -9.537e-02 2.033e-05
163 1 1.889e-08 4.668e+00 3.619e+00 -5.457e-03 -7.171e-02 -7.428e-02
137 1 5.302e+00 1.053e+00 1.770e+00 1.135e-02 3.435e-02 2.399e-02
261 1 1.770e+00 1.053e+00 5.302e+00 -1.140e-02 1.090e-02 1.965e-04
901 1 1.770e+00 1.053e+00 -5.302e+00 -1.140e-02 1.091e-02 -1.774e-04
157 1 -5.302e+00 1.053e+00 1.770e+00 2.223e-02 3.470e-03 -7.930e-03
897 1 -1.770e+00 1.053e+00 -5.302e+00 -9.518e-03 2.130e-02 -4.583e-03
29 1 -5.302e+00 1.053e+00 -1.770e+00 2.224e-02 3.474e-03 7.940e-03
9 1 5.302e+00 1.053e+00 -1.770e+00 1.135e-02 3.436e-02 -2.395e-02
257 1 -1.770e+00 1.053e+00 5.302e+00 -9.537e-03 2.129e-02 4.597e-03
1378 1 7.307e-09 -7.211e-01 5.280e+00 -1.478e-02 1.469e-02 2.165e-04
1132 1 5.280e+00 -7.211e-01 1.832e-08 -2.664e-02 1.338e-02 1.792e-05
1152 1 -5.280e+00 -7.211e-01 1.676e-08 7.864e-03 1.529e-02 5.393e-06
2018 1 5.247e-09 -7.211e-01 -5.280e+00 -1.476e-02 1.471e-02 -2.022e-04
32 1 -5.280e+00 2.826e+00 1.964e-08 -3.161e-03 -4.230e-03 7.528e-06
898 1 1.034e-08 2.826e+00 -5.280e+00 -5.262e-03 1.061e-02 -2.318e-02
258 1 1.231e-08 2.826e+00 5.280e+00 -5.274e-03 1.061e-02 2.320e-02
12 1 5.280e+00 2.826e+00 2.111e-08 9.357e-02 8.383e-02 2.014e-05
33 1 -1.794e+00 4.607e+00 -1.794e+00 1.399e-02 -6.897e-03 1.365e-02
165 1 1.794e+00 4.607e+00 1.794e+00 -3.565e-02 -1.190e-02 -2.394e-02
37 1 1.794e+00 4.607e+00 -1.794e+00 -3.565e-02 -1.190e-02 2.398e-02
161 1 -1.794e+00 4.607e+00 1.794e+00 1.398e-02 -6.895e-03 -1.362e-02
135 1 3.524e+00 1.053e+00 3.524e+00 4.194e-04 5.067e-02 4.180e-02
927 1 -3.524e+00 1.053e+00 -3.524e+00 -2.435e-02 1.944e-02 -1.995e-02
903 1 3.524e+00 1.053e+00 -3.524e+00 4.199e-04 5.068e-02 -4.177e-02
159 1 -3.524e+00 1.053e+00 3.524e+00 -2.436e-02 1.943e-02 1.997e-02
35 1 2.073e-08 4.547e+00 3.047e-08 -1.542e-02 2.647e-02 1.759e-05
30 1 -3.566e+00 2.819e+00 -1.810e+00 1.665e-02 1.945e-02 3.137e-02
900 1 -1.810e+00 2.819e+00 -3.566e+00 2.661e-02 2.102e-02 1.956e-02
158 1 -3.566e+00 2.819e+00 1.810e+00 1.664e-02 1.945e-02 -3.135e-02
904 1 1.810e+00 2.819e+00 -3.566e+00 -5.122e-02 -8.802e-04 4.121e-02
136 1 1.810e+00 2.819e+00 3.566e+00 -5.122e-02 -8.819e-04 -4.117e-02
134 1 3.566e+00 2.819e+00 1.810e+00 -4.126e-02 3.979e-02 -3.474e-04
132 1 -1.810e+00 2.819e+00 3.566e+00 2.660e-02 2.102e-02 -1.954e-02
6 1 3.566e+00 2.819e+00 -1.810e+00 -4.126e-02 3.979e-02 3.891e-04
1096 1 1.768e+00 -4.219e+00 1.229e-08 -8.611e-03 -4.136e-02 1.222e-05
1218 1 4.415e-10 -4.219e+00 1.768e+00 -6.363e-03 -5.247e-02 4.141e-02
1090 1 1.681e-09 -4.219e+00 -1.768e+00 -6.357e-03 -5.246e-02 -4.139e-02
1092 1 -1.768e+00 -4.219e+00 1.333e-08 -8.657e-02 -1.045e-01 6.408e-06
1127 1 3.619e+00 -2.563e+00 1.715e-08 5.643e-02 -1.821e-01 1.662e-05
1251 1 5.158e-09 -2.563e+00 3.619e+00 -6.779e-03 4.635e-02 -5.240e-02
2019 1 1.350e-09 -2.563e+00 -3.619e+00 -6.767e-03 4.637e-02 5.243e-02
1151 1 -3.619e+00 -2.563e+00 1.353e-08 1.066e-01 8.957e-02 6.910e-06
2049 1 2.869e-08 2.105e+00 5.117e-08 -1.570e-01 -7.726e-01 1.671e-05
3 1 0.000e+00 0.000e+00 0.000e+00 7.070e-01 -7.004e-01 2.502e-05
1256 1 1.810e+00 -7.133e-01 3.566e+00 -5.094e-02 6.794e-03 -1.191e-02
1254 1 3.566e+00 -7.133e-01 1.810e+00 1.075e-01 7.002e-03 2.255e-01
1252 1 -1.810e+00 -7.133e-01 3.566e+00 -4.634e-02 7.326e-03 5.269e-02
1126 1 3.566e+00 -7.133e-01 -1.810e+00 1.075e-01 7.011e-03 -2.255e-01
1150 1 -3.566e+00 -7.133e-01 -1.810e+00 5.358e-02 7.736e-03 4.221e-02
2020 1 -1.810e+00 -7.133e-01 -3.566e+00 -4.632e-02 7.338e-03 -5.266e-02
1278 1 -3.566e+00 -7.133e-01 1.810e+00 5.357e-02 7.731e-03 -4.219e-02
2024 1 1.810e+00 -7.133e-01 -3.566e+00 -5.094e-02 6.803e-03 1.193e-02
1250 1 1.516e-08 -8.618e-01 2.035e+00 -1.552e-01 1.546e-01 -4.411e-05
1128 1 2.035e+00 -8.618e-01 2.745e-08 7.771e-01 1.508e-01 1.712e-05
1124 1 -2.035e+00 -8.618e-01 1.168e-08 3.005e-01 1.567e-01 1.461e-05
1122 1 -1.149e-09 -8.618e-01 -2.035e+00 -1.552e-01 1.546e-01 8.583e-05
4 1 -2.035e+00 2.967e+00 1.330e-08 1.768e-01 -5.337e-02 1.519e-05
2 1 9.047e-09 2.967e+00 -2.035e+00 -7.624e-03 -1.067e-01 2.243e-01
130 1 2.458e-08 2.967e+00 2.035e+00 -7.631e-03 -1.067e-01 -2.243e-01
8 1 2.035e+00 2.967e+00 3.037e-08 -2.765e-01 -1.197e-01 2.073e-05
899 1 7.694e-09 1.053e+00 -3.554e+00 -7.338e-03 5.072e-02 -1.214e-02
31 1 -3.554e+00 1.053e+00 1.692e-08 4.107e-02 9.498e-03 1.166e-05
7 1 3.554e+00 1.053e+00 2.340e-08 1.181e-01 2.737e-01 2.140e-05
131 1 1.416e-08 1.053e+00 3.554e+00 -7.345e-03 5.072e-02 1.217e-02
1253 1 1.794e+00 -2.502e+00 1.794e+00 -3.453e-02 1.200e-01 -1.190e-01
1249 1 -1.794e+00 -2.502e+00 1.794e+00 -7.229e-04 1.576e-03 -2.667e-04
1125 1 1.794e+00 -2.502e+00 -1.794e+00 -3.452e-02 1.200e-01 1.190e-01
1121 1 -1.794e+00 -2.502e+00 -1.794e+00 -7.153e-04 1.583e-03 2.880e-04
1123 1 1.914e-09 -2.441e+00 1.129e-08 -1.535e-01 -2.963e-01 1.289e-05
133 1 1.675e+00 1.053e+00 1.675e+00 8.304e-02 -8.346e-02 2.840e-04
1 1 -1.675e+00 1.053e+00 -1.675e+00 -1.198e-01 3.564e-02 -1.191e-01
5 1 1.675e+00 1.053e+00 -1.675e+00 8.304e-02 -8.346e-02 -2.441e-04
129 1 -1.675e+00 1.053e+00 1.675e+00 -1.198e-01 3.563e-02 1.191e-01
ITEM: TIMESTEP
0
ITEM: NUMBER OF ATOMS
89
ITEM: BOX BOUNDS xy xz yz pp pp pp
                     0.00000000000000e+00 2.81697006000000e+01 0.00000000000000e+00
0.00000000000000e+00	2.81697006000000e+01	0.00000000000000e+00
0.00000000000000e+00	2.81697006000000e+01	0.00000000000000e+00
ITEM: ATOMS id type x y z DisplacementX DisplacementY DisplacementZ
1091 1 -1.767e-09 -5.979e+00 1.105e-08 1.907e-06 -8.835e-03 8.489e-04
1255 1 3.546e+00 -2.489e+00 3.546e+00 6.292e-04 -4.292e-03 -3.407e-03
2047 1 -3.546e+00 -2.489e+00 -3.546e+00 -2.098e-04 -3.105e-03 4.631e-03
1279 1 -3.546e+00 -2.489e+00 3.546e+00 -6.275e-04 -4.293e-03 -3.408e-03
2023 1 3.546e+00 -2.489e+00 -3.546e+00 2.131e-04 -3.105e-03 4.629e-03
1224 1 1.778e+00 -4.255e+00 3.544e+00 2.533e-03 1.463e-03 -4.653e-03
1222 1 3.544e+00 -4.255e+00 1.778e+00 3.126e-04 4.923e-03 -1.324e-02
1220 1 -1.778e+00 -4.255e+00 3.544e+00 -2.533e-03 1.463e-03 -4.653e-03
1094 1 3.544e+00 -4.255e+00 -1.778e+00 -4.339e-05 5.714e-03 1.476e-02
1118 1 -3.544e+00 -4.255e+00 -1.778e+00 4.578e-05 5.718e-03 1.476e-02
1988 1 -1.778e+00 -4.255e+00 -3.544e+00 -2.167e-03 2.644e-03 6.271e-03
1246 1 -3.544e+00 -4.255e+00 1.778e+00 -3.128e-04 4.923e-03 -1.324e-02
1992 1 1.778e+00 -4.255e+00 -3.544e+00 2.170e-03 2.640e-03 6.271e-03
931 1 1.571e-08 4.668e+00 -3.619e+00 3.015e-07 3.506e-03 2.682e-03
63 1 -3.619e+00 4.668e+00 2.276e-08 9.340e-02 -9.116e-02 -3.891e-04
39 1 3.619e+00 4.668e+00 2.596e-08 -9.340e-02 -9.116e-02 -3.891e-04
163 1 1.889e-08 4.668e+00 3.619e+00 0.000e+00 1.594e-03 -4.265e-03
137 1 5.302e+00 1.053e+00 1.770e+00 -2.115e-02 -3.307e-04 3.741e-03
261 1 1.770e+00 1.053e+00 5.302e+00 -2.322e-03 -9.631e-04 -3.079e-02
901 1 1.770e+00 1.053e+00 -5.302e+00 -2.319e-03 6.917e-04 3.099e-02
157 1 -5.302e+00 1.053e+00 1.770e+00 2.115e-02 -3.324e-04 3.741e-03
897 1 -1.770e+00 1.053e+00 -5.302e+00 2.319e-03 6.912e-04 3.099e-02
29 1 -5.302e+00 1.053e+00 -1.770e+00 2.118e-02 1.867e-04 -3.492e-03
9 1 5.302e+00 1.053e+00 -1.770e+00 -2.118e-02 1.884e-04 -3.492e-03
257 1 -1.770e+00 1.053e+00 5.302e+00 2.321e-03 -9.637e-04 -3.079e-02
1378 1 7.307e-09 -7.211e-01 5.280e+00 6.731e-07 5.381e-03 -8.368e-03
1132 1 5.280e+00 -7.211e-01 1.832e-08 2.293e-02 3.511e-03 4.416e-04
1152 1 -5.280e+00 -7.211e-01 1.676e-08 -2.293e-02 3.510e-03 4.414e-04
2018 1 5.247e-09 -7.211e-01 -5.280e+00 1.247e-06 6.975e-03 9.136e-03
32 1 -5.280e+00 2.826e+00 1.964e-08 -2.296e-02 -3.618e-03 -1.755e-04
898 1 1.034e-08 2.826e+00 -5.280e+00 3.982e-07 -5.593e-03 8.669e-03
258 1 1.231e-08 2.826e+00 5.280e+00 0.000e+00 -7.264e-03 -8.977e-03
12 1 5.280e+00 2.826e+00 2.111e-08 2.296e-02 -3.617e-03 -1.755e-04
33 1 -1.794e+00 4.607e+00 -1.794e+00 -1.628e-02 1.175e-02 2.809e-02
165 1 1.794e+00 4.607e+00 1.794e+00 1.569e-02 1.062e-02 -2.893e-02
37 1 1.794e+00 4.607e+00 -1.794e+00 1.628e-02 1.176e-02 2.809e-02
161 1 -1.794e+00 4.607e+00 1.794e+00 -1.569e-02 1.062e-02 -2.893e-02
135 1 3.524e+00 1.053e+00 3.524e+00 9.440e-02 -7.337e-04 9.070e-02
927 1 -3.524e+00 1.053e+00 -3.524e+00 -9.432e-02 5.459e-04 -9.042e-02
903 1 3.524e+00 1.053e+00 -3.524e+00 9.432e-02 5.474e-04 -9.042e-02
159 1 -3.524e+00 1.053e+00 3.524e+00 -9.440e-02 -7.350e-04 9.070e-02
35 1 2.073e-08 4.547e+00 3.047e-08 3.650e-07 5.957e-02 -3.128e-04
30 1 -3.566e+00 2.819e+00 -1.810e+00 -6.371e-04 4.391e-02 4.384e-02
900 1 -1.810e+00 2.819e+00 -3.566e+00 1.539e-02 2.862e-02 1.189e-02
158 1 -3.566e+00 2.819e+00 1.810e+00 -7.687e-04 4.355e-02 -4.429e-02
904 1 1.810e+00 2.819e+00 -3.566e+00 -1.538e-02 2.862e-02 1.189e-02
136 1 1.810e+00 2.819e+00 3.566e+00 -1.567e-02 2.741e-02 -1.220e-02
134 1 3.566e+00 2.819e+00 1.810e+00 7.694e-04 4.355e-02 -4.429e-02
132 1 -1.810e+00 2.819e+00 3.566e+00 1.567e-02 2.741e-02 -1.220e-02
6 1 3.566e+00 2.819e+00 -1.810e+00 6.387e-04 4.391e-02 4.384e-02
1096 1 1.768e+00 -4.219e+00 1.229e-08 2.875e-03 -3.032e-02 6.958e-04
1218 1 4.415e-10 -4.219e+00 1.768e+00 1.665e-06 -8.223e-03 6.872e-03
1090 1 1.681e-09 -4.219e+00 -1.768e+00 1.935e-06 -8.039e-03 -5.360e-03
1092 1 -1.768e+00 -4.219e+00 1.333e-08 -2.873e-03 -3.032e-02 6.956e-04
1127 1 3.619e+00 -2.563e+00 1.715e-08 -9.326e-02 9.088e-02 6.144e-04
1251 1 5.158e-09 -2.563e+00 3.619e+00 1.316e-06 -3.864e-03 -2.170e-03
2019 1 1.350e-09 -2.563e+00 -3.619e+00 1.997e-06 -1.885e-03 4.377e-03
1151 1 -3.619e+00 -2.563e+00 1.353e-08 9.326e-02 9.088e-02 6.143e-04
2049 1 2.869e-08 2.105e+00 5.117e-08 0.000e+00 -1.051e+00 -1.052e+00
3 1 0.000e+00 0.000e+00 0.000e+00 8.317e-07 1.050e+00 1.053e+00
1256 1 1.810e+00 -7.133e-01 3.566e+00 -1.546e-02 -2.885e-02 -1.179e-02
1254 1 3.566e+00 -7.133e-01 1.810e+00 7.050e-04 -4.415e-02 -4.356e-02
1252 1 -1.810e+00 -7.133e-01 3.566e+00 1.546e-02 -2.885e-02 -1.179e-02
1126 1 3.566e+00 -7.133e-01 -1.810e+00 6.938e-04 -4.366e-02 4.455e-02
1150 1 -3.566e+00 -7.133e-01 -1.810e+00 -6.905e-04 -4.366e-02 4.455e-02
2020 1 -1.810e+00 -7.133e-01 -3.566e+00 1.565e-02 -2.766e-02 1.246e-02
1278 1 -3.566e+00 -7.133e-01 1.810e+00 -7.038e-04 -4.415e-02 -4.356e-02
2024 1 1.810e+00 -7.133e-01 -3.566e+00 -1.565e-02 -2.766e-02 1.246e-02
1250 1 1.516e-08 -8.618e-01 2.035e+00 1.107e-06 -1.232e-01 -1.204e-01
1128 1 2.035e+00 -8.618e-01 2.745e-08 -3.590e-01 2.385e-01 4.581e-04
1124 1 -2.035e+00 -8.618e-01 1.168e-08 3.590e-01 2.385e-01 4.580e-04
1122 1 -1.149e-09 -8.618e-01 -2.035e+00 1.907e-06 -1.196e-01 1.224e-01
4 1 -2.035e+00 2.967e+00 1.330e-08 3.593e-01 -2.390e-01 -1.163e-04
2 1 9.047e-09 2.967e+00 -2.035e+00 1.749e-06 1.220e-01 1.204e-01
130 1 2.458e-08 2.967e+00 2.035e+00 1.816e-07 1.190e-01 -1.223e-01
8 1 2.035e+00 2.967e+00 3.037e-08 -3.593e-01 -2.390e-01 -1.163e-04
899 1 7.694e-09 1.053e+00 -3.554e+00 9.297e-07 6.844e-04 6.030e-02
31 1 -3.554e+00 1.053e+00 1.692e-08 -9.689e-04 -3.660e-05 8.294e-05
7 1 3.554e+00 1.053e+00 2.340e-08 9.701e-04 -3.529e-05 8.296e-05
131 1 1.416e-08 1.053e+00 3.554e+00 6.194e-07 -1.085e-03 -5.992e-02
1253 1 1.794e+00 -2.502e+00 1.794e+00 1.654e-02 -1.227e-02 -2.779e-02
1249 1 -1.794e+00 -2.502e+00 1.794e+00 -1.653e-02 -1.227e-02 -2.779e-02
1125 1 1.794e+00 -2.502e+00 -1.794e+00 1.578e-02 -1.098e-02 2.910e-02
1121 1 -1.794e+00 -2.502e+00 -1.794e+00 -1.578e-02 -1.098e-02 2.911e-02
1123 1 1.914e-09 -2.441e+00 1.129e-08 1.422e-06 -6.013e-02 3.586e-04
133 1 1.675e+00 1.053e+00 1.675e+00 3.602e-01 -1.631e-04 2.383e-01
1 1 -1.675e+00 1.053e+00 -1.675e+00 -3.600e-01 6.044e-05 -2.381e-01
5 1 1.675e+00 1.053e+00 -1.675e+00 3.600e-01 6.163e-05 -2.381e-01
129 1 -1.675e+00 1.053e+00 1.675e+00 -3.602e-01 -1.640e-04 2.383e-01
ITEM: TIMESTEP
0
ITEM: NUMBER OF ATOMS
89
ITEM: BOX BOUNDS xy xz yz pp pp pp
                     0.00000000000000e+00 2.81697006000000e+01 0.00000000000000e+00
0.00000000000000e+00	2.81697006000000e+01	0.00000000000000e+00
0.00000000000000e+00	2.81697006000000e+01	0.00000000000000e+00
ITEM: ATOMS id type x y z DisplacementX DisplacementY DisplacementZ
1091 1 -1.767e-09 -5.979e+00 1.105e-08 6.981e-04 -8.877e-03 0.000e+00
1255 1 3.546e+00 -2.489e+00 3.546e+00 -3.546e-03 -4.238e-03 5.548e-04
2047 1 -3.546e+00 -2.489e+00 -3.546e+00 4.564e-03 -3.038e-03 -2.308e-04
1279 1 -3.546e+00 -2.489e+00 3.546e+00 4.564e-03 -3.038e-03 2.282e-04
2023 1 3.546e+00 -2.489e+00 -3.546e+00 -3.547e-03 -4.234e-03 -5.512e-04
1224 1 1.778e+00 -4.255e+00 3.544e+00 -1.338e-02 5.041e-03 1.445e-04
1222 1 3.544e+00 -4.255e+00 1.778e+00 -4.879e-03 1.568e-03 2.453e-03
1220 1 -1.778e+00 -4.255e+00 3.544e+00 1.472e-02 5.730e-03 -6.771e-05
1094 1 3.544e+00 -4.255e+00 -1.778e+00 -4.880e-03 1.568e-03 -2.451e-03
1118 1 -3.544e+00 -4.255e+00 -1.778e+00 6.218e-03 2.655e-03 -2.167e-03
1988 1 -1.778e+00 -4.255e+00 -3.544e+00 1.472e-02 5.730e-03 6.676e-05
1246 1 -3.544e+00 -4.255e+00 1.778e+00 6.218e-03 2.655e-03 2.163e-03
1992 1 1.778e+00 -4.255e+00 -3.544e+00 -1.338e-02 5.045e-03 -1.431e-04
931 1 1.571e-08 4.668e+00 -3.619e+00 -4.559e-04 -9.101e-02 9.332e-02
63 1 -3.619e+00 4.668e+00 2.276e-08 2.708e-03 3.473e-03 0.000e+00
39 1 3.619e+00 4.668e+00 2.596e-08 -4.128e-03 1.894e-03 2.337e-06
163 1 1.889e-08 4.668e+00 3.619e+00 -4.539e-04 -9.101e-02 -9.332e-02
137 1 5.302e+00 1.053e+00 1.770e+00 -3.087e-02 -8.069e-04 -2.308e-03
261 1 1.770e+00 1.053e+00 5.302e+00 3.649e-03 -2.718e-04 -2.114e-02
901 1 1.770e+00 1.053e+00 -5.302e+00 3.649e-03 -2.706e-04 2.114e-02
157 1 -5.302e+00 1.053e+00 1.770e+00 3.093e-02 7.938e-04 -2.321e-03
897 1 -1.770e+00 1.053e+00 -5.302e+00 -3.571e-03 2.786e-04 2.115e-02
29 1 -5.302e+00 1.053e+00 -1.770e+00 3.093e-02 7.942e-04 2.317e-03
9 1 5.302e+00 1.053e+00 -1.770e+00 -3.087e-02 -8.067e-04 2.312e-03
257 1 -1.770e+00 1.053e+00 5.302e+00 -3.571e-03 2.773e-04 -2.115e-02
1378 1 7.307e-09 -7.211e-01 5.280e+00 3.357e-04 3.576e-03 2.294e-02
1132 1 5.280e+00 -7.211e-01 1.832e-08 -8.504e-03 5.505e-03 2.748e-06
1152 1 -5.280e+00 -7.211e-01 1.676e-08 9.090e-03 7.078e-03 0.000e+00
2018 1 5.247e-09 -7.211e-01 -5.280e+00 3.355e-04 3.578e-03 -2.294e-02
32 1 -5.280e+00 2.826e+00 1.964e-08 8.560e-03 -5.523e-03 0.000e+00
898 1 1.034e-08 2.826e+00 -5.280e+00 -2.537e-04 -3.570e-03 -2.296e-02
258 1 1.231e-08 2.826e+00 5.280e+00 -2.537e-04 -3.571e-03 2.296e-02
12 1 5.280e+00 2.826e+00 2.111e-08 -9.026e-03 -7.088e-03 2.521e-06
33 1 -1.794e+00 4.607e+00 -1.794e+00 2.801e-02 1.188e-02 -1.631e-02
165 1 1.794e+00 4.607e+00 1.794e+00 -2.893e-02 1.090e-02 1.582e-02
37 1 1.794e+00 4.607e+00 -1.794e+00 -2.893e-02 1.090e-02 -1.582e-02
161 1 -1.794e+00 4.607e+00 1.794e+00 2.801e-02 1.188e-02 1.630e-02
135 1 3.524e+00 1.053e+00 3.524e+00 9.059e-02 -6.502e-04 9.438e-02
927 1 -3.524e+00 1.053e+00 -3.524e+00 -9.051e-02 6.562e-04 -9.435e-02
903 1 3.524e+00 1.053e+00 -3.524e+00 9.059e-02 -6.495e-04 -9.437e-02
159 1 -3.524e+00 1.053e+00 3.524e+00 -9.051e-02 6.555e-04 9.434e-02
35 1 2.073e-08 4.547e+00 3.047e-08 -3.147e-04 5.981e-02 2.004e-07
30 1 -3.566e+00 2.819e+00 -1.810e+00 1.186e-02 2.871e-02 1.546e-02
900 1 -1.810e+00 2.819e+00 -3.566e+00 4.376e-02 4.406e-02 -6.962e-04
158 1 -3.566e+00 2.819e+00 1.810e+00 1.187e-02 2.871e-02 -1.545e-02
904 1 1.810e+00 2.819e+00 -3.566e+00 -4.438e-02 4.360e-02 -7.248e-04
136 1 1.810e+00 2.819e+00 3.566e+00 -4.438e-02 4.360e-02 7.260e-04
134 1 3.566e+00 2.819e+00 1.810e+00 -1.231e-02 2.755e-02 -1.565e-02
132 1 -1.810e+00 2.819e+00 3.566e+00 4.376e-02 4.406e-02 6.962e-04
6 1 3.566e+00 2.819e+00 -1.810e+00 -1.231e-02 2.755e-02 1.565e-02
1096 1 1.768e+00 -4.219e+00 1.229e-08 6.700e-03 -8.228e-03 1.194e-06
1218 1 4.415e-10 -4.219e+00 1.768e+00 6.244e-04 -3.019e-02 2.799e-03
1090 1 1.681e-09 -4.219e+00 -1.768e+00 6.244e-04 -3.019e-02 -2.798e-03
1092 1 -1.768e+00 -4.219e+00 1.333e-08 -5.384e-03 -7.860e-03 0.000e+00
1127 1 3.619e+00 -2.563e+00 1.715e-08 -2.551e-03 -3.565e-03 2.524e-06
1251 1 5.158e-09 -2.563e+00 3.619e+00 5.373e-04 9.099e-02 -9.331e-02
2019 1 1.350e-09 -2.563e+00 -3.619e+00 5.368e-04 9.100e-02 9.332e-02
1151 1 -3.619e+00 -2.563e+00 1.353e-08 4.156e-03 -1.926e-03 0.000e+00
2049 1 2.869e-08 2.105e+00 5.117e-08 -1.053e+00 -1.051e+00 9.482e-08
3 1 0.000e+00 0.000e+00 0.000e+00 1.053e+00 1.051e+00 2.489e-06
1256 1 1.810e+00 -7.133e-01 3.566e+00 -4.366e-02 -4.407e-02 7.086e-04
1254 1 3.566e+00 -7.133e-01 1.810e+00 -1.181e-02 -2.872e-02 -1.544e-02
1252 1 -1.810e+00 -7.133e-01 3.566e+00 4.446e-02 -4.358e-02 6.988e-04
1126 1 3.566e+00 -7.133e-01 -1.810e+00 -1.181e-02 -2.872e-02 1.545e-02
1150 1 -3.566e+00 -7.133e-01 -1.810e+00 1.239e-02 -2.755e-02 1.564e-02
2020 1 -1.810e+00 -7.133e-01 -3.566e+00 4.446e-02 -4.357e-02 -6.981e-04
1278 1 -3.566e+00 -7.133e-01 1.810e+00 1.240e-02 -2.755e-02 -1.564e-02
2024 1 1.810e+00 -7.133e-01 -3.566e+00 -4.366e-02 -4.406e-02 -7.057e-04
1250 1 1.516e-08 -8.618e-01 2.035e+00 2.804e-04 2.387e-01 -3.591e-01
1128 1 2.035e+00 -8.618e-01 2.745e-08 -1.205e-01 -1.223e-01 3.400e-06
1124 1 -2.035e+00 -8.618e-01 1.168e-08 1.223e-01 -1.198e-01 0.000e+00
1122 1 -1.149e-09 -8.618e-01 -2.035e+00 2.804e-04 2.387e-01 3.591e-01
4 1 -2.035e+00 2.967e+00 1.330e-08 1.206e-01 1.221e-01 0.000e+00
2 1 9.047e-09 2.967e+00 -2.035e+00 -1.602e-04 -2.388e-01 3.592e-01
130 1 2.458e-08 2.967e+00 2.035e+00 -1.602e-04 -2.388e-01 -3.592e-01
8 1 2.035e+00 2.967e+00 3.037e-08 -1.222e-01 1.196e-01 1.617e-06
899 1 7.694e-09 1.053e+00 -3.554e+00 3.669e-05 2.205e-05 -9.804e-04
31 1 -3.554e+00 1.053e+00 1.692e-08 6.017e-02 7.843e-04 0.000e+00
7 1 3.554e+00 1.053e+00 2.340e-08 -6.006e-02 -8.118e-04 2.636e-06
131 1 1.416e-08 1.053e+00 3.554e+00 3.790e-05 2.074e-05 9.818e-04
1253 1 1.794e+00 -2.502e+00 1.794e+00 -2.791e-02 -1.197e-02 1.636e-02
1249 1 -1.794e+00 -2.502e+00 1.794e+00 2.901e-02 -1.093e-02 1.583e-02
1125 1 1.794e+00 -2.502e+00 -1.794e+00 -2.791e-02 -1.196e-02 -1.635e-02
1121 1 -1.794e+00 -2.502e+00 -1.794e+00 2.901e-02 -1.093e-02 -1.583e-02
1123 1 1.914e-09 -2.441e+00 1.129e-08 3.797e-04 -5.988e-02 1.181e-06
133 1 1.675e+00 1.053e+00 1.675e+00 2.383e-01 -2.149e-04 3.602e-01
1 1 -1.675e+00 1.053e+00 -1.675e+00 -2.382e-01 2.540e-04 -3.601e-01
5 1 1.675e+00 1.053e+00 -1.675e+00 2.383e-01 -2.131e-04 -3.601e-01
129 1 -1.675e+00 1.053e+00 1.675e+00 -2.382e-01 2.525e-04 3.601e-01
ITEM: TIMESTEP
0
ITEM: NUMBER OF ATOMS
89
ITEM: BOX BOUNDS xy xz yz pp pp pp
                     0.00000000000000e+00 2.81697006000000e+01 0.00000000000000e+00
0.00000000000000e+00	2.81697006000000e+01	0.00000000000000e+00
0.00000000000000e+00	2.81697006000000e+01	0.00000000000000e+00
ITEM: ATOMS id type x y z DisplacementX DisplacementY DisplacementZ
1091 1 -1.767e-09 -5.979e+00 1.105e-08 1.907e-06 -8.932e-03 -5.684e-04
1255 1 3.546e+00 -2.489e+00 3.546e+00 2.308e-04 -3.113e-03 -4.481e-03
2047 1 -3.546e+00 -2.489e+00 -3.546e+00 -4.768e-04 -4.152e-03 3.645e-03
1279 1 -3.546e+00 -2.489e+00 3.546e+00 -2.308e-04 -3.113e-03 -4.479e-03
2023 1 3.546e+00 -2.489e+00 -3.546e+00 4.787e-04 -4.152e-03 3.643e-03
1224 1 1.778e+00 -4.255e+00 3.544e+00 2.177e-03 2.569e-03 -6.119e-03
1222 1 3.544e+00 -4.255e+00 1.778e+00 -9.346e-05 5.676e-03 -1.462e-02
1220 1 -1.778e+00 -4.255e+00 3.544e+00 -2.176e-03 2.569e-03 -6.118e-03
1094 1 3.544e+00 -4.255e+00 -1.778e+00 4.530e-05 5.100e-03 1.350e-02
1118 1 -3.544e+00 -4.255e+00 -1.778e+00 -4.387e-05 5.102e-03 1.350e-02
1988 1 -1.778e+00 -4.255e+00 -3.544e+00 -2.378e-03 1.657e-03 5.018e-03
1246 1 -3.544e+00 -4.255e+00 1.778e+00 9.537e-05 5.676e-03 -1.462e-02
1992 1 1.778e+00 -4.255e+00 -3.544e+00 2.380e-03 1.657e-03 5.018e-03
931 1 1.571e-08 4.668e+00 -3.619e+00 0.000e+00 2.096e-03 4.002e-03
63 1 -3.619e+00 4.668e+00 2.276e-08 9.334e-02 -9.097e-02 4.304e-04
39 1 3.619e+00 4.668e+00 2.596e-08 -9.334e-02 -9.097e-02 4.281e-04
163 1 1.889e-08 4.668e+00 3.619e+00 0.000e+00 3.377e-03 -2.801e-03
137 1 5.302e+00 1.053e+00 1.770e+00 -2.120e-02 2.669e-04 3.594e-03
261 1 1.770e+00 1.053e+00 5.302e+00 -2.328e-03 7.207e-04 -3.088e-02
901 1 1.770e+00 1.053e+00 -5.302e+00 -2.318e-03 -6.677e-04 3.088e-02
157 1 -5.302e+00 1.053e+00 1.770e+00 2.120e-02 2.660e-04 3.596e-03
897 1 -1.770e+00 1.053e+00 -5.302e+00 2.317e-03 -6.683e-04 3.088e-02
29 1 -5.302e+00 1.053e+00 -1.770e+00 2.119e-02 -2.198e-04 -3.609e-03
9 1 5.302e+00 1.053e+00 -1.770e+00 -2.119e-02 -2.189e-04 -3.612e-03
257 1 -1.770e+00 1.053e+00 5.302e+00 2.325e-03 7.200e-04 -3.088e-02
1378 1 7.307e-09 -7.211e-01 5.280e+00 1.704e-07 6.988e-03 -9.020e-03
1132 1 5.280e+00 -7.211e-01 1.832e-08 2.289e-02 3.586e-03 -2.689e-04
1152 1 -5.280e+00 -7.211e-01 1.676e-08 -2.289e-02 3.586e-03 -2.670e-04
2018 1 5.247e-09 -7.211e-01 -5.280e+00 1.318e-06 5.636e-03 8.556e-03
32 1 -5.280e+00 2.826e+00 1.964e-08 -2.291e-02 -3.553e-03 2.564e-04
898 1 1.034e-08 2.826e+00 -5.280e+00 5.968e-08 -6.926e-03 8.999e-03
258 1 1.231e-08 2.826e+00 5.280e+00 0.000e+00 -5.604e-03 -8.541e-03
12 1 5.280e+00 2.826e+00 2.111e-08 2.290e-02 -3.552e-03 2.536e-04
33 1 -1.794e+00 4.607e+00 -1.794e+00 -1.586e-02 1.104e-02 2.887e-02
165 1 1.794e+00 4.607e+00 1.794e+00 1.624e-02 1.186e-02 -2.805e-02
37 1 1.794e+00 4.607e+00 -1.794e+00 1.586e-02 1.104e-02 2.887e-02
161 1 -1.794e+00 4.607e+00 1.794e+00 -1.625e-02 1.186e-02 -2.804e-02
135 1 3.524e+00 1.053e+00 3.524e+00 9.436e-02 5.977e-04 9.058e-02
927 1 -3.524e+00 1.053e+00 -3.524e+00 -9.438e-02 -5.438e-04 -9.060e-02
903 1 3.524e+00 1.053e+00 -3.524e+00 9.438e-02 -5.428e-04 -9.060e-02
159 1 -3.524e+00 1.053e+00 3.524e+00 -9.436e-02 5.964e-04 9.058e-02
35 1 2.073e-08 4.547e+00 3.047e-08 0.000e+00 5.986e-02 2.796e-04
30 1 -3.566e+00 2.819e+00 -1.810e+00 -6.809e-04 4.365e-02 4.436e-02
900 1 -1.810e+00 2.819e+00 -3.566e+00 1.564e-02 2.769e-02 1.227e-02
158 1 -3.566e+00 2.819e+00 1.810e+00 -6.733e-04 4.407e-02 -4.377e-02
904 1 1.810e+00 2.819e+00 -3.566e+00 -1.564e-02 2.769e-02 1.227e-02
136 1 1.810e+00 2.819e+00 3.566e+00 -1.550e-02 2.866e-02 -1.185e-02
134 1 3.566e+00 2.819e+00 1.810e+00 6.716e-04 4.407e-02 -4.377e-02
132 1 -1.810e+00 2.819e+00 3.566e+00 1.550e-02 2.867e-02 -1.185e-02
6 1 3.566e+00 2.819e+00 -1.810e+00 6.797e-04 4.365e-02 4.436e-02
1096 1 1.768e+00 -4.219e+00 1.229e-08 2.749e-03 -3.019e-02 -5.264e-04
1218 1 4.415e-10 -4.219e+00 1.768e+00 8.938e-07 -7.862e-03 5.476e-03
1090 1 1.681e-09 -4.219e+00 -1.768e+00 1.624e-06 -8.215e-03 -6.567e-03
1092 1 -1.768e+00 -4.219e+00 1.333e-08 -2.747e-03 -3.019e-02 -5.226e-04
1127 1 3.619e+00 -2.563e+00 1.715e-08 -9.337e-02 9.103e-02 -4.559e-04
1251 1 5.158e-09 -2.563e+00 3.619e+00 6.697e-07 -2.047e-03 -4.005e-03
2019 1 1.350e-09 -2.563e+00 -3.619e+00 1.884e-06 -3.376e-03 2.783e-03
1151 1 -3.619e+00 -2.563e+00 1.353e-08 9.337e-02 9.103e-02 -4.539e-04
2049 1 2.869e-08 2.105e+00 5.117e-08 5.658e-07 -1.051e+00 1.053e+00
3 1 0.000e+00 0.000e+00 0.000e+00 1.505e-06 1.051e+00 -1.053e+00
1256 1 1.810e+00 -7.133e-01 3.566e+00 -1.563e-02 -2.763e-02 -1.229e-02
1254 1 3.566e+00 -7.133e-01 1.810e+00 6.757e-04 -4.360e-02 -4.437e-02
1252 1 -1.810e+00 -7.133e-01 3.566e+00 1.563e-02 -2.763e-02 -1.229e-02
1126 1 3.566e+00 -7.133e-01 -1.810e+00 6.742e-04 -4.402e-02 4.373e-02
1150 1 -3.566e+00 -7.133e-01 -1.810e+00 -6.733e-04 -4.402e-02 4.374e-02
2020 1 -1.810e+00 -7.133e-01 -3.566e+00 1.546e-02 -2.862e-02 1.182e-02
1278 1 -3.566e+00 -7.133e-01 1.810e+00 -6.752e-04 -4.360e-02 -4.437e-02
2024 1 1.810e+00 -7.133e-01 -3.566e+00 -1.546e-02 -2.862e-02 1.181e-02
1250 1 1.516e-08 -8.618e-01 2.035e+00 1.860e-07 -1.200e-01 -1.220e-01
1128 1 2.035e+00 -8.618e-01 2.745e-08 -3.592e-01 2.388e-01 -1.907e-04
1124 1 -2.035e+00 -8.618e-01 1.168e-08 3.592e-01 2.388e-01 -1.869e-04
1122 1 -1.149e-09 -8.618e-01 -2.035e+00 1.907e-06 -1.219e-01 1.206e-01
4 1 -2.035e+00 2.967e+00 1.330e-08 3.592e-01 -2.387e-01 1.527e-04
2 1 9.047e-09 2.967e+00 -2.035e+00 0.000e+00 1.200e-01 1.220e-01
130 1 2.458e-08 2.967e+00 2.035e+00 -3.815e-06 1.220e-01 -1.207e-01
8 1 2.035e+00 2.967e+00 3.037e-08 -3.592e-01 -2.387e-01 1.522e-04
899 1 7.694e-09 1.053e+00 -3.554e+00 8.088e-07 -6.199e-04 6.007e-02
31 1 -3.554e+00 1.053e+00 1.692e-08 -9.174e-04 3.159e-05 -1.335e-05
7 1 3.554e+00 1.053e+00 2.340e-08 9.181e-04 3.195e-05 -1.907e-05
131 1 1.416e-08 1.053e+00 3.554e+00 0.000e+00 6.977e-04 -6.009e-02
1253 1 1.794e+00 -2.502e+00 1.794e+00 1.585e-02 -1.098e-02 -2.891e-02
1249 1 -1.794e+00 -2.502e+00 1.794e+00 -1.585e-02 -1.098e-02 -2.891e-02
1125 1 1.794e+00 -2.502e+00 -1.794e+00 1.623e-02 -1.181e-02 2.803e-02
1121 1 -1.794e+00 -2.502e+00 -1.794e+00 -1.623e-02 -1.181e-02 2.803e-02
1123 1 1.914e-09 -2.441e+00 1.129e-08 1.582e-06 -5.978e-02 -3.338e-04
133 1 1.675e+00 1.053e+00 1.675e+00 3.601e-01 2.458e-04 2.382e-01
1 1 -1.675e+00 1.053e+00 -1.675e+00 -3.601e-01 -1.923e-04 -2.383e-01
5 1 1.675e+00 1.053e+00 -1.675e+00 3.601e-01 -1.929e-04 -2.383e-01
129 1 -1.675e+00 1.053e+00 1.675e+00 -3.601e-01 2.469e-04 2.382e-01
ITEM: TIMESTEP
0
ITEM: NUMBER OF ATOMS
89
ITEM: BOX BOUNDS xy xz yz pp pp pp
                     0.00000000000000e+00 2.81697006000000e+01 0.00000000000000e+00
0.00000000000000e+00	2.81697006000000e+01	0.00000000000000e+00
0.00000000000000e+00	2.81697006000000e+01	0.00000000000000e+00
ITEM: ATOMS id type x y z DisplacementX DisplacementY DisplacementZ
1091 1 -1.767e-09 -5.979e+00 1.105e-08 7.286e-03 8.049e-04 1.040e-06
1255 1 3.546e+00 -2.489e+00 3.546e+00 -3.356e-03 1.891e-02 -1.901e-03
2047 1 -3.546e+00 -2.489e+00 -3.546e+00 -2.354e-02 1.632e-02 -2.044e-02
1279 1 -3.546e+00 -2.489e+00 3.546e+00 -2.354e-02 1.632e-02 2.044e-02
2023 1 3.546e+00 -2.489e+00 -3.546e+00 -3.358e-03 1.890e-02 1.905e-03
1224 1 1.778e+00 -4.255e+00 3.544e+00 7.482e-03 6.927e-03 2.023e-03
1222 1 3.544e+00 -4.255e+00 1.778e+00 1.544e-03 1.043e-02 2.174e-03
1220 1 -1.778e+00 -4.255e+00 3.544e+00 1.809e-02 -6.665e-02 7.472e-02
1094 1 3.544e+00 -4.255e+00 -1.778e+00 1.544e-03 1.043e-02 -2.171e-03
1118 1 -3.544e+00 -4.255e+00 -1.778e+00 -1.012e-02 -5.793e-03 -1.650e-02
1988 1 -1.778e+00 -4.255e+00 -3.544e+00 1.809e-02 -6.665e-02 -7.472e-02
1246 1 -3.544e+00 -4.255e+00 1.778e+00 -1.012e-02 -5.793e-03 1.650e-02
1992 1 1.778e+00 -4.255e+00 -3.544e+00 7.482e-03 6.927e-03 -2.022e-03
931 1 1.571e-08 4.668e+00 -3.619e+00 1.897e-02 -6.730e-02 7.415e-02
63 1 -3.619e+00 4.668e+00 2.276e-08 9.241e-02 -1.042e-01 1.756e-06
39 1 3.619e+00 4.668e+00 2.596e-08 -5.393e-02 -5.302e-02 1.034e-06
163 1 1.889e-08 4.668e+00 3.619e+00 1.897e-02 -6.729e-02 -7.414e-02
137 1 5.302e+00 1.053e+00 1.770e+00 -1.605e-02 6.568e-03 -6.122e-03
261 1 1.770e+00 1.053e+00 5.302e+00 1.402e-02 5.010e-03 1.492e-03
901 1 1.770e+00 1.053e+00 -5.302e+00 1.402e-02 5.006e-03 -1.490e-03
157 1 -5.302e+00 1.053e+00 1.770e+00 -2.249e-02 5.740e-03 3.967e-02
897 1 -1.770e+00 1.053e+00 -5.302e+00 1.076e-02 1.425e-02 2.129e-02
29 1 -5.302e+00 1.053e+00 -1.770e+00 -2.249e-02 5.737e-03 -3.967e-02
9 1 5.302e+00 1.053e+00 -1.770e+00 -1.605e-02 6.566e-03 6.123e-03
257 1 -1.770e+00 1.053e+00 5.302e+00 1.076e-02 1.425e-02 -2.129e-02
1378 1 7.307e-09 -7.211e-01 5.280e+00 1.061e-02 1.454e-02 2.289e-02
1132 1 5.280e+00 -7.211e-01 1.832e-08 5.674e-04 1.494e-02 1.003e-06
1152 1 -5.280e+00 -7.211e-01 1.676e-08 -3.329e-02 1.388e-02 1.842e-06
2018 1 5.247e-09 -7.211e-01 -5.280e+00 1.061e-02 1.454e-02 -2.289e-02
32 1 -5.280e+00 2.826e+00 1.964e-08 -9.676e-02 8.074e-02 2.884e-06
898 1 1.034e-08 2.826e+00 -5.280e+00 2.096e-02 5.548e-03 -2.696e-02
258 1 1.231e-08 2.826e+00 5.280e+00 2.097e-02 5.554e-03 2.696e-02
12 1 5.280e+00 2.826e+00 2.111e-08 5.148e-03 -3.352e-03 1.078e-06
33 1 -1.794e+00 4.607e+00 -1.794e+00 3.562e-02 -4.281e-02 2.647e-02
165 1 1.794e+00 4.607e+00 1.794e+00 -9.507e-03 -5.836e-03 -1.580e-02
37 1 1.794e+00 4.607e+00 -1.794e+00 -9.508e-03 -5.836e-03 1.580e-02
161 1 -1.794e+00 4.607e+00 1.794e+00 3.562e-02 -4.281e-02 -2.646e-02
135 1 3.524e+00 1.053e+00 3.524e+00 1.890e-02 5.186e-03 2.002e-02
927 1 -3.524e+00 1.053e+00 -3.524e+00 -4.474e-02 6.109e-03 -4.213e-02
903 1 3.524e+00 1.053e+00 -3.524e+00 1.890e-02 5.184e-03 -2.002e-02
159 1 -3.524e+00 1.053e+00 3.524e+00 -4.475e-02 6.111e-03 4.214e-02
35 1 2.073e-08 4.547e+00 3.047e-08 8.793e-03 1.775e-02 3.205e-06
30 1 -3.566e+00 2.819e+00 -1.810e+00 1.287e-02 2.819e-02 1.565e-02
900 1 -1.810e+00 2.819e+00 -3.566e+00 5.093e-02 8.959e-02 -5.304e-02
158 1 -3.566e+00 2.819e+00 1.810e+00 1.286e-02 2.819e-02 -1.564e-02
904 1 1.810e+00 2.819e+00 -3.566e+00 -2.335e-02 1.680e-02 1.934e-02
136 1 1.810e+00 2.819e+00 3.566e+00 -2.335e-02 1.680e-02 -1.933e-02
134 1 3.566e+00 2.819e+00 1.810e+00 -1.910e-02 1.382e-02 -2.925e-02
132 1 -1.810e+00 2.819e+00 3.566e+00 5.093e-02 8.960e-02 5.305e-02
6 1 3.566e+00 2.819e+00 -1.810e+00 -1.910e-02 1.382e-02 2.925e-02
1096 1 1.768e+00 -4.219e+00 1.229e-08 8.999e-02 -1.022e-01 1.688e-06
1218 1 4.415e-10 -4.219e+00 1.768e+00 3.426e-02 -4.174e-02 2.659e-02
1090 1 1.681e-09 -4.219e+00 -1.768e+00 3.426e-02 -4.174e-02 -2.658e-02
1092 1 -1.768e+00 -4.219e+00 1.333e-08 7.555e-03 1.854e-02 7.775e-07