ITEM: TIMESTEP
0
ITEM: NUMBER OF ATOMS
1412
ITEM: BOX BOUNDS xy xz yz pp pp pp
                     0.00000000000000e+00 3.87200012000000e+01 0.00000000000000e+00
0.00000000000000e+00	3.87200012000000e+01	0.00000000000000e+00
0.00000000000000e+00	1.05600004000000e+01	0.00000000000000e+00
ITEM: ATOMS id type x y z DisplacementX DisplacementY DisplacementZ
1 1 2.643e+00 8.818e-01 8.800e-01 0.000e+00 0.000e+00 0.000e+00
2 1 6.165e+00 8.827e-01 8.800e-01 0.000e+00 0.000e+00 0.000e+00
3 1 9.684e+00 8.823e-01 8.800e-01 0.000e+00 0.000e+00 0.000e+00
4 1 1.320e+01 8.811e-01 8.800e-01 0.000e+00 0.000e+00 0.000e+00
5 1 1.672e+01 8.803e-01 8.800e-01 0.000e+00 0.000e+00 0.000e+00
6 1 8.818e-01 2.643e+00 8.800e-01 0.000e+00 0.000e+00 0.000e+00
7 1 4.406e+00 2.645e+00 8.800e-01 0.000e+00 0.000e+00 0.000e+00
8 1 2.645e+00 4.406e+00 8.800e-01 0.000e+00 0.000e+00 0.000e+00
9 1 6.169e+00 4.409e+00 8.800e-01 0.000e+00 0.000e+00 0.000e+00
10 1 7.927e+00 2.646e+00 8.800e-01 0.000e+00 0.000e+00 0.000e+00
11 1 1.144e+01 2.645e+00 8.800e-01 0.000e+00 0.000e+00 0.000e+00
12 1 9.689e+00 4.410e+00 8.800e-01 0.000e+00 0.000e+00 0.000e+00
13 1 1.320e+01 4.407e+00 8.800e-01 0.000e+00 0.000e+00 0.000e+00
14 1 1.496e+01 2.643e+00 8.800e-01 0.000e+00 0.000e+00 0.000e+00
15 1 1.672e+01 4.404e+00 8.800e-01 0.000e+00 0.000e+00 0.000e+00
16 1 1.848e+01 2.642e+00 8.800e-01 0.000e+00 0.000e+00 0.000e+00
17 1 8.827e-01 6.165e+00 8.800e-01 0.000e+00 0.000e+00 0.000e+00
18 1 4.409e+00 6.169e+00 8.800e-01 0.000e+00 0.000e+00 0.000e+00
19 1 7.933e+00 6.174e+00 8.800e-01 0.000e+00 0.000e+00 0.000e+00
20 1 1.145e+01 6.173e+00 8.800e-01 0.000e+00 0.000e+00 0.000e+00
21 1 1.496e+01 6.168e+00 8.800e-01 0.000e+00 0.000e+00 0.000e+00
22 1 1.848e+01 6.166e+00 8.800e-01 0.000e+00 0.000e+00 0.000e+00
23 1 2.646e+00 7.927e+00 8.800e-01 0.000e+00 0.000e+00 0.000e+00
24 1 6.174e+00 7.933e+00 8.800e-01 0.000e+00 0.000e+00 0.000e+00
25 1 9.698e+00 7.939e+00 8.800e-01 0.000e+00 0.000e+00 0.000e+00
26 1 1.321e+01 7.937e+00 8.800e-01 0.000e+00 0.000e+00 0.000e+00
27 1 1.672e+01 7.930e+00 8.800e-01 0.000e+00 0.000e+00 0.000e+00
28 1 8.823e-01 9.684e+00 8.800e-01 0.000e+00 0.000e+00 0.000e+00
29 1 4.410e+00 9.689e+00 8.800e-01 0.000e+00 0.000e+00 0.000e+00
30 1 2.645e+00 1.144e+01 8.800e-01 0.000e+00 0.000e+00 0.000e+00
31 1 6.173e+00 1.145e+01 8.800e-01 0.000e+00 0.000e+00 0.000e+00
32 1 7.939e+00 9.698e+00 8.800e-01 0.000e+00 0.000e+00 0.000e+00
33 1 1.146e+01 9.705e+00 8.800e-01 0.000e+00 0.000e+00 0.000e+00
34 1 9.705e+00 1.146e+01 8.800e-01 0.000e+00 0.000e+00 0.000e+00
35 1 1.323e+01 1.147e+01 8.800e-01 0.000e+00 0.000e+00 0.000e+00
36 1 1.497e+01 9.701e+00 8.800e-01 0.000e+00 0.000e+00 0.000e+00
37 1 1.673e+01 1.147e+01 8.800e-01 0.000e+00 0.000e+00 0.000e+00
38 1 1.848e+01 9.691e+00 8.800e-01 0.000e+00 0.000e+00 0.000e+00
39 1 8.811e-01 1.320e+01 8.800e-01 0.000e+00 0.000e+00 0.000e+00
40 1 4.407e+00 1.320e+01 8.800e-01 0.000e+00 0.000e+00 0.000e+00
41 1 7.937e+00 1.321e+01 8.800e-01 0.000e+00 0.000e+00 0.000e+00
42 1 1.147e+01 1.323e+01 8.800e-01 0.000e+00 0.000e+00 0.000e+00
43 2 1.500e+01 1.324e+01 8.800e-01 0.000e+00 0.000e+00 0.000e+00
44 2 1.848e+01 1.323e+01 8.800e-01 0.000e+00 0.000e+00 0.000e+00
45 1 8.803e-01 1.672e+01 8.800e-01 0.000e+00 0.000e+00 0.000e+00
46 1 2.643e+00 1.496e+01 8.800e-01 0.000e+00 0.000e+00 0.000e+00
47 1 4.404e+00 1.672e+01 8.800e-01 0.000e+00 0.000e+00 0.000e+00
48 1 6.168e+00 1.496e+01 8.800e-01 0.000e+00 0.000e+00 0.000e+00
49 1 7.930e+00 1.672e+01 8.800e-01 0.000e+00 0.000e+00 0.000e+00
50 1 9.701e+00 1.497e+01 8.800e-01 0.000e+00 0.000e+00 0.000e+00
51 1 1.147e+01 1.673e+01 8.800e-01 0.000e+00 0.000e+00 0.000e+00
52 2 1.324e+01 1.500e+01 8.800e-01 0.000e+00 0.000e+00 0.000e+00
53 2 1.676e+01 1.500e+01 8.800e-01 0.000e+00 0.000e+00 0.000e+00
54 2 1.500e+01 1.676e+01 8.800e-01 0.000e+00 0.000e+00 0.000e+00
55 1 2.642e+00 1.848e+01 8.800e-01 0.000e+00 0.000e+00 0.000e+00
56 1 6.166e+00 1.848e+01 8.800e-01 0.000e+00 0.000e+00 0.000e+00
57 1 9.691e+00 1.848e+01 8.800e-01 0.000e+00 0.000e+00 0.000e+00
58 2 1.323e+01 1.848e+01 8.800e-01 0.000e+00 0.000e+00 0.000e+00
59 1 8.813e-01 8.813e-01 2.640e+00 0.000e+00 0.000e+00 0.000e+00
60 1 4.405e+00 8.824e-01 2.640e+00 0.000e+00 0.000e+00 0.000e+00
61 1 2.643e+00 8.818e-01 4.400e+00 0.000e+00 0.000e+00 0.000e+00
62 1 6.165e+00 8.827e-01 4.400e+00 0.000e+00 0.000e+00 0.000e+00
63 1 7.925e+00 8.827e-01 2.640e+00 0.000e+00 0.000e+00 0.000e+00
64 1 1.144e+01 8.818e-01 2.640e+00 0.000e+00 0.000e+00 0.000e+00
65 1 9.684e+00 8.823e-01 4.400e+00 0.000e+00 0.000e+00 0.000e+00
66 1 1.320e+01 8.811e-01 4.400e+00 0.000e+00 0.000e+00 0.000e+00
67 1 1.496e+01 8.806e-01 2.640e+00 0.000e+00 0.000e+00 0.000e+00
68 1 1.672e+01 8.803e-01 4.400e+00 0.000e+00 0.000e+00 0.000e+00
69 1 1.848e+01 8.802e-01 2.640e+00 0.000e+00 0.000e+00 0.000e+00
70 1 8.824e-01 4.405e+00 2.640e+00 0.000e+00 0.000e+00 0.000e+00
71 1 8.818e-01 2.643e+00 4.400e+00 0.000e+00 0.000e+00 0.000e+00
72 1 2.644e+00 2.644e+00 2.640e+00 0.000e+00 0.000e+00 0.000e+00
73 1 4.408e+00 4.408e+00 2.640e+00 0.000e+00 0.000e+00 0.000e+00
74 1 4.406e+00 2.645e+00 4.400e+00 0.000e+00 0.000e+00 0.000e+00
75 1 2.645e+00 4.406e+00 4.400e+00 0.000e+00 0.000e+00 0.000e+00
76 1 6.167e+00 2.646e+00 2.640e+00 0.000e+00 0.000e+00 0.000e+00
77 1 6.169e+00 4.409e+00 4.400e+00 0.000e+00 0.000e+00 0.000e+00
78 1 7.930e+00 4.410e+00 2.640e+00 0.000e+00 0.000e+00 0.000e+00
79 1 7.927e+00 2.646e+00 4.400e+00 0.000e+00 0.000e+00 0.000e+00
80 1 9.686e+00 2.646e+00 2.640e+00 0.000e+00 0.000e+00 0.000e+00
81 1 1.145e+01 4.408e+00 2.640e+00 0.000e+00 0.000e+00 0.000e+00
82 1 1.144e+01 2.645e+00 4.400e+00 0.000e+00 0.000e+00 0.000e+00
83 1 9.689e+00 4.410e+00 4.400e+00 0.000e+00 0.000e+00 0.000e+00
84 1 1.320e+01 2.644e+00 2.640e+00 0.000e+00 0.000e+00 0.000e+00
85 1 1.320e+01 4.407e+00 4.400e+00 0.000e+00 0.000e+00 0.000e+00
86 1 1.496e+01 4.405e+00 2.640e+00 0.000e+00 0.000e+00 0.000e+00
87 1 1.496e+01 2.643e+00 4.400e+00 0.000e+00 0.000e+00 0.000e+00
88 1 1.672e+01 2.642e+00 2.640e+00 0.000e+00 0.000e+00 0.000e+00
89 1 1.672e+01 4.404e+00 4.400e+00 0.000e+00 0.000e+00 0.000e+00
90 1 1.848e+01 4.404e+00 2.640e+00 0.000e+00 0.000e+00 0.000e+00
91 1 1.848e+01 2.642e+00 4.400e+00 0.000e+00 0.000e+00 0.000e+00
92 1 8.827e-01 6.165e+00 4.400e+00 0.000e+00 0.000e+00 0.000e+00
93 1 2.646e+00 6.167e+00 2.640e+00 0.000e+00 0.000e+00 0.000e+00
94 1 4.409e+00 6.169e+00 4.400e+00 0.000e+00 0.000e+00 0.000e+00
95 1 6.172e+00 6.172e+00 2.640e+00 0.000e+00 0.000e+00 0.000e+00
96 1 7.933e+00 6.174e+00 4.400e+00 0.000e+00 0.000e+00 0.000e+00
97 1 9.693e+00 6.174e+00 2.640e+00 0.000e+00 0.000e+00 0.000e+00
98 1 1.145e+01 6.173e+00 4.400e+00 0.000e+00 0.000e+00 0.000e+00
99 1 1.321e+01 6.171e+00 2.640e+00 0.000e+00 0.000e+00 0.000e+00
100 1 1.496e+01 6.168e+00 4.400e+00 0.000e+00 0.000e+00 0.000e+00
101 1 1.672e+01 6.167e+00 2.640e+00 0.000e+00 0.000e+00 0.000e+00
102 1 1.848e+01 6.166e+00 4.400e+00 0.000e+00 0.000e+00 0.000e+00
103 1 8.827e-01 7.925e+00 2.640e+00 0.000e+00 0.000e+00 0.000e+00
104 1 4.410e+00 7.930e+00 2.640e+00 0.000e+00 0.000e+00 0.000e+00
105 1 2.646e+00 7.927e+00 4.400e+00 0.000e+00 0.000e+00 0.000e+00
106 1 6.174e+00 7.933e+00 4.400e+00 0.000e+00 0.000e+00 0.000e+00
107 1 7.936e+00 7.936e+00 2.640e+00 0.000e+00 0.000e+00 0.000e+00
108 1 1.146e+01 7.939e+00 2.640e+00 0.000e+00 0.000e+00 0.000e+00
109 1 9.698e+00 7.939e+00 4.400e+00 0.000e+00 0.000e+00 0.000e+00
110 1 1.321e+01 7.937e+00 4.400e+00 0.000e+00 0.000e+00 0.000e+00
111 1 1.497e+01 7.933e+00 2.640e+00 0.000e+00 0.000e+00 0.000e+00
112 1 1.672e+01 7.930e+00 4.400e+00 0.000e+00 0.000e+00 0.000e+00
113 1 1.848e+01 7.929e+00 2.640e+00 0.000e+00 0.000e+00 0.000e+00
114 1 8.818e-01 1.144e+01 2.640e+00 0.000e+00 0.000e+00 0.000e+00
115 1 8.823e-01 9.684e+00 4.400e+00 0.000e+00 0.000e+00 0.000e+00
116 1 2.646e+00 9.686e+00 2.640e+00 0.000e+00 0.000e+00 0.000e+00
117 1 4.408e+00 1.145e+01 2.640e+00 0.000e+00 0.000e+00 0.000e+00
118 1 4.410e+00 9.689e+00 4.400e+00 0.000e+00 0.000e+00 0.000e+00
119 1 2.645e+00 1.144e+01 4.400e+00 0.000e+00 0.000e+00 0.000e+00
120 1 6.174e+00 9.693e+00 2.640e+00 0.000e+00 0.000e+00 0.000e+00
121 1 6.173e+00 1.145e+01 4.400e+00 0.000e+00 0.000e+00 0.000e+00
122 1 7.939e+00 1.146e+01 2.640e+00 0.000e+00 0.000e+00 0.000e+00
123 1 7.939e+00 9.698e+00 4.400e+00 0.000e+00 0.000e+00 0.000e+00
124 1 9.702e+00 9.702e+00 2.640e+00 0.000e+00 0.000e+00 0.000e+00
125 1 1.147e+01 1.147e+01 2.640e+00 0.000e+00 0.000e+00 0.000e+00
126 1 1.146e+01 9.705e+00 4.400e+00 0.000e+00 0.000e+00 0.000e+00
127 1 9.705e+00 1.146e+01 4.400e+00 0.000e+00 0.000e+00 0.000e+00
128 1 1.322e+01 9.705e+00 2.640e+00 0.000e+00 0.000e+00 0.000e+00
129 1 1.323e+01 1.147e+01 4.400e+00 0.000e+00 0.000e+00 0.000e+00
130 1 1.499e+01 1.147e+01 2.640e+00 0.000e+00 0.000e+00 0.000e+00
131 1 1.497e+01 9.701e+00 4.400e+00 0.000e+00 0.000e+00 0.000e+00
132 1 1.673e+01 9.694e+00 2.640e+00 0.000e+00 0.000e+00 0.000e+00
133 1 1.673e+01 1.147e+01 4.400e+00 0.000e+00 0.000e+00 0.000e+00
134 2 1.848e+01 1.145e+01 2.640e+00 0.000e+00 0.000e+00 0.000e+00
135 1 1.848e+01 9.691e+00 4.400e+00 0.000e+00 0.000e+00 0.000e+00
136 1 8.811e-01 1.320e+01 4.400e+00 0.000e+00 0.000e+00 0.000e+00
137 1 2.644e+00 1.320e+01 2.640e+00 0.000e+00 0.000e+00 0.000e+00
138 1 4.407e+00 1.320e+01 4.400e+00 0.000e+00 0.000e+00 0.000e+00
139 1 6.171e+00 1.321e+01 2.640e+00 0.000e+00 0.000e+00 0.000e+00
140 1 7.937e+00 1.321e+01 4.400e+00 0.000e+00 0.000e+00 0.000e+00
141 1 9.705e+00 1.322e+01 2.640e+00 0.000e+00 0.000e+00 0.000e+00
142 1 1.147e+01 1.323e+01 4.400e+00 0.000e+00 0.000e+00 0.000e+00
143 1 1.324e+01 1.324e+01 2.640e+00 0.000e+00 0.000e+00 0.000e+00
144 2 1.500e+01 1.324e+01 4.400e+00 0.000e+00 0.000e+00 0.000e+00
145 2 1.675e+01 1.324e+01 2.640e+00 0.000e+00 0.000e+00 0.000e+00
146 2 1.848e+01 1.323e+01 4.400e+00 0.000e+00 0.000e+00 0.000e+00
147 1 8.806e-01 1.496e+01 2.640e+00 0.000e+00 0.000e+00 0.000e+00
148 1 8.803e-01 1.672e+01 4.400e+00 0.000e+00 0.000e+00 0.000e+00
149 1 4.405e+00 1.496e+01 2.640e+00 0.000e+00 0.000e+00 0.000e+00
150 1 2.643e+00 1.496e+01 4.400e+00 0.000e+00 0.000e+00 0.000e+00
151 1 2.642e+00 1.672e+01 2.640e+00 0.000e+00 0.000e+00 0.000e+00
152 1 4.404e+00 1.672e+01 4.400e+00 0.000e+00 0.000e+00 0.000e+00
153 1 6.168e+00 1.496e+01 4.400e+00 0.000e+00 0.000e+00 0.000e+00
154 1 6.167e+00 1.672e+01 2.640e+00 0.000e+00 0.000e+00 0.000e+00
155 1 7.933e+00 1.497e+01 2.640e+00 0.000e+00 0.000e+00 0.000e+00
156 1 7.930e+00 1.672e+01 4.400e+00 0.000e+00 0.000e+00 0.000e+00
157 1 1.147e+01 1.499e+01 2.640e+00 0.000e+00 0.000e+00 0.000e+00
158 1 9.701e+00 1.497e+01 4.400e+00 0.000e+00 0.000e+00 0.000e+00
159 1 9.694e+00 1.673e+01 2.640e+00 0.000e+00 0.000e+00 0.000e+00
160 1 1.147e+01 1.673e+01 4.400e+00 0.000e+00 0.000e+00 0.000e+00
161 2 1.324e+01 1.500e+01 4.400e+00 0.000e+00 0.000e+00 0.000e+00
162 2 1.324e+01 1.675e+01 2.640e+00 0.000e+00 0.000e+00 0.000e+00
163 2 1.501e+01 1.501e+01 2.640e+00 0.000e+00 0.000e+00 0.000e+00
164 2 1.676e+01 1.500e+01 4.400e+00 0.000e+00 0.000e+00 0.000e+00
165 2 1.500e+01 1.676e+01 4.400e+00 0.000e+00 0.000e+00 0.000e+00
166 1 8.802e-01 1.848e+01 2.640e+00 0.000e+00 0.000e+00 0.000e+00
167 1 4.404e+00 1.848e+01 2.640e+00 0.000e+00 0.000e+00 0.000e+00
168 1 2.642e+00 1.848e+01 4.400e+00 0.000e+00 0.000e+00 0.000e+00
169 1 6.166e+00 1.848e+01 4.400e+00 0.000e+00 0.000e+00 0.000e+00
170 1 7.929e+00 1.848e+01 2.640e+00 0.000e+00 0.000e+00 0.000e+00
171 2 1.145e+01 1.848e+01 2.640e+00 0.000e+00 0.000e+00 0.000e+00
172 1 9.691e+00 1.848e+01 4.400e+00 0.000e+00 0.000e+00 0.000e+00
173 2 1.323e+01 1.848e+01 4.400e+00 0.000e+00 0.000e+00 0.000e+00
174 1 8.813e-01 8.813e-01 6.160e+00 0.000e+00 0.000e+00 0.000e+00
175 1 4.405e+00 8.824e-01 6.160e+00 0.000e+00 0.000e+00 0.000e+00
176 1 7.925e+00 8.827e-01 6.160e+00 0.000e+00 0.000e+00 0.000e+00
177 1 1.144e+01 8.818e-01 6.160e+00 0.000e+00 0.000e+00 0.000e+00
178 1 1.496e+01 8.806e-01 6.160e+00 0.000e+00 0.000e+00 0.000e+00
179 1 1.848e+01 8.802e-01 6.160e+00 0.000e+00 0.000e+00 0.000e+00
180 1 8.824e-01 4.405e+00 6.160e+00 0.000e+00 0.000e+00 0.000e+00
181 1 2.644e+00 2.644e+00 6.160e+00 0.000e+00 0.000e+00 0.000e+00
182 1 4.408e+00 4.408e+00 6.160e+00 0.000e+00 0.000e+00 0.000e+00
183 1 6.167e+00 2.646e+00 6.160e+00 0.000e+00 0.000e+00 0.000e+00
184 1 7.930e+00 4.410e+00 6.160e+00 0.000e+00 0.000e+00 0.000e+00
185 1 9.686e+00 2.646e+00 6.160e+00 0.000e+00 0.000e+00 0.000e+00
186 1 1.145e+01 4.408e+00 6.160e+00 0.000e+00 0.000e+00 0.000e+00
187 1 1.320e+01 2.644e+00 6.160e+00 0.000e+00 0.000e+00 0.000e+00
188 1 1.496e+01 4.405e+00 6.160e+00 0.000e+00 0.000e+00 0.000e+00
189 1 1.672e+01 2.642e+00 6.160e+00 0.000e+00 0.000e+00 0.000e+00
190 1 1.848e+01 4.404e+00 6.160e+00 0.000e+00 0.000e+00 0.000e+00
191 1 2.646e+00 6.167e+00 6.160e+00 0.000e+00 0.000e+00 0.000e+00
192 1 6.172e+00 6.172e+00 6.160e+00 0.000e+00 0.000e+00 0.000e+00
193 1 9.693e+00 6.174e+00 6.160e+00 0.000e+00 0.000e+00 0.000e+00
194 1 1.321e+01 6.171e+00 6.160e+00 0.000e+00 0.000e+00 0.000e+00
195 1 1.672e+01 6.167e+00 6.160e+00 0.000e+00 0.000e+00 0.000e+00
196 1 8.827e-01 7.925e+00 6.160e+00 0.000e+00 0.000e+00 0.000e+00
197 1 4.410e+00 7.930e+00 6.160e+00 0.000e+00 0.000e+00 0.000e+00
198 1 7.936e+00 7.936e+00 6.160e+00 0.000e+00 0.000e+00 0.000e+00
199 1 1.146e+01 7.939e+00 6.160e+00 0.000e+00 0.000e+00 0.000e+00
200 1 1.497e+01 7.933e+00 6.160e+00 0.000e+00 0.000e+00 0.000e+00
201 1 1.848e+01 7.929e+00 6.160e+00 0.000e+00 0.000e+00 0.000e+00
202 1 8.818e-01 1.144e+01 6.160e+00 0.000e+00 0.000e+00 0.000e+00
203 1 2.646e+00 9.686e+00 6.160e+00 0.000e+00 0.000e+00 0.000e+00
204 1 4.408e+00 1.145e+01 6.160e+00 0.000e+00 0.000e+00 0.000e+00
205 1 6.174e+00 9.693e+00 6.160e+00 0.000e+00 0.000e+00 0.000e+00
206 1 7.939e+00 1.146e+01 6.160e+00 0.000e+00 0.000e+00 0.000e+00
207 1 9.702e+00 9.702e+00 6.160e+00 0.000e+00 0.000e+00 0.000e+00
208 1 1.147e+01 1.147e+01 6.160e+00 0.000e+00 0.000e+00 0.000e+00
209 1 1.322e+01 9.705e+00 6.160e+00 0.000e+00 0.000e+00 0.000e+00
210 1 1.499e+01 1.147e+01 6.160e+00 0.000e+00 0.000e+00 0.000e+00
211 1 1.673e+01 9.694e+00 6.160e+00 0.000e+00 0.000e+00 0.000e+00
212 2 1.848e+01 1.145e+01 6.160e+00 0.000e+00 0.000e+00 0.000e+00
213 1 2.644e+00 1.320e+01 6.160e+00 0.000e+00 0.000e+00 0.000e+00
214 1 6.171e+00 1.321e+01 6.160e+00 0.000e+00 0.000e+00 0.000e+00
215 1 9.705e+00 1.322e+01 6.160e+00 0.000e+00 0.000e+00 0.000e+00
216 1 1.324e+01 1.324e+01 6.160e+00 0.000e+00 0.000e+00 0.000e+00
217 2 1.675e+01 1.324e+01 6.160e+00 0.000e+00 0.000e+00 0.000e+00
218 1 8.806e-01 1.496e+01 6.160e+00 0.000e+00 0.000e+00 0.000e+00
219 1 4.405e+00 1.496e+01 6.160e+00 0.000e+00 0.000e+00 0.000e+00
220 1 2.642e+00 1.672e+01 6.160e+00 0.000e+00 0.000e+00 0.000e+00
221 1 6.167e+00 1.672e+01 6.160e+00 0.000e+00 0.000e+00 0.000e+00
222 1 7.933e+00 1.497e+01 6.160e+00 0.000e+00 0.000e+00 0.000e+00
223 1 1.147e+01 1.499e+01 6.160e+00 0.000e+00 0.000e+00 0.000e+00
224 1 9.694e+00 1.673e+01 6.160e+00 0.000e+00 0.000e+00 0.000e+00
225 2 1.324e+01 1.675e+01 6.160e+00 0.000e+00 0.000e+00 0.000e+00
226 2 1.501e+01 1.501e+01 6.160e+00 0.000e+00 0.000e+00 0.000e+00
227 1 8.802e-01 1.848e+01 6.160e+00 0.000e+00 0.000e+00 0.000e+00
228 1 4.404e+00 1.848e+01 6.160e+00 0.000e+00 0.000e+00 0.000e+00
229 1 7.929e+00 1.848e+01 6.160e+00 0.000e+00 0.000e+00 0.000e+00
230 2 1.145e+01 1.848e+01 6.160e+00 0.000e+00 0.000e+00 0.000e+00
231 1 8.813e-01 8.813e-01 9.680e+00 0.000e+00 0.000e+00 0.000e+00
232 1 2.643e+00 8.818e-01 7.920e+00 0.000e+00 0.000e+00 0.000e+00
233 1 4.405e+00 8.824e-01 9.680e+00 0.000e+00 0.000e+00 0.000e+00
234 1 6.165e+00 8.827e-01 7.920e+00 0.000e+00 0.000e+00 0.000e+00
235 1 7.925e+00 8.827e-01 9.680e+00 0.000e+00 0.000e+00 0.000e+00
236 1 9.684e+00 8.823e-01 7.920e+00 0.000e+00 0.000e+00 0.000e+00
237 1 1.144e+01 8.818e-01 9.680e+00 0.000e+00 0.000e+00 0.000e+00
238 1 1.320e+01 8.811e-01 7.920e+00 0.000e+00 0.000e+00 0.000e+00
239 1 1.672e+01 8.803e-01 7.920e+00 0.000e+00 0.000e+00 0.000e+00
240 1 1.496e+01 8.806e-01 9.680e+00 0.000e+00 0.000e+00 0.000e+00
241 1 1.848e+01 8.802e-01 9.680e+00 0.000e+00 0.000e+00 0.000e+00
242 1 8.818e-01 2.643e+00 7.920e+00 0.000e+00 0.000e+00 0.000e+00
243 1 8.824e-01 4.405e+00 9.680e+00 0.000e+00 0.000e+00 0.000e+00
244 1 4.406e+00 2.645e+00 7.920e+00 0.000e+00 0.000e+00 0.000e+00
245 1 2.645e+00 4.406e+00 7.920e+00 0.000e+00 0.000e+00 0.000e+00
246 1 2.644e+00 2.644e+00 9.680e+00 0.000e+00 0.000e+00 0.000e+00
247 1 4.408e+00 4.408e+00 9.680e+00 0.000e+00 0.000e+00 0.000e+00
248 1 6.169e+00 4.409e+00 7.920e+00 0.000e+00 0.000e+00 0.000e+00
249 1 6.167e+00 2.646e+00 9.680e+00 0.000e+00 0.000e+00 0.000e+00
250 1 7.927e+00 2.646e+00 7.920e+00 0.000e+00 0.000e+00 0.000e+00
251 1 7.930e+00 4.410e+00 9.680e+00 0.000e+00 0.000e+00 0.000e+00
252 1 1.144e+01 2.645e+00 7.920e+00 0.000e+00 0.000e+00 0.000e+00
253 1 9.689e+00 4.410e+00 7.920e+00 0.000e+00 0.000e+00 0.000e+00
254 1 9.686e+00 2.646e+00 9.680e+00 0.000e+00 0.000e+00 0.000e+00
255 1 1.145e+01 4.408e+00 9.680e+00 0.000e+00 0.000e+00 0.000e+00
256 1 1.320e+01 4.407e+00 7.920e+00 0.000e+00 0.000e+00 0.000e+00
257 1 1.320e+01 2.644e+00 9.680e+00 0.000e+00 0.000e+00 0.000e+00
258 1 1.496e+01 2.643e+00 7.920e+00 0.000e+00 0.000e+00 0.000e+00
259 1 1.672e+01 4.404e+00 7.920e+00 0.000e+00 0.000e+00 0.000e+00
260 1 1.496e+01 4.405e+00 9.680e+00 0.000e+00 0.000e+00 0.000e+00
261 1 1.672e+01 2.642e+00 9.680e+00 0.000e+00 0.000e+00 0.000e+00
262 1 1.848e+01 2.642e+00 7.920e+00 0.000e+00 0.000e+00 0.000e+00
263 1 1.848e+01 4.404e+00 9.680e+00 0.000e+00 0.000e+00 0.000e+00
264 1 8.827e-01 6.165e+00 7.920e+00 0.000e+00 0.000e+00 0.000e+00
265 1 4.409e+00 6.169e+00 7.920e+00 0.000e+00 0.000e+00 0.000e+00
266 1 2.646e+00 6.167e+00 9.680e+00 0.000e+00 0.000e+00 0.000e+00
267 1 6.172e+00 6.172e+00 9.680e+00 0.000e+00 0.000e+00 0.000e+00
268 1 7.933e+00 6.174e+00 7.920e+00 0.000e+00 0.000e+00 0.000e+00
269 1 1.145e+01 6.173e+00 7.920e+00 0.000e+00 0.000e+00 0.000e+00
270 1 9.693e+00 6.174e+00 9.680e+00 0.000e+00 0.000e+00 0.000e+00
271 1 1.321e+01 6.171e+00 9.680e+00 0.000e+00 0.000e+00 0.000e+00
272 1 1.496e+01 6.168e+00 7.920e+00 0.000e+00 0.000e+00 0.000e+00
273 1 1.672e+01 6.167e+00 9.680e+00 0.000e+00 0.000e+00 0.000e+00
274 1 1.848e+01 6.166e+00 7.920e+00 0.000e+00 0.000e+00 0.000e+00
275 1 8.827e-01 7.925e+00 9.680e+00 0.000e+00 0.000e+00 0.000e+00
276 1 2.646e+00 7.927e+00 7.920e+00 0.000e+00 0.000e+00 0.000e+00
277 1 4.410e+00 7.930e+00 9.680e+00 0.000e+00 0.000e+00 0.000e+00
278 1 6.174e+00 7.933e+00 7.920e+00 0.000e+00 0.000e+00 0.000e+00
279 1 7.936e+00 7.936e+00 9.680e+00 0.000e+00 0.000e+00 0.000e+00
280 1 9.698e+00 7.939e+00 7.920e+00 0.000e+00 0.000e+00 0.000e+00
281 1 1.146e+01 7.939e+00 9.680e+00 0.000e+00 0.000e+00 0.000e+00
282 1 1.321e+01 7.937e+00 7.920e+00 0.000e+00 0.000e+00 0.000e+00
283 1 1.672e+01 7.930e+00 7.920e+00 0.000e+00 0.000e+00 0.000e+00
284 1 1.497e+01 7.933e+00 9.680e+00 0.000e+00 0.000e+00 0.000e+00
285 1 1.848e+01 7.929e+00 9.680e+00 0.000e+00 0.000e+00 0.000e+00
286 1 8.823e-01 9.684e+00 7.920e+00 0.000e+00 0.000e+00 0.000e+00
287 1 8.818e-01 1.144e+01 9.680e+00 0.000e+00 0.000e+00 0.000e+00
288 1 4.410e+00 9.689e+00 7.920e+00 0.000e+00 0.000e+00 0.000e+00
289 1 2.645e+00 1.144e+01 7.920e+00 0.000e+00 0.000e+00 0.000e+00
290 1 2.646e+00 9.686e+00 9.680e+00 0.000e+00 0.000e+00 0.000e+00
291 1 4.408e+00 1.145e+01 9.680e+00 0.000e+00 0.000e+00 0.000e+00
292 1 6.173e+00 1.145e+01 7.920e+00 0.000e+00 0.000e+00 0.000e+00
293 1 6.174e+00 9.693e+00 9.680e+00 0.000e+00 0.000e+00 0.000e+00
294 1 7.939e+00 9.698e+00 7.920e+00 0.000e+00 0.000e+00 0.000e+00
295 1 7.939e+00 1.146e+01 9.680e+00 0.000e+00 0.000e+00 0.000e+00
296 1 1.146e+01 9.705e+00 7.920e+00 0.000e+00 0.000e+00 0.000e+00
297 1 9.705e+00 1.146e+01 7.920e+00 0.000e+00 0.000e+00 0.000e+00
298 1 9.702e+00 9.702e+00 9.680e+00 0.000e+00 0.000e+00 0.000e+00
299 1 1.147e+01 1.147e+01 9.680e+00 0.000e+00 0.000e+00 0.000e+00
300 1 1.323e+01 1.147e+01 7.920e+00 0.000e+00 0.000e+00 0.000e+00
301 1 1.322e+01 9.705e+00 9.680e+00 0.000e+00 0.000e+00 0.000e+00
302 1 1.497e+01 9.701e+00 7.920e+00 0.000e+00 0.000e+00 0.000e+00
303 1 1.673e+01 1.147e+01 7.920e+00 0.000e+00 0.000e+00 0.000e+00
304 1 1.499e+01 1.147e+01 9.680e+00 0.000e+00 0.000e+00 0.000e+00
305 1 1.673e+01 9.694e+00 9.680e+00 0.000e+00 0.000e+00 0.000e+00
306 1 1.848e+01 9.691e+00 7.920e+00 0.000e+00 0.000e+00 0.000e+00
307 2 1.848e+01 1.145e+01 9.680e+00 0.000e+00 0.000e+00 0.000e+00
308 1 8.811e-01 1.320e+01 7.920e+00 0.000e+00 0.000e+00 0.000e+00
309 1 4.407e+00 1.320e+01 7.920e+00 0.000e+00 0.000e+00 0.000e+00
310 1 2.644e+00 1.320e+01 9.680e+00 0.000e+00 0.000e+00 0.000e+00
311 1 6.171e+00 1.321e+01 9.680e+00 0.000e+00 0.000e+00 0.000e+00
312 1 7.937e+00 1.321e+01 7.920e+00 0.000e+00 0.000e+00 0.000e+00
313 1 1.147e+01 1.323e+01 7.920e+00 0.000e+00 0.000e+00 0.000e+00
314 1 9.705e+00 1.322e+01 9.680e+00 0.000e+00 0.000e+00 0.000e+00
315 1 1.324e+01 1.324e+01 9.680e+00 0.000e+00 0.000e+00 0.000e+00
316 2 1.500e+01 1.324e+01 7.920e+00 0.000e+00 0.000e+00 0.000e+00
317 2 1.675e+01 1.324e+01 9.680e+00 0.000e+00 0.000e+00 0.000e+00
318 2 1.848e+01 1.323e+01 7.920e+00 0.000e+00 0.000e+00 0.000e+00
319 1 8.803e-01 1.672e+01 7.920e+00 0.000e+00 0.000e+00 0.000e+00
320 1 8.806e-01 1.496e+01 9.680e+00 0.000e+00 0.000e+00 0.000e+00
321 1 2.642e+00 1.672e+01 9.680e+00 0.000e+00 0.000e+00 0.000e+00
322 1 2.643e+00 1.496e+01 7.920e+00 0.000e+00 0.000e+00 0.000e+00
323 1 4.404e+00 1.672e+01 7.920e+00 0.000e+00 0.000e+00 0.000e+00
324 1 4.405e+00 1.496e+01 9.680e+00 0.000e+00 0.000e+00 0.000e+00
325 1 6.167e+00 1.672e+01 9.680e+00 0.000e+00 0.000e+00 0.000e+00
326 1 6.168e+00 1.496e+01 7.920e+00 0.000e+00 0.000e+00 0.000e+00
327 1 7.930e+00 1.672e+01 7.920e+00 0.000e+00 0.000e+00 0.000e+00
328 1 7.933e+00 1.497e+01 9.680e+00 0.000e+00 0.000e+00 0.000e+00
329 1 9.694e+00 1.673e+01 9.680e+00 0.000e+00 0.000e+00 0.000e+00
330 1 9.701e+00 1.497e+01 7.920e+00 0.000e+00 0.000e+00 0.000e+00
331 1 1.147e+01 1.673e+01 7.920e+00 0.000e+00 0.000e+00 0.000e+00
332 1 1.147e+01 1.499e+01 9.680e+00 0.000e+00 0.000e+00 0.000e+00
333 2 1.324e+01 1.675e+01 9.680e+00 0.000e+00 0.000e+00 0.000e+00
334 2 1.324e+01 1.500e+01 7.920e+00 0.000e+00 0.000e+00 0.000e+00
335 2 1.676e+01 1.500e+01 7.920e+00 0.000e+00 0.000e+00 0.000e+00
336 2 1.501e+01 1.501e+01 9.680e+00 0.000e+00 0.000e+00 0.000e+00
337 2 1.500e+01 1.676e+01 7.920e+00 0.000e+00 0.000e+00 0.000e+00
338 1 8.802e-01 1.848e+01 9.680e+00 0.000e+00 0.000e+00 0.000e+00
339 1 4.404e+00 1.848e+01 9.680e+00 0.000e+00 0.000e+00 0.000e+00
340 1 2.642e+00 1.848e+01 7.920e+00 0.000e+00 0.000e+00 0.000e+00
341 1 6.166e+00 1.848e+01 7.920e+00 0.000e+00 0.000e+00 0.000e+00
342 1 7.929e+00 1.848e+01 9.680e+00 0.000e+00 0.000e+00 0.000e+00
343 2 1.145e+01 1.848e+01 9.680e+00 0.000e+00 0.000e+00 0.000e+00
344 1 9.691e+00 1.848e+01 7.920e+00 0.000e+00 0.000e+00 0.000e+00
345 2 1.323e+01 1.848e+01 7.920e+00 0.000e+00 0.000e+00 0.000e+00
346 1 8.804e-01 2.024e+01 8.800e-01 0.000e+00 0.000e+00 0.000e+00
347 1 4.404e+00 2.024e+01 8.800e-01 0.000e+00 0.000e+00 0.000e+00
348 1 7.930e+00 2.024e+01 8.800e-01 0.000e+00 0.000e+00 0.000e+00
349 1 1.147e+01 2.023e+01 8.800e-01 0.000e+00 0.000e+00 0.000e+00
350 2 1.500e+01 2.020e+01 8.800e-01 0.000e+00 0.000e+00 0.000e+00
351 1 8.811e-01 2.376e+01 8.800e-01 0.000e+00 0.000e+00 0.000e+00
352 1 2.643e+00 2.200e+01 8.800e-01 0.000e+00 0.000e+00 0.000e+00
353 1 4.407e+00 2.376e+01 8.800e-01 0.000e+00 0.000e+00 0.000e+00
354 1 6.168e+00 2.200e+01 8.800e-01 0.000e+00 0.000e+00 0.000e+00
355 1 7.937e+00 2.375e+01 8.800e-01 0.000e+00 0.000e+00 0.000e+00
356 1 9.701e+00 2.199e+01 8.800e-01 0.000e+00 0.000e+00 0.000e+00
357 1 1.147e+01 2.373e+01 8.800e-01 0.000e+00 0.000e+00 0.000e+00
358 2 1.324e+01 2.196e+01 8.800e-01 0.000e+00 0.000e+00 0.000e+00
359 2 1.676e+01 2.196e+01 8.800e-01 0.000e+00 0.000e+00 0.000e+00
360 2 1.500e+01 2.372e+01 8.800e-01 0.000e+00 0.000e+00 0.000e+00
361 2 1.848e+01 2.373e+01 8.800e-01 0.000e+00 0.000e+00 0.000e+00
362 1 2.645e+00 2.552e+01 8.800e-01 0.000e+00 0.000e+00 0.000e+00
363 1 6.173e+00 2.551e+01 8.800e-01 0.000e+00 0.000e+00 0.000e+00
364 1 9.705e+00 2.550e+01 8.800e-01 0.000e+00 0.000e+00 0.000e+00
365 1 1.323e+01 2.549e+01 8.800e-01 0.000e+00 0.000e+00 0.000e+00
366 1 1.673e+01 2.549e+01 8.800e-01 0.000e+00 0.000e+00 0.000e+00
367 1 8.822e-01 2.728e+01 8.800e-01 0.000e+00 0.000e+00 0.000e+00
368 1 4.410e+00 2.727e+01 8.800e-01 0.000e+00 0.000e+00 0.000e+00
369 1 7.939e+00 2.726e+01 8.800e-01 0.000e+00 0.000e+00 0.000e+00
370 1 1.146e+01 2.725e+01 8.800e-01 0.000e+00 0.000e+00 0.000e+00
371 1 1.497e+01 2.726e+01 8.800e-01 0.000e+00 0.000e+00 0.000e+00
372 1 1.848e+01 2.727e+01 8.796e-01 0.000e+00 0.000e+00 0.000e+00
373 1 8.825e-01 3.079e+01 8.800e-01 0.000e+00 0.000e+00 0.000e+00
374 1 2.646e+00 2.903e+01 8.800e-01 0.000e+00 0.000e+00 0.000e+00
375 1 4.409e+00 3.079e+01 8.800e-01 0.000e+00 0.000e+00 0.000e+00
376 1 6.174e+00 2.903e+01 8.800e-01 0.000e+00 0.000e+00 0.000e+00
377 1 7.933e+00 3.079e+01 8.800e-01 0.000e+00 0.000e+00 0.000e+00
378 1 9.698e+00 2.902e+01 8.800e-01 0.000e+00 0.000e+00 0.000e+00
379 1 1.145e+01 3.079e+01 8.800e-01 0.000e+00 0.000e+00 0.000e+00
380 1 1.321e+01 2.902e+01 8.800e-01 0.000e+00 0.000e+00 0.000e+00
381 1 1.672e+01 2.903e+01 8.799e-01 0.000e+00 0.000e+00 0.000e+00
382 1 1.496e+01 3.079e+01 8.800e-01 0.000e+00 0.000e+00 0.000e+00
383 1 1.848e+01 3.079e+01 8.797e-01 0.000e+00 0.000e+00 0.000e+00
384 1 2.645e+00 3.255e+01 8.800e-01 0.000e+00 0.000e+00 0.000e+00
385 1 6.169e+00 3.255e+01 8.800e-01 0.000e+00 0.000e+00 0.000e+00
386 1 9.688e+00 3.255e+01 8.800e-01 0.000e+00 0.000e+00 0.000e+00
387 1 1.320e+01 3.255e+01 8.800e-01 0.000e+00 0.000e+00 0.000e+00
388 1 1.672e+01 3.255e+01 8.799e-01 0.000e+00 0.000e+00 0.000e+00
389 1 8.816e-01 3.431e+01 8.800e-01 0.000e+00 0.000e+00 0.000e+00
390 1 4.406e+00 3.431e+01 8.800e-01 0.000e+00 0.000e+00 0.000e+00
391 1 2.643e+00 3.608e+01 8.800e-01 0.000e+00 0.000e+00 0.000e+00
392 1 6.165e+00 3.608e+01 8.800e-01 0.000e+00 0.000e+00 0.000e+00
393 1 7.927e+00 3.431e+01 8.800e-01 0.000e+00 0.000e+00 0.000e+00
394 1 1.144e+01 3.431e+01 8.800e-01 0.000e+00 0.000e+00 0.000e+00
395 1 9.684e+00 3.608e+01 8.800e-01 0.000e+00 0.000e+00 0.000e+00
396 1 1.320e+01 3.608e+01 8.800e-01 0.000e+00 0.000e+00 0.000e+00
397 1 1.496e+01 3.432e+01 8.800e-01 0.000e+00 0.000e+00 0.000e+00
398 1 1.672e+01 3.608e+01 8.800e-01 0.000e+00 0.000e+00 0.000e+00
399 1 1.848e+01 3.432e+01 8.800e-01 0.000e+00 0.000e+00 0.000e+00
400 1 8.811e-01 3.784e+01 8.800e-01 0.000e+00 0.000e+00 0.000e+00
401 1 4.404e+00 3.784e+01 8.800e-01 0.000e+00 0.000e+00 0.000e+00
402 1 7.924e+00 3.784e+01 8.800e-01 0.000e+00 0.000e+00 0.000e+00
403 1 1.144e+01 3.784e+01 8.800e-01 0.000e+00 0.000e+00 0.000e+00
404 1 1.496e+01 3.784e+01 8.800e-01 0.000e+00 0.000e+00 0.000e+00
405 1 1.848e+01 3.784e+01 8.800e-01 0.000e+00 0.000e+00 0.000e+00
406 1 8.804e-01 2.024e+01 4.400e+00 0.000e+00 0.000e+00 0.000e+00
407 1 2.642e+00 2.024e+01 2.640e+00 0.000e+00 0.000e+00 0.000e+00
408 1 4.404e+00 2.024e+01 4.400e+00 0.000e+00 0.000e+00 0.000e+00
409 1 6.167e+00 2.024e+01 2.640e+00 0.000e+00 0.000e+00 0.000e+00
410 1 7.930e+00 2.024e+01 4.400e+00 0.000e+00 0.000e+00 0.000e+00
411 1 9.694e+00 2.023e+01 2.640e+00 0.000e+00 0.000e+00 0.000e+00
412 1 1.147e+01 2.023e+01 4.400e+00 0.000e+00 0.000e+00 0.000e+00
413 2 1.324e+01 2.021e+01 2.640e+00 0.000e+00 0.000e+00 0.000e+00
414 2 1.500e+01 2.020e+01 4.400e+00 0.000e+00 0.000e+00 0.000e+00
415 1 8.807e-01 2.200e+01 2.640e+00 0.000e+00 0.000e+00 0.000e+00
416 1 8.811e-01 2.376e+01 4.400e+00 0.000e+00 0.000e+00 0.000e+00
417 1 4.405e+00 2.200e+01 2.640e+00 0.000e+00 0.000e+00 0.000e+00
418 1 2.643e+00 2.200e+01 4.400e+00 0.000e+00 0.000e+00 0.000e+00
419 1 2.644e+00 2.376e+01 2.640e+00 0.000e+00 0.000e+00 0.000e+00
420 1 4.407e+00 2.376e+01 4.400e+00 0.000e+00 0.000e+00 0.000e+00
421 1 6.168e+00 2.200e+01 4.400e+00 0.000e+00 0.000e+00 0.000e+00
422 1 6.171e+00 2.375e+01 2.640e+00 0.000e+00 0.000e+00 0.000e+00
423 1 7.933e+00 2.199e+01 2.640e+00 0.000e+00 0.000e+00 0.000e+00
424 1 7.937e+00 2.375e+01 4.400e+00 0.000e+00 0.000e+00 0.000e+00
425 1 1.147e+01 2.197e+01 2.640e+00 0.000e+00 0.000e+00 0.000e+00
426 1 9.701e+00 2.199e+01 4.400e+00 0.000e+00 0.000e+00 0.000e+00
427 1 9.705e+00 2.374e+01 2.640e+00 0.000e+00 0.000e+00 0.000e+00
428 1 1.147e+01 2.373e+01 4.400e+00 0.000e+00 0.000e+00 0.000e+00
429 2 1.324e+01 2.196e+01 4.400e+00 0.000e+00 0.000e+00 0.000e+00
430 1 1.324e+01 2.372e+01 2.640e+00 0.000e+00 0.000e+00 0.000e+00
431 2 1.501e+01 2.195e+01 2.640e+00 0.000e+00 0.000e+00 0.000e+00
432 2 1.676e+01 2.196e+01 4.400e+00 0.000e+00 0.000e+00 0.000e+00
433 2 1.500e+01 2.372e+01 4.400e+00 0.000e+00 0.000e+00 0.000e+00
434 2 1.675e+01 2.372e+01 2.640e+00 0.000e+00 0.000e+00 0.000e+00
435 2 1.848e+01 2.373e+01 4.400e+00 0.000e+00 0.000e+00 0.000e+00
436 1 8.816e-01 2.552e+01 2.640e+00 0.000e+00 0.000e+00 0.000e+00
437 1 4.408e+00 2.551e+01 2.640e+00 0.000e+00 0.000e+00 0.000e+00
438 1 2.645e+00 2.552e+01 4.400e+00 0.000e+00 0.000e+00 0.000e+00
439 1 6.173e+00 2.551e+01 4.400e+00 0.000e+00 0.000e+00 0.000e+00
440 1 7.939e+00 2.550e+01 2.640e+00 0.000e+00 0.000e+00 0.000e+00
441 1 1.147e+01 2.549e+01 2.640e+00 0.000e+00 0.000e+00 0.000e+00
442 1 9.705e+00 2.550e+01 4.400e+00 0.000e+00 0.000e+00 0.000e+00
443 1 1.323e+01 2.549e+01 4.400e+00 0.000e+00 0.000e+00 0.000e+00
444 1 1.499e+01 2.549e+01 2.640e+00 0.000e+00 0.000e+00 0.000e+00
445 1 1.673e+01 2.549e+01 4.400e+00 0.000e+00 0.000e+00 0.000e+00
446 2 1.848e+01 2.551e+01 2.640e+00 0.000e+00 0.000e+00 0.000e+00
447 1 8.822e-01 2.728e+01 4.400e+00 0.000e+00 0.000e+00 0.000e+00
448 1 2.646e+00 2.727e+01 2.640e+00 0.000e+00 0.000e+00 0.000e+00
449 1 4.410e+00 2.727e+01 4.400e+00 0.000e+00 0.000e+00 0.000e+00
450 1 6.174e+00 2.727e+01 2.640e+00 0.000e+00 0.000e+00 0.000e+00