# LAMMPS data file written by OVITO
4 atoms
10 bonds
1 atom types
1 bond types
-0.5 0.5 xlo xhi
-0.5 0.5 ylo yhi
-0.5 0.5 zlo zhi

Atoms # bond

1 1 1 0.000000e+00 2.000000e-01 0.000000e+00
2 1 1 0.000000e+00 -2.000000e-01 0.000000e+00
3 1 1 0.000000e+00 0.000000e+00 0.000000e+00
4 1 1 -2.000000e-01 0.000000e+00 0.000000e+00

Bonds

1 1 1 1
2 1 1 3
3 1 2 2
4 1 2 3
5 1 3 1
6 1 3 2
7 1 3 3
8 1 3 4
9 1 4 3
10 1 4 4
