       13067
Lattice=" 147.7202   0.0000   0.0000   0.0000 107.6546   0.0000   0.0000   0.0000   8.4581 " Time=0.000E+00  Step=0  Energy=-57943.828  Barrier=0.000
Ni   -73.25852542  -52.91846348   -3.76121931       1
Ni   -73.26532800  -50.92596885   -0.94399201       2
Ni   -73.27204826  -48.93431483   -2.35727875       3
Ni   -72.04276734  -50.93277230   -3.05764816       4
Ni   -72.04859453  -48.94113955   -0.24187434       5
Ni   -72.03688876  -52.92525466   -1.64581679       6
Ni   -70.81524976  -52.93200627   -3.75950195       7
Ni   -70.82019707  -50.93953715   -0.94224648       8
Ni   -70.82512535  -48.94792750   -2.35556023       9
Ni   -69.59761443  -50.94625792   -3.05593022      10
Ni   -69.60163677  -48.95467344   -0.24018758      11
Ni   -69.59360701  -52.93871264   -1.64412610      12
Ni   -68.37195899  -52.94536867   -3.75783251      13
Ni   -68.37501647  -50.95292964   -0.94055054      14
Ni   -68.37812461  -48.96137267   -2.35389954      15
Ni   -67.15240007  -50.95954786   -3.05425062      16
Ni   -67.15458443  -48.96802100   -0.23854725      17
Ni   -67.15030411  -52.95196973   -1.64247245      18
Ni   -65.92864067  -52.95851162   -3.75618923      19
Ni   -65.92976187  -50.96610854   -0.93888163      20
Ni   -65.93101148  -48.97461465   -2.35227393      21
Ni   -64.70709832  -50.97260802   -3.05258686      22
Ni   -64.70740070  -48.98115026   -0.23693085      23
Ni   -64.70696687  -52.96499052   -1.64083419      24
Ni   -63.48528078  -52.97140296   -3.75455082      25
Ni   -63.48440558  -50.97904298   -0.93721763      26
Ni   -63.48374668  -48.98762480   -2.35066145      27
Ni   -62.26167954  -50.98541040   -3.05091744      28
Ni   -62.26004361  -48.99403558   -0.23531724      29
Ni   -62.26358036  -52.97774572   -1.63919069      30
Ni   -61.04186341  -52.98401589   -3.75289757      31
Ni   -61.03891581  -50.99170757   -0.93553788      32
Ni   -61.03628527  -49.00038021   -2.34904197      33
Ni   -59.81610962  -50.99793203   -3.04922273      34
Ni   -59.81246494  -49.00665661   -0.23368753      35
Ni   -59.82012761  -52.99021082   -1.63752336      36
Ni   -58.59837043  -52.99632806   -3.75121215      37
Ni   -58.59325585  -51.00408159   -0.93382394      38
Ni   -58.58857539  -49.01286299   -2.34739803      39
Ni   -57.37034893  -51.01015429   -3.04748565      40
Ni   -57.36460879  -49.01899785   -0.23202579      41
Ni   -57.37658916  -53.00236543   -1.63581621      42
Ni   -56.15478084  -53.00832095   -3.74948005      43
Ni   -56.14738279  -51.01614847   -0.93206016      44
Ni   -56.14055667  -49.02506001   -2.34571538      45
Ni   -54.92435080  -51.02206272   -3.04569197      46
Ni   -54.91640980  -49.03104863   -0.23031956      47
Ni   -54.93294227  -53.01419289   -1.63405630      48
Ni   -53.71106994  -53.01997974   -3.74768985      49
Ni   -53.70124572  -51.02789592   -0.93023376      50
Ni   -53.69215813  -49.03696325   -2.34398336      51
Ni   -52.47805956  -51.03364732   -3.04383037      52
Ni   -52.46779066  -49.04280380   -0.22856001      53
Ni   -52.48915997  -53.02568029   -1.63223371      54
Ni   -51.26720812  -53.03129361   -3.74583310      55
Ni   -51.25478347  -51.03931649   -0.92833476      56
Ni   -51.24329528  -49.04857075   -2.34219499      57
Ni   -50.03140763  -51.04490346   -3.04189205      58
Ni   -50.01865868  -49.05426510   -0.22674198      59
Ni   -50.04520963  -53.03681912   -1.63034130      60
Ni   -48.82315923  -53.04225665   -3.74390375      61
Ni   -48.80792109  -51.05040878   -0.92635542      62
Ni   -48.79386612  -49.05988847   -2.34034687      63
Ni   -47.58431156  -51.05583357   -3.03987012      64
Ni   -47.56890124  -49.06544331   -0.22486371      65
Ni   -47.60105092  -53.04760649   -1.62837390      66
Ni   -46.37887794  -53.05286949   -3.74189723      67
Ni   -46.36056518  -51.06117968   -0.92428937      68
Ni   -46.34374579  -49.07093298   -2.33843876      69
Ni   -45.13666624  -51.06644982   -3.03775836      70
Ni   -45.11837936  -49.07636197   -0.22292638      71
Ni   -45.15663256  -53.05804711   -1.62632710      72
Ni   -43.93430585  -53.06314163   -3.73980870      73
Ni   -43.91259683  -51.07164772   -0.92213012      74
Ni   -43.89277902  -49.08173607   -2.33647308      75
Ni   -42.68833637  -51.07677845   -3.03554941      76
Ni   -42.66691887  -49.08706285   -0.22093338      77
Ni   -42.71188743  -53.06815628   -1.62419481      78
Ni   -41.48936511  -53.07309548   -3.73762977      79
Ni   -41.46386106  -51.08184862   -0.91986857      80
Ni   -41.44076956  -49.09235191   -2.33445386      81
Ni   -40.23914321  -51.08686683   -3.03323139      82
Ni   -40.21429768  -49.09761543   -0.21888898      83
Ni   -40.26672443  -53.07796507   -1.62196508      84
Ni   -39.04394800  -53.08277266   -3.73534324      85
Ni   -39.01415038  -51.09184415   -0.91748888      86
Ni   -38.98746503  -49.10286871   -2.33238505      87
Ni   -37.78884427  -51.09679462   -3.03078306      88
Ni   -37.76022775  -49.10813097   -0.21679609      89
Ni   -37.82101462  -53.08752794   -1.61961317      90
Ni   -36.59789810  -53.09224332   -3.73291360      91
Ni   -36.56317935  -51.10173629   -0.91496256      92
Ni   -36.53253526  -49.11342641   -2.33026766      93
Ni   -35.33710092  -51.10669235   -3.02816627      94
Ni   -35.30432910  -49.11878567   -0.21465263      95
Ni   -35.37456559  -53.09693466   -1.61708828      96
Ni   -34.15097499  -53.10162229   -3.73026868      97
Ni   -34.11054294  -51.11169256   -0.91223868      98
Ni   -34.07554139  -49.12424751   -2.32809488      99
Ni   -32.88342496  -51.11677539   -3.02531332     100
Ni   -32.84609338  -49.12986126   -0.21244466     101
Ni   -32.92707135  -53.10633188   -1.61428807     102
Ni   -31.70278132  -53.11109652   -3.72726274     103
Ni   -31.65564832  -51.12199118   -0.90922774     104
Ni   -31.61589366  -49.13569004   -2.32584177     105
Ni   -30.42709081  -51.12740657   -3.02210623     106
Ni   -30.38483641  -49.14181511   -0.21012998     107
Ni   -30.47800507  -53.11595945   -1.61100386     108
Ni   -29.25260298  -53.12097772   -3.72359484     109
Ni   -29.19760064  -51.13311086   -0.90577401     110
Ni   -29.15279984  -49.14834178   -2.32343847     111
Ni   -27.96698793  -51.13922581   -3.01833806     112
Ni   -27.91964639  -49.15540693   -0.20759330     113
Ni   -28.02637730  -53.12622823   -1.60679748     114
Ni   -26.79904093  -53.13181983   -3.71862064     115
Ni   -26.73501565  -51.14591992   -0.90159813     116
Ni   -26.68522425  -49.16318914   -2.32069347     117
Ni   -25.50138669  -51.15343134   -3.01362138     118
Ni   -25.44937643  -49.17191743   -0.20451323     119
Ni   -25.57017769  -53.13791037   -1.60071370     120
Ni   -24.33917227  -53.14474438   -3.71091732     121
Ni   -24.26573905  -51.16209491   -0.89614093     122
Ni   -24.21195473  -49.18187913   -2.31706400     123
Ni   -23.02763791  -51.17238420   -3.00710798     124
Ni   -22.97286167  -49.19340139   -0.19997674     125
Ni   -23.10514451  -53.15270334   -1.59063742     126
Ni   -21.86683206  -53.16240262   -3.69738784     127
Ni   -21.78661473  -51.18491527   -0.88805138     128
Ni   -21.73209006  -49.20679935   -2.31105339     129
Ni   -20.54222557  -51.20041143   -2.99660760     130
Ni   -20.48984551  -49.22216314   -0.19166449     131
Ni   -20.62256126  -53.17474843   -1.57215447     132
NiV  -19.36997399  -53.19106987   -3.67192417     133
Ni   -19.29443354  -51.21926551   -0.87391900     134
Ni   -19.24653403  -49.23900956   -2.29946131     135
Ni   -18.04386267  -51.24015504   -2.97738151     136
Ni   -18.00287934  -49.25544784   -0.17621464     137
NiV  -18.10637095  -53.21253837   -1.53724669     138
NiV  -16.83085406  -53.23496877   -3.62631603     139
Ni   -16.79236696  -51.25748729   -0.84889850     140
Ni   -16.75926890  -49.26851270   -2.28113659     141
Ni   -15.54021104  -51.26549230   -2.94920448     142
Ni   -15.51531676  -49.27515595   -0.15757647     143
NiV  -15.55121338  -53.24170833   -1.48521287     144
NiV  -14.27046832  -53.22513781   -3.57672048     145
Ni   -14.28585418  -51.26204221   -0.82209148     146
Ni   -14.27032156  -49.27393447   -2.26452927     147
Ni   -13.02846613  -51.24835418   -2.92479109     148
Ni   -13.02357025  -49.26583416   -0.14374990     149
NiV  -12.99383261  -53.19894306   -1.44501463     150
NiV  -11.72811502  -53.17654020   -3.54794260     151
Ni   -11.77010605  -51.22999483   -0.79857773     152
Ni   -11.77461652  -49.25344564   -2.25266914     153
Ni   -10.51354482  -51.21261711   -2.90288846     154
Ni   -10.52404122  -49.23947447   -0.13264832     155
NiV  -10.47176362  -53.15902745   -1.42511628     156
NiV   -9.22294414  -53.14527873   -3.53418182     157
Ni    -9.25936144  -51.19750606   -0.78024173     158
Ni    -9.27273536  -49.22605743   -2.24248593     159
Ni    -8.00770984  -51.18487835   -2.88947809     160
Ni    -8.02115468  -49.21409514   -0.12442562     161
NiV   -7.97863098  -53.13396943   -1.41610612     162
NiV   -6.73837937  -53.12457308   -3.52971052     163
Ni    -6.75747650  -51.17460647   -0.77214534     164
Ni    -6.76978502  -49.20388132   -2.23740386     165
Ni    -5.50869643  -51.16608663   -2.88701826     166
Ni    -5.51809666  -49.19616238   -0.12320526     167
NiV   -5.49840102  -53.11656682   -1.41562253     168
NiV   -4.26079516  -53.10950935   -3.53359470     169
Ni    -4.25890014  -51.16063566   -0.77517608     170
Ni    -4.26700851  -49.18970558   -2.24030807     171
Ni    -3.00986449  -51.15524425   -2.89558666     172
Ni    -3.01445229  -49.18759449   -0.13059212     173
NiV   -3.01834148  -53.10465623   -1.42364547     174
NiV   -1.77863262  -53.09928283   -3.54586590     175
Ni    -1.75595736  -51.15718798   -0.78950724     176
Ni    -1.76327400  -49.18484205   -2.25086702     177
Ni    -0.50292821  -51.15504353   -2.91488185     178
Ni    -0.50992876  -49.19020170   -0.14464752     179
NiV   -0.52458738  -53.10075190   -1.44135203     180
NiV    0.72418343  -53.09928999   -3.56556819     181
Ni     0.75880603  -51.17074851   -0.81532431     182
Ni     0.74094828  -49.19115451   -2.26542693     183
Ni     2.02077539  -51.17910245   -2.94324155     184
Ni     1.98908832  -49.19960232   -0.15621766     185
NiV    2.00886123  -53.12031902   -1.46932291     186
NiV    3.29131889  -53.15255968   -3.59969673     187
Ni     3.27635656  -51.19857432   -0.82710242     188
Ni     3.23314843  -49.19086127   -2.27429242     189
Ni     4.52222309  -51.16603249   -2.96046410     190
Ni     4.47405594  -49.18220826   -0.17060755     191
NiV    4.58150494  -53.15600411   -1.49945437     192
NiV    5.84576084  -53.10235149   -3.64964763     193
Ni     5.77678184  -51.13442249   -0.87009442     194
Ni     5.71738499  -49.14697839   -2.29902429     195
Ni     7.02204673  -51.09666066   -3.00531941     196
Ni     6.96054894  -49.11703855   -0.19717561     197
NiV    7.13564919  -53.05526684   -1.56708805     198
NiV    8.37173391  -53.03429123   -3.70244031     199
Ni     8.27757861  -51.05740375   -0.89770667     200
Ni     8.20196380  -49.08461884   -2.32531783     201
Ni     9.51715377  -51.03248716   -3.02484019     202
Ni     9.44711676  -49.05289622   -0.21736648     203
NiV    9.62904450  -53.00178450   -1.60039557     204
NiV   10.86048697  -52.98369273   -3.72635497     205
Ni    10.76451011  -51.00280844   -0.91505363     206
Ni    10.68604572  -49.02778035   -2.33980813     207
Ni    12.00048989  -50.98235835   -3.03668321     208
Ni    11.92810146  -49.00166104   -0.22921105     209
NiV   12.10041442  -52.96112352   -1.61915333     210
NiV   13.32949308  -52.94424487   -3.74072006     211
Ni    13.23979112  -50.96033931   -0.92639702     212
Ni    13.16485516  -48.98074706   -2.34845763     213
Ni    14.47301829  -50.94260707   -3.04576864     214
Ni    14.40265365  -48.95987407   -0.23711943     215
NiV   14.56102796  -52.92674727   -1.63125089     216
NiV   15.78823937  -52.91162083   -3.75065894     217
Ni    15.70690695  -50.92517010   -0.93505211     218
Ni    15.63714908  -48.94199170   -2.35504735     219
Ni    16.93774112  -50.90984292   -3.05337354     220
Ni    16.87142313  -48.92491007   -0.24337237     221
NiV   17.01581980  -52.89706066   -1.64006134     222
NiV   18.24154216  -52.88378444   -3.75829663     223
Ni    18.16824282  -50.89535562   -0.94216831     224
Ni    18.10374499  -48.90959910   -2.36071680     225
Ni    19.39711972  -50.88215753   -3.05985619     226
Ni    19.33541585  -48.89528813   -0.24875123     227
NiV   19.46705411  -52.87131773   -1.64696960     228
NiV   20.69165866  -52.85978594   -3.76448064     229
Ni    20.62543166  -50.86986556   -0.94819064     230
Ni    20.56585954  -48.88221195   -2.36573176     231
Ni    21.85278230  -50.85855463   -3.06540138     232
Ni    21.79561349  -48.87011102   -0.25347468     233
Ni    21.91595409  -52.84905934   -1.65261359     234
Ni    23.13973912  -52.83913836   -3.76961170     235
Ni    23.07959680  -50.84810015   -0.95332197     236
Ni    23.02452713  -48.85901060   -2.37014702     237
Ni    24.30578113  -50.83849476   -3.07012949     238
Ni    24.25283826  -48.84881405   -0.25759692     239
Ni    24.36324677  -52.82997710   -1.65731387     240
Ni    25.58643232  -52.82155838   -3.77390722     241
Ni    25.53152234  -50.82968774   -0.95767649     242
Ni    25.48053579  -48.83950226   -2.37397354     243
Ni    26.75682021  -50.82166087   -3.07412319     244
Ni    26.70774044  -48.83103024   -0.26113020     245
Ni    26.80939734  -52.81385874   -1.66124530     246
Ni    28.03214438  -52.80686379   -3.77749275     247
Ni    27.98176937  -50.81438783   -0.96132552     248
Ni    27.93448033  -48.82337626   -2.37721287     249
Ni    29.20639437  -50.80785402   -3.07743619     250
Ni    29.16082721  -48.81651492   -0.26407472     251
Ni    29.25472496  -52.80055980   -1.66450524     252
Ni    30.47715386  -52.79493809   -3.78043650     253
Ni    30.43075085  -50.80204450   -0.96431029     254
Ni    30.38681623  -48.81042991   -2.37986051     255
Ni    31.65486659  -50.79694999   -3.08009606     256
Ni    31.61249584  -48.80510572   -0.26642230     257
Ni    31.69946162  -52.78999171   -1.66714068     258
Ni    32.92166420  -52.78571693   -3.78276549     259
Ni    32.87877845  -50.79256221   -0.96664690     260
Ni    32.83789866  -48.80053124   -2.38190383     261
Ni    34.10251116  -50.78887562   -3.08210841     262
Ni    34.06306017  -48.79669627   -0.26815642     263
Ni    34.14378185  -52.78211119   -1.66916321     264
Ni    35.36582829  -52.77917317   -3.78447862     265
Ni    35.32609102  -50.78588488   -0.96833303     266
Ni    35.28800808  -48.79359218   -2.38332359     267
Ni    36.54953824  -50.78358491   -3.08346568     268
Ni    36.51276951  -48.79120993   -0.26925713     269
Ni    36.58781757  -52.77690115   -1.67056340     270
Ni    37.80976026  -52.77529241   -3.78556208     271
Ni    37.77287218  -50.78196925   -0.96935945     272
Ni    37.73736714  -48.78953961   -2.38410180     273
Ni    38.99610860  -50.78102948   -3.08416065     274
Ni    38.96182199  -48.78856911   -0.26971150     275
Ni    39.03166597  -52.77434195   -1.67132774     276
Ni    40.25354214  -52.77404172   -3.78600703     277
Ni    40.21926172  -50.78075410   -0.96972484     278
Ni    40.18615209  -48.78828356   -2.38423386     279
Ni    41.44234332  -50.78112804   -3.08420141     280
Ni    41.41037365  -48.78866444   -0.26952631     281
Ni    41.47539497  -52.77437981   -1.67145618     282
Ni    42.69722915  -52.77534002   -3.78582554     283
Ni    42.66536363  -50.78213214   -0.96944966     284
Ni    42.63450063  -48.78968939   -2.38374045     285
Ni    43.88833111  -50.78374308   -3.08362290     286
Ni    43.85854522  -48.79133204   -0.26873788     287
Ni    43.91904832  -52.77690169   -1.67097543     288
Ni    45.14085506  -52.77903974   -3.78506031     289
Ni    45.11125285  -50.78593347   -0.96858437     290
Ni    45.08251786  -48.79356216   -2.38267422     291
Ni    46.33413465  -50.78867224   -3.08249107     292
Ni    46.30642747  -48.79634614   -0.26741481     293
Ni    46.36265117  -52.78172506   -1.66994439     294
Ni    47.58443778  -52.78492512   -3.78378549     295
Ni    47.55698128  -50.79192525   -0.96720938     296
Ni    47.53028158  -48.79964759   -2.38111840     297
Ni    48.77979658  -50.79565595   -3.08089875     298
Ni    48.75408649  -48.80342808   -0.26565271     299
Ni    48.80621557  -52.78860464   -1.66845053     300
Ni    50.02798483  -52.79272646   -3.78209922     301
Ni    50.00258365  -50.79982627   -0.96542724     302
Ni    49.97784749  -48.80764796   -2.37917802     303
Ni    51.22534500  -50.80439736   -3.07895514     304
Ni    51.20156897  -48.81226718   -0.26356275     305
Ni    51.24974562  -52.79725236   -1.66659952     306
Ni    52.47149785  -52.80214391   -3.78011134     307
Ni    52.44808268  -50.80933038   -0.96335051     308
Ni    52.42525463  -48.81724600   -2.37696705     309
Ni    53.67079839  -50.81458723   -3.07677292     310
Ni    53.64890758  -48.82254570   -0.26125841     311
Ni    53.69324139  -52.80736313   -1.66450207     312
Ni    54.91497606  -52.81287318   -3.77793039     313
Ni    54.89349360  -50.82013105   -0.96108906     314
Ni    54.87253052  -48.82812908   -2.37459548     315
Ni    56.11616959  -50.82592673   -3.07445661     316
Ni    56.09612579  -48.83396090   -0.25884374     317
Ni    56.13670176  -52.81863881   -1.66226193     318
Ni    57.35841841  -52.82462674   -3.77565318     319
Ni    57.33882757  -50.83194122   -0.95874000     320
Ni    57.31969557  -48.84000813   -2.37215945     321
Ni    58.56146870  -50.83814376   -3.07209441     322
Ni    58.54324186  -48.84624019   -0.25640552     323
Ni    58.58012604  -52.83080589   -1.65996734     324
Ni    59.80182477  -52.83714755   -3.77335834     325
Ni    59.78409412  -50.84450596   -0.95638165     326
Ni    59.76676663  -48.85262896   -2.36973550     327
Ni    61.00670502  -50.85100185   -3.06975425     328
Ni    60.99027180  -48.85914881   -0.25400959     329
Ni    61.02351480  -52.84362539   -1.65768674     330
Ni    62.24519645  -52.85021544   -3.77110390     331
Ni    62.22930266  -50.85760784   -0.95407140     332
Ni    62.21375934  -48.86577650   -2.36737876     333
Ni    63.45188834  -50.86430261   -3.06748314     334
Ni    63.43723130  -48.87249110   -0.25170070     335
Ni    63.46687015  -52.85689602   -1.65546793     336
Ni    64.68853639  -52.86364762   -3.76892788     337
Ni    64.67446347  -50.87106697   -0.95184638     338
Ni    64.66068976  -48.87927385   -2.36512406     339
Ni    65.89702953  -50.87788375   -3.06530903     340
Ni    65.88413696  -48.88610797   -0.24950445     341
Ni    65.91019580  -52.87045272   -1.65333975     342
Ni    67.13184906  -52.87729567   -3.76685066     343
Ni    67.11958814  -50.88473761   -0.94972606     344
Ni    67.10757523  -48.89297847   -2.36298864     345
Ni    68.34214099  -50.89161484   -3.06324372     346
Ni    68.33100703  -48.89987205   -0.24743057     347
Ni    68.35349696  -52.88416250   -1.65131492     348
Ni    69.57514037  -52.89104075   -3.76487819     349
Ni    69.56468989  -50.89850326   -0.94771550     350
Ni    69.55443499  -48.90677685   -2.36097557     351
Ni    70.78723679  -50.90539202   -3.06128636     352
Ni    70.77786187  -48.91368237   -0.24547637     353
Ni    70.79678023  -52.89791934   -1.64939348     354
Ni    72.01841756  -52.90478837   -3.76300538     355
Ni    72.00978372  -50.91227145   -0.94580874     356
Ni    72.00129061  -48.92057926   -2.35907728     357
Ni    73.23233286  -50.91913295   -3.05942671     358
Ni    73.22472431  -48.92745921   -0.24363020     359
Ni    73.24005347  -52.91163904   -1.64756604     360
Ni   -73.27867556  -46.94347082   -3.77194754     361
Ni   -73.28519138  -44.95339879   -0.95884881     362
Ni   -73.29156829  -42.96405453   -2.37603816     363
Ni   -72.06007546  -44.96028683   -3.07261161     364
Ni   -72.06569568  -42.97098073   -0.26080282     365
Ni   -72.05436782  -46.95032434   -1.65657975     366
Ni   -70.83004051  -46.95714358   -3.77030561     367
Ni   -70.83493788  -44.96714352   -0.95732614     368
Ni   -70.83980154  -42.97787877   -2.37466958     369
Ni   -69.60977304  -44.97396437   -3.07113552     370
Ni   -69.61387975  -42.98474463   -0.25948943     371
Ni   -69.60568875  -46.96392362   -1.65497623     372
Ni   -68.38130735  -46.97066012   -3.76873477     373
Ni   -68.38457497  -44.98074544   -0.95589085     374
Ni   -68.38792383  -42.99157483   -2.37340550     375
Ni   -67.15933737  -44.98748328   -3.06973539     376
Ni   -67.16192689  -42.99836640   -0.25826902     377
Ni   -67.15689081  -46.97734922   -1.65343240     378
Ni   -65.93243325  -46.98398752   -3.76721240     379
Ni   -65.93405353  -44.99417492   -0.95452048     380
Ni   -65.93588165  -43.00511679   -2.37222345     381
Ni   -64.70871631  -45.00081777   -3.06838969     382
Ni   -64.70978036  -43.01182390   -0.25712045     383
Ni   -64.70792841  -46.99057201   -1.65192618     384
Ni   -63.48336965  -46.99710007   -3.76571730     385
Ni   -63.48331813  -45.00740964   -0.95319475     386
Ni   -63.48361485  -43.01848600   -2.37110393     387
Ni   -62.25785091  -45.01394872   -3.06707965     388
Ni   -62.25737642  -43.02510176   -0.25602606     389
Ni   -62.25874983  -47.00356940   -1.65043750     390
Ni   -61.03406134  -47.00997806   -3.76423076     391
Ni   -61.03230604  -45.02043355   -0.95189663     392
Ni   -61.03105586  -43.03167020   -2.37003134     393
Ni   -59.80667434  -45.02686303   -3.06579020     394
Ni   -59.80464341  -43.03819076   -0.25497253     395
Ni   -59.80929599  -47.01632446   -1.64894925     396
Ni   -58.58444500  -47.02260728   -3.76273743     397
Ni   -58.58094602  -45.03323644   -0.95061319     398
Ni   -58.57812869  -43.04466325   -2.36899477     399
Ni   -57.35511059  -45.03955346   -3.06451073     400
Ni   -57.35150072  -43.05108790   -0.25395149     401
Ni   -57.35949892  -47.02882562   -1.64744799     402
Ni   -56.13444757  -47.03497889   -3.76122595     403
Ni   -56.12915682  -45.04581415   -0.94933627     404
Ni   -56.12474780  -43.05746539   -2.36798854     405
Ni   -54.90307269  -45.05201904   -3.06323563     406
Ni   -54.89785752  -43.06379687   -0.25296006     407
Ni   -54.90927995  -47.04106695   -1.64592458     408
Ni   -53.68398414  -47.04709007   -3.75968950     409
Ni   -53.67684527  -45.05816919   -0.94806296     410
Ni   -53.67081666  -43.07008405   -2.36701261     411
Ni   -52.45046066  -45.06426623   -3.06196481     412
Ni   -52.44361119  -43.07632927   -0.25200108     413
Ni   -52.45854719  -47.05304908   -1.64437458     414
Ni   -51.23295504  -47.05894537   -3.75812608     415
Ni   -51.22390392  -45.07031247   -0.94679607     416
Ni   -51.21622618  -43.08253557   -2.36607274     417
Ni   -49.99715892  -45.07631099   -3.06070403     418
Ni   -49.98864573  -43.08870679   -0.25108316     419
Ni   -50.00719234  -47.06478101   -1.64279854     420
Ni   -48.78124229  -47.07055889   -3.75653883     421
Ni   -48.77020826  -45.08226576   -0.94554431     422
Ni   -48.76085296  -43.09484769   -2.36518029     423
Ni   -47.54303313  -45.08818178   -3.05946492     424
Ni   -47.53282989  -43.10096409   -0.25022030     425
Ni   -47.55508647  -47.07628283   -1.64120214     426
Ni   -46.32870467  -47.08195778   -3.75493598     427
Ni   -46.31561321  -45.09406532   -0.94432218     428
Ni   -46.30455745  -43.10706308   -2.36435160     429
Ni   -45.08792648  -45.09992408   -3.05826475     430
Ni   -45.07601544  -43.11315319   -0.24943076     431
Ni   -45.10207459  -47.08759002   -1.63959614     432
Ni   -43.87517158  -47.09318742   -3.75333075     433
Ni   -43.85994908  -45.10576749   -0.94314954     434
Ni   -43.84718244  -43.11924461   -2.36360639     435
Ni   -42.63165518  -45.11160705   -3.05712564     436
Ni   -42.61803588  -43.12534953   -0.24873492     437
Ni   -42.64796837  -47.09875985   -1.63799611     438
Ni   -41.42043467  -47.10431959   -3.75174079     439
Ni   -41.40301682  -45.11745675   -0.94205018     440
Ni   -41.38855209  -43.13148241   -2.36296447     441
Ni   -40.17400381  -45.12333355   -3.05607218     442
Ni   -40.15870634  -43.13766042   -0.24815045     443
Ni   -40.19253687  -47.10988184   -1.63642145     444
Ni   -38.96423751  -47.11546535   -3.75018678     445
Ni   -38.94458364  -45.12925789   -0.94104824     446
Ni   -38.92847311  -43.14390380   -2.36243922     447
Ni   -37.71472148  -45.13525441   -3.05512623     448
Ni   -37.69782628  -43.15023638   -0.24768349     449
Ni   -37.73549493  -47.12109318   -1.63489328     450
Ni   -36.50626279  -47.12679380   -3.74868898     451
Ni   -36.48438024  -45.14135272   -0.94016061     452
Ni   -36.46673965  -43.15668602   -2.36202554     453
Ni   -35.25352092  -45.14758840   -3.05429575     454
Ni   -35.23518759  -43.16328521   -0.24731220     455
Ni   -35.27648967  -47.13260231   -1.63342893     456
Ni   -34.04611880  -47.13856210   -3.74725859     457
Ni   -34.02210306  -45.15400404   -0.93938058     458
Ni   -34.00314592  -43.17007152   -2.36167756     459
Ni   -32.79008578  -45.16065037   -3.05355102     460
Ni   -32.77059326  -43.17708804   -0.24695725     461
Ni   -32.81508789  -47.14472677   -1.63202860     462
Ni   -31.58332953  -47.15116253   -3.74587704     463
Ni   -31.55742932  -45.16758757   -0.93864355     464
Ni   -31.53751270  -43.18438341   -2.36127043     465
Ni   -30.32409748  -45.17488600   -3.05277597     466
Ni   -30.30389384  -43.19201164   -0.24643344     467
Ni   -30.35077225  -47.15795125   -1.63064262     468
Ni   -29.11734333  -47.16519319   -3.74444425     469
Ni   -29.09006084  -45.18262701   -0.93775921     470
Ni   -29.06973567  -43.20003066   -2.36054135     471
Ni   -27.85530199  -45.19090141   -3.05167601     472
Ni   -27.83504921  -43.20849982   -0.24538228     473
Ni   -27.88297237  -47.17301066   -1.62909064     474
Ni   -26.64760031  -47.18154841   -3.74265444     475
Ni   -26.61982121  -45.19980651   -0.93629187     476
Ni   -26.59986136  -43.21747373   -2.35902091     477
Ni   -25.38364544  -45.20943565   -3.04963461     478
Ni   -25.36421719  -43.22699323   -0.24321832     479
Ni   -25.41118962  -47.19097214   -1.62687642     480
Ni   -24.17374566  -47.20145148   -3.73973443     481
Ni   -24.14683416  -45.21986194   -0.93341339     482
Ni   -24.12818264  -43.23706663   -2.35602454     483
Ni   -22.90948852  -45.23109934   -3.04561527     484
Ni   -22.89184357  -43.24764285   -0.23921484     485
Ni   -22.93533256  -47.21312970   -1.62285433     486
Ni   -21.69610785  -47.22603452   -3.73410597     487
Ni   -21.67174790  -45.24305013   -0.92796184     488
Ni   -21.65530150  -43.25856619   -2.35090198     489
Ni   -20.43378080  -45.25540514   -3.03855341     490
Ni   -20.41866392  -43.26951913   -0.23299628     491
Ni   -20.45631294  -47.23995946   -1.61510086     492
Ni   -19.21626565  -47.25420372   -3.72392531     493
Ni   -19.19575504  -45.26753380   -0.91938290     494
Ni   -19.18201551  -43.27997182   -2.34382634     495
Ni   -17.95776104  -45.27843248   -3.02897180     496
Ni   -17.94539035  -43.28918481   -0.22556685     497
Ni   -17.97623011  -47.26741236   -1.60280404     498
Ni   -16.73621023  -47.27769582   -3.71065345     499
Ni   -16.71975872  -45.28686802   -0.90973829     500
Ni   -16.70871061  -43.29634431   -2.33676418     501
Ni   -15.48148293  -45.29178900   -3.02038746     502
Ni   -15.47181616  -43.30075863   -0.21963574     503
Ni   -15.49594411  -47.28327058   -1.59018722     504
Ni   -14.25483566  -47.28337299   -3.70009100     505
Ni   -14.24259372  -45.29268998   -0.90310277     506
Ni   -14.23443154  -43.30214171   -2.33254382     507
Ni   -13.00265271  -45.28990870   -3.01605408     508
Ni   -12.99636145  -43.30060381   -0.21732984     509
Ni   -13.01241119  -47.27848058   -1.58220912     510
Ni   -11.76822784  -47.27017153   -3.69435454     511
Ni   -11.76151915  -45.28422861   -0.90082839     512
Ni   -11.75736798  -43.29673865   -2.33199513     513
Ni   -10.51897094  -45.27686905   -3.01531741     514
Ni   -10.51751227  -43.29113486   -0.21809295     515
Ni   -10.52248479  -47.25995592   -1.57793109     516
Ni    -9.27507766  -47.24948636   -3.69106715     517
Ni    -9.27537153  -45.26856921   -0.90103028     518
Ni    -9.27670909  -43.28460894   -2.33360660     519
Ni    -8.03058748  -45.26036531   -3.01617242     520
Ni    -8.03529947  -43.27752374   -0.22008823     521
Ni    -8.02697280  -47.23925478   -1.57554311     522
Ni    -6.77769340  -47.23045955   -3.69010703     523
Ni    -6.78539403  -45.25234040   -0.90230331     524
Ni    -6.79328698  -43.27043916   -2.33571372     525
Ni    -5.53956443  -45.24520419   -3.01792281     526
Ni    -5.55111620  -43.26349379   -0.22208914     527
Ni    -5.52875644  -47.22257909   -1.57618338     528
Ni    -4.27900669  -47.21667539   -3.69277305     529
Ni    -4.29402939  -45.23884121   -0.90443195     530
Ni    -4.30891886  -43.25674337   -2.33747441     531
Ni    -3.04865015  -45.23314562   -3.02029891     532
Ni    -3.06702484  -43.25054404   -0.22361088     533
Ni    -3.03035685  -47.21219247   -1.58055281     534
Ni    -1.78165204  -47.20873272   -3.69832389     535
Ni    -1.80412227  -45.22885741   -0.90704423     536
Ni    -1.82571866  -43.24404102   -2.33866707     537
Ni    -0.56053822  -45.22387707   -3.02276107     538
Ni    -0.58531346  -43.23785660   -0.22467033     539
Ni    -0.53445700  -47.20825513   -1.58702013     540
Ni     0.71174006  -47.20586153   -3.70432563     541
Ni     0.68117310  -45.21973943   -0.90949856     542
Ni     0.65420354  -43.23019439   -2.33983448     543
Ni     1.92187960  -45.21242898   -3.02574818     544
Ni     1.89227346  -43.22145072   -0.22658589     545
Ni     1.95401475  -47.20434128   -1.59236218     546
Ni     3.19589466  -47.19650800   -3.71161978     547
Ni     3.15997902  -45.20268201   -0.91409638     548
Ni     3.12965360  -43.20900879   -2.34346436     549
Ni     4.39793925  -45.18692363   -3.03393628     550
Ni     4.36580017  -43.19367478   -0.23267411     551
Ni     4.43381407  -47.18085906   -1.60300042     552