        4000
Lattice="  35.4000   0.0000   0.0000   0.0000  35.4000   0.0000   0.0000   0.0000  35.4000 " Time=0.000E+00  Step=0  Energy=-17781.527  Barrier=0.000
Ni    34.22633661    9.80217558   15.72290389       1
Ni     2.33734869    2.70560559    1.56139440       2
Ni     2.33604233    0.94404964    3.31985967       3
Ni     0.57540842    2.70284526    3.31864170       4
Ni     4.12622664    0.94539373    1.56174362       5
Ni     5.88927109    2.71590012    1.56204318       6
Ni     5.88892584    0.94437681    3.33138889       7
Ni     4.11453758    2.71114804    3.32772461       8
Ni     7.65816095    0.94570787    1.56219519       9
Ni     9.42831558    2.71567133    1.56244205      10
Ni     9.42923474    0.94411254    3.32990120      11
Ni     7.65884558    2.71446680    3.33151243      12
Ni    11.19849281    0.94558209    1.56164359      13
Ni    12.96841927    2.71559791    1.56159760      14
Ni    12.96950768    0.94434954    3.32968964      15
Ni    11.19974337    2.71434566    3.33003304      16
Ni    14.73815374    0.94557959    1.56136553      17
Ni    16.50764485    2.71555538    1.56124216      18
Ni    16.50831512    0.94488654    3.33016221      19
Ni    14.73933774    2.71461714    3.32964014      20
Ni    18.27694076    0.94573997    1.56156025      21
Ni    20.04601937    2.71555374    1.56143588      22
Ni    20.04626585    0.94537292    3.33084019      23
Ni    18.27729802    2.71498683    3.33015507      24
Ni    21.81530559    0.94585622    1.56182951      25
Ni    23.58434164    2.71543156    1.56149400      26
Ni    23.58434057    0.94543538    3.33105356      27
Ni    21.81491273    2.71504921    3.33060369      28
Ni    25.35395816    0.94571345    1.56173945      29
Ni    27.12337230    2.71514852    1.56111261      30
Ni    27.12310561    0.94495851    3.33054393      31
Ni    25.35318870    2.71465433    3.33024356      32
Ni    28.89339953    0.94536171    1.56136009      33
Ni    30.66248248    2.71549789    1.56080254      34
Ni    30.66181200    0.94426522    3.33043131      35
Ni    28.89227418    2.71404468    3.32937860      36
Ni    32.42519373    0.94512580    1.56118683      37
Ni    34.21455908    2.70534721    1.56101302      38
Ni    34.21400413    0.94387038    3.31961631      39
Ni    32.43639662    2.71105121    3.32649717      40
Ni     0.57611928    4.49423242    1.56123086      41
Ni     2.34780717    6.25704322    1.56222801      42
Ni     2.34432620    4.48036785    3.32712453      43
Ni     0.57603828    6.25508331    3.33002799      44
Ni     4.11352576    4.48117287    1.56207897      45
Ni     5.88647961    6.25392900    1.56261069      46
Ni     5.88734618    4.48249134    3.33011572      47
Ni     4.11726918    6.25246957    3.33031478      48
Ni     7.65850825    4.48550848    1.56243393      49
Ni     9.42817176    6.25583225    1.56278097      50
Ni     9.42898086    4.48469146    3.33176805      51
Ni     7.65856842    6.25385482    3.33140137      52
Ni    11.19820027    4.48584912    1.56248026      53
Ni    12.96797014    6.25619443    1.56215938      54
Ni    12.96985969    4.48493309    3.32988726      55
Ni    11.19903221    6.25527965    3.33151113      56
Ni    14.73808695    4.48581137    1.56135657      57
Ni    16.50748848    6.25615113    1.56098870      58
Ni    16.50849791    4.48513641    3.32959654      59
Ni    14.73952218    6.25573320    3.32953545      60
Ni    18.27679351    4.48567119    1.56106847      61
Ni    20.04570536    6.25587876    1.56087204      62
Ni    20.04577531    4.48510339    3.33004716      63
Ni    18.27701116    6.25565400    3.32953483      64
Ni    21.81493786    4.48548137    1.56120256      65
Ni    23.58401184    6.25558578    1.56093074      66
Ni    23.58350795    4.48468013    3.33001527      67
Ni    21.81413587    6.25510286    3.32971549      68
Ni    25.35355605    4.48523612    1.56099795      69
Ni    27.12339432    6.25535833    1.56070196      70
Ni    27.12230588    4.48403035    3.32909499      71
Ni    25.35248789    6.25440559    3.32921691      72
Ni    28.89329558    4.48505336    1.56062327      73
Ni    30.66580327    6.25386293    1.56095592      74
Ni    30.66423950    4.48216702    3.32758280      75
Ni    28.89289259    6.25325945    3.32798074      76
Ni    32.43876885    4.48089705    1.56087006      77
Ni    34.20491081    6.25708563    1.56150864      78
Ni    34.20729397    4.48030246    3.32647019      79
Ni    32.43517438    6.25216820    3.32795891      80
Ni     0.57649122    8.02680775    1.56271559      81
Ni     2.34715623    9.79724051    1.56371046      82
Ni     2.34784567    8.02505958    3.33112761      83
Ni     0.57674490    9.79581134    3.33258418      84
Ni     4.11787132    8.02635187    1.56297053      85
Ni     5.88800713    9.79663014    1.56322968      86
Ni     5.88874095    8.02410723    3.33142508      87
Ni     4.11885779    9.79564860    3.33221306      88
Ni     7.65753081    8.02539160    1.56287901      89
Ni     9.42765695    9.79628235    1.56315760      90
Ni     9.42835132    8.02499371    3.33250273      91
Ni     7.65870080    9.79511051    3.33268924      92
Ni    11.19777905    8.02634308    1.56289066      93
Ni    12.96784096    9.79708008    1.56214655      94
Ni    12.96950131    8.02626371    3.33038969      95
Ni    11.19902259    9.79648827    3.33141318      96
Ni    14.73779234    8.02670644    1.56145375      97
Ni    16.50726152    9.79732749    1.56083136      98
Ni    16.50840180    8.02655989    3.32932014      99
Ni    14.73928804    9.79740855    3.32959578     100
Ni    18.27655284    8.02656942    1.56067098     101
Ni    20.04550673    9.79702331    1.56049250     102
Ni    20.04524107    8.02597953    3.32935371     103
Ni    18.27674280    9.79715512    3.32915944     104
Ni    21.81468633    8.02618912    1.56074104     105
Ni    23.58410962    9.79667382    1.56095242     106
Ni    23.58286619    8.02510795    3.32928378     107
Ni    21.81364339    9.79619671    3.32910996     108
Ni    25.35364085    8.02594578    1.56093295     109
Ni    27.12391342    9.79664583    1.56157771     110
Ni    27.12246859    8.02438683    3.32872567     111
Ni    25.35247328    9.79545572    3.32926715     112
Ni    28.89435889    8.02553706    1.56116328     113
Ni    30.66419716    9.79733249    1.56219072     114
Ni    30.66332440    8.02414348    3.32849883     115
Ni    28.89263683    9.79580245    3.32962043     116
Ni    32.43490364    8.02672814    1.56208768     117
Ni    34.20575852    9.79749791    1.56349187     118
Ni    34.20520459    8.02503243    3.33043881     119
Ni    32.43355545    9.79657998    3.33051908     120
Ni     0.57634976   11.56788240    1.56444329     121
Ni     2.34666181   13.33826435    1.56452928     122
Ni     2.34757450   11.56668339    3.33378965     123
Ni     0.57557358   13.33875250    3.33310653     124
Ni     4.11746533   11.56758061    1.56408174     125
Ni     5.88772471   13.33800813    1.56368164     126
Ni     5.88911363   11.56623990    3.33277149     127
Ni     4.11807651   13.33795199    3.33318187     128
Ni     7.65802662   11.56704105    1.56329188     129
Ni     9.42849775   13.33805002    1.56230348     130
Ni     9.42932876   11.56694650    3.33152448     131
Ni     7.65988161   13.33819800    3.33093819     132
Ni    11.19802806   11.56733609    1.56244035     133
Ni    12.96831246   13.33848338    1.56153865     134
Ni    12.96956086   11.56804968    3.33014567     135
Ni    11.20003162   13.33881255    3.33012144     136
Ni    14.73777048   11.56794849    1.56128821     137
Ni    16.50721020   13.33877119    1.56068468     138
Ni    16.50823532   11.56830362    3.32928250     139
Ni    14.73933510   13.33928540    3.32951440     140
Ni    18.27636249   11.56793898    1.56043930     141
Ni    20.04538887   13.33854004    1.56036420     142
Ni    20.04491439   11.56755766    3.32891802     143
Ni    18.27652503   13.33891980    3.32906040     144
Ni    21.81471952   11.56755737    1.56067112     145
Ni    23.58439687   13.33831815    1.56146610     146
Ni    23.58278200   11.56666514    3.32922257     147
Ni    21.81342706   13.33808229    3.32879201     148
Ni    25.35403580   11.56748873    1.56175808     149
Ni    27.12375432   13.33852263    1.56242905     150
Ni    27.12256380   11.56697176    3.33050476     151
Ni    25.35274281   13.33799369    3.33054820     152
Ni    28.89375796   11.56796505    1.56236072     153
Ni    30.66383028   13.33888982    1.56294882     154
Ni    30.66262814   11.56790602    3.33107235     155
Ni    28.89239346   13.33869793    3.33154924     156
Ni    32.43466237   11.56828822    1.56325781     157
Ni    34.20517498   13.33875716    1.56391953     158
Ni    34.20463485   11.56778956    3.33233772     159
Ni    32.43302348   13.33922377    3.33198269     160
Ni     0.57558634   15.10926655    1.56384242     161
Ni     2.34612359   16.88012512    1.56289650     162
Ni     2.34645527   15.11010774    3.33226409     163
Ni     0.57454840   16.88179046    3.33087447     164
Ni     4.11704677   15.10898748    1.56361881     165
Ni     5.88788304   16.88017626    1.56191198     166
Ni     5.88915910   15.11004254    3.33067722     167
Ni     4.11776990   16.88195007    3.32999067     168
Ni     7.65843393   15.10906996    1.56219745     169
Ni     9.42925371   16.88029501    1.56081629     170
Ni     9.43077563   15.11010940    3.32923381     171
Ni     7.66063946   16.88187765    3.32824780     172
Ni    11.19898230   15.10926621    1.56128249     173
Ni    12.96896566   16.88039774    1.56072311     174
Ni    12.97019482   15.11033277    3.32930047     175
Ni    11.20100133   16.88168673    3.32841830     176
Ni    14.73810199   15.10953107    1.56091274     177
Ni    16.50722479   16.88034272    1.56066334     178
Ni    16.50811638   15.11009957    3.32941450     179
Ni    14.73930480   16.88121295    3.32941209     180
Ni    18.27619432   15.10949543    1.56037126     181
Ni    20.04523643   16.88018004    1.56044829     182
Ni    20.04457021   15.10952822    3.32866608     183
Ni    18.27628059   16.88068575    3.32924836     184
Ni    21.81476955   15.10923388    1.56086653     185
Ni    23.58425911   16.87996029    1.56145107     186
Ni    23.58293681   15.10916980    3.32971360     187
Ni    21.81328693   16.88049126    3.32876206     188
Ni    25.35400518   15.10916246    1.56213367     189
Ni    27.12365240   16.87991750    1.56242667     190
Ni    27.12249513   15.10939371    3.33142752     191
Ni    25.35263504   16.88038216    3.33049896     192
Ni    28.89355693   15.10936778    1.56277126     193
Ni    30.66357511   16.88001134    1.56272350     194
Ni    30.66241136   15.10997441    3.33193265     195
Ni    28.89236445   16.88058542    3.33159848     196
Ni    32.43408553   15.10947865    1.56316375     197
Ni    34.20445335   16.88013682    1.56284612     198
Ni    34.20363867   15.11032274    3.33200186     199
Ni    32.43275661   16.88112290    3.33152370     200
Ni     0.57412242    0.94222744    5.10709521     201
Ni     2.34311653    2.70948573    5.09515401     202
Ni     2.34448792    0.93961508    6.86717579     203
Ni     0.57318153    2.71030910    6.86669731     204
Ni     4.11162045    0.94256263    5.09420096     205
Ni     5.88631443    2.71179528    5.09899788     206
Ni     5.88566287    0.93629929    6.86044097     207
Ni     4.11360943    2.71037525    6.86612508     208
Ni     7.65945544    0.94148265    5.09728418     209
Ni     9.43108790    2.71198309    5.09775753     210
Ni     9.43180931    0.93912634    6.86476929     211
Ni     7.66083419    2.70727605    6.86284180     212
Ni    11.20096935    0.94223074    5.09759086     213
Ni    12.97163577    2.71276148    5.09761725     214
Ni    12.97229195    0.94100817    6.86680943     215
Ni    11.20423112    2.70942068    6.86463360     216
Ni    14.74018473    0.94336944    5.09862082     217
Ni    16.50934061    2.71393125    5.09880567     218
Ni    16.50979402    0.94306071    6.86885288     219
Ni    14.74222145    2.71193996    6.86705663     220
Ni    18.27772974    0.94451215    5.09989299     221
Ni    20.04601079    2.71457362    5.09994561     222
Ni    20.04640043    0.94451135    6.87040861     223
Ni    18.27785007    2.71380637    6.86927709     224
Ni    21.81515702    0.94510619    5.10069992     225
Ni    23.58352427    2.71440109    5.10008878     226
Ni    23.58405077    0.94492071    6.87087609     227
Ni    21.81423527    2.71420595    6.87024093     228
Ni    25.35334557    0.94487151    5.10050451     229
Ni    27.12206151    2.71357263    5.09897376     230
Ni    27.12266802    0.94427384    6.87001382     231
Ni    25.35246599    2.71370728    6.86962388     232
Ni    28.89227434    0.94393756    5.09947865     233
Ni    30.66330401    2.71165005    5.09617972     234
Ni    30.66337197    0.94283366    6.86686644     235
Ni    28.89195475    2.71216371    6.86711123     236
Ni    32.43697797    0.94291274    5.09416204     237
Ni    34.20591024    2.70913636    5.09400650     238
Ni    34.20152756    0.94131056    6.86849048     239
Ni    32.43214431    2.70986332    6.86423041     240
Ni     0.57539503    4.47669983    5.09282357     241
Ni     2.34627113    6.24955057    5.09548352     242
Ni     2.34585563    4.47856217    6.86511539     243
Ni     0.57689124    6.24530566    6.86378738     244
Ni     4.11631274    4.47884783    5.09584282     245
Ni     5.88971720    6.25089053    5.09855093     246
Ni     5.88636893    4.47976347    6.87062913     247
Ni     4.11931039    6.24711803    6.85808127     248
Ni     7.65835096    4.48226468    5.10088732     249
Ni     9.42921708    6.25312290    5.10127003     250
Ni     9.43447025    4.47931309    6.86418062     251
Ni     7.65725236    6.24923876    6.87308413     252
Ni    11.20214496    4.48307535    5.09787441     253
Ni    12.97253297    6.25465737    5.09760093     254
Ni    12.97484450    4.48146868    6.86522777     255
Ni    11.20670494    6.25220557    6.86421339     256
Ni    14.74117550    4.48397697    5.09786769     257
Ni    16.50946235    6.25533560    5.09829370     258
Ni    16.51020181    4.48379543    6.86791290     259
Ni    14.74304888    6.25440463    6.86638721     260
Ni    18.27745139    4.48465451    5.09908781     261
Ni    20.04506279    6.25496023    5.09909859     262
Ni    20.04507601    4.48420386    6.86955133     263
Ni    18.27718609    6.25508978    6.86881489     264
Ni    21.81393937    4.48434344    5.09960757     265
Ni    23.58204729    6.25377232    5.09866271     266
Ni    23.58207756    4.48328938    6.86922009     267
Ni    21.81226824    6.25374727    6.86900262     268
Ni    25.35200849    4.48346657    5.09876917     269
Ni    27.12130568    6.25235214    5.09684795     270
Ni    27.12133871    4.48191751    6.86710970     271
Ni    25.35043145    6.25181085    6.86711616     272
Ni    28.89185734    4.48180882    5.09637760     273
Ni    30.66188721    6.25046952    5.09419691     274
Ni    30.66098281    4.47951337    6.86337844     275
Ni    28.89044038    6.24990911    6.86384363     276
Ni    32.43400905    4.47937693    5.09394163     277
Ni    34.20517625    6.24918441    5.09509970     278
Ni    34.20223917    4.47738495    6.86169605     279
Ni    32.42989153    6.24768336    6.85999289     280
Ni     0.57685467    8.02107981    5.09822251     281
Ni     2.34934198    9.79217580    5.10085115     282
Ni     2.35045654    8.01456766    6.86682420     283
Ni     0.57482265    9.78869086    6.86062019     284
Ni     4.11976972    8.02208376    5.09850095     285
Ni     5.89017370    9.79261625    5.10233847     286
Ni     5.88927850    8.01665482    6.87360055     287
Ni     4.12242466    9.78666399    6.87134974     288
Ni     7.65887452    8.02234855    5.10255015     289
Ni     9.43021768    9.79528709    5.10068305     290
Ni     9.43306476    8.02227516    6.86738343     291
Ni     7.66150653    9.79328317    6.86979095     292
Ni    11.20132404    8.02497536    5.09907355     293
Ni    12.97192601    9.79725997    5.09784633     294
Ni    12.97543611    8.02576272    6.86505140     295
Ni    11.20496158    9.79670601    6.86469013     296
Ni    14.74141121    8.02642311    5.09778640     297
Ni    16.50943184    9.79760605    5.09829230     298
Ni    16.51026732    8.02650347    6.86778280     299
Ni    14.74284057    9.79803153    6.86675206     300
Ni    18.27709808    8.02617257    5.09861579     301
Ni    20.04448722    9.79639382    5.09849665     302
Ni    20.04399203    8.02527218    6.86904640     303
Ni    18.27721259    9.79726422    6.86895204     304
Ni    21.81271556    8.02477864    5.09855488     305
Ni    23.58099943    9.79449658    5.09753042     306
Ni    23.57992727    8.02266390    6.86726191     307
Ni    21.81106069    9.79475135    6.86784250     308
Ni    25.35093169    8.02313961    5.09731961     309
Ni    27.12068299    9.79339463    5.09670783     310
Ni    27.11935289    8.02033755    6.86450375     311
Ni    25.34821477    9.79162521    6.86490478     312
Ni    28.89113645    8.02199770    5.09544611     313
Ni    30.66115679    9.79422046    5.09641932     314
Ni    30.65987518    8.01875778    6.86081806     315
Ni    28.88913567    9.79012215    6.86272396     316
Ni    32.43226584    8.02137973    5.09437221     317
Ni    34.20357144    9.79408472    5.09704894     318
Ni    34.20127615    8.01695004    6.85894794     319
Ni    32.43023372    9.79057395    6.86016257     320
Ni     0.57561394   11.56626960    5.09977864     321
Ni     2.34722226   13.33888766    5.10032015     322
Ni     2.34905571   11.56316335    6.86295162     323
Ni     0.57263101   13.34014569    6.86378944     324
Ni     4.12032378   11.56423926    5.10136809     325
Ni     5.89155723   13.33872591    5.09825204     326
Ni     5.89335130   11.56626045    6.86687674     327
Ni     4.12263313   13.33992545    6.86170835     328
Ni     7.66103308   11.56636692    5.10016510     329
Ni     9.43206817   13.33952301    5.09808891     330
Ni     9.43358009   11.56857787    6.86631129     331
Ni     7.66441879   13.34119611    6.86494271     332
Ni    11.20154468   11.56815597    5.09854331     333
Ni    12.97199993   13.34018863    5.09766725     334
Ni    12.97464241   11.56951706    6.86534001     335
Ni    11.20527208   13.34185972    6.86437888     336
Ni    14.74117804   11.56887226    5.09799337     337
Ni    16.50941812   13.33976954    5.09859288     338
Ni    16.51049761   11.56911593    6.86822582     339
Ni    14.74260776   13.34109670    6.86706983     340
Ni    18.27706094   11.56816499    5.09855249     341
Ni    20.04434726   13.33846062    5.09808917     342
Ni    20.04417212   11.56730754    6.86878817     343
Ni    18.27794132   13.33944938    6.86926760     344
Ni    21.81206504   11.56642483    5.09765073     345
Ni    23.58035841   13.33704071    5.09678443     346
Ni    23.57833213   11.56422404    6.86539596     347
Ni    21.81083020   13.33736027    6.86678679     348
Ni    25.35034346   11.56497997    5.09715368     349
Ni    27.12079886   13.33763781    5.09955802     350
Ni    27.11781510   11.56192974    6.86371751     351
Ni    25.34632926   13.33494637    6.86315242     352
Ni    28.89085894   11.56623289    5.09862000     353
Ni    30.66084533   13.33918924    5.10033433     354
Ni    30.65906903   11.56480290    6.86488508     355
Ni    28.88859721   13.33729832    6.86821781     356
Ni    32.43146916   11.56747158    5.09873692     357
Ni    34.20237977   13.33972202    5.09979149     358
Ni    34.20111304   11.56512095    6.86258741     359
Ni    32.42959261   13.34012917    6.86776387     360
Ni     0.57377155   15.11212004    5.09890526     361
Ni     2.34590326   16.88516628    5.09612122     362
Ni     2.34558270   15.11581940    6.86119509     363
Ni     0.57357938   16.88854383    6.86301090     364
Ni     4.11919997   15.11216519    5.09781657     365
Ni     5.89199446   16.88509284    5.09393221     366
Ni     5.89609196   15.11535033    6.85914353     367
Ni     4.12136905   16.89175496    6.85453627     368
Ni     7.66310450   15.11184514    5.09583458     369
Ni     9.43346539   16.88421039    5.09474323     370
Ni     9.43574894   15.11507679    6.86228155     371
Ni     7.66611481   16.88909269    6.85832816     372
Ni    11.20272183   15.11192790    5.09672224     373
Ni    12.97176538   16.88295376    5.09750175     374
Ni    12.97381558   15.11352412    6.86582700     375
Ni    11.20422456   16.88600794    6.86439098     376
Ni    14.74086736   15.11129708    5.09824404     377
Ni    16.50901736   16.88158527    5.09898653     378
Ni    16.51041730   15.11134819    6.86870917     379
Ni    14.74186800   16.88339933    6.86791652     380
Ni    18.27713242   15.11015822    5.09881645     381
Ni    20.04423233   16.88083407    5.09809179     382
Ni    20.04513811   15.10969914    6.86885175     383
Ni    18.27792196   16.88129457    6.86940271     384
Ni    21.81140701   15.10930346    5.09664938     385
Ni    23.58025506   16.88126663    5.09657489     386
Ni    23.57613814   15.10907479    6.86257498     387
Ni    21.81091391   16.88118720    6.86646310     388
Ni    25.35056260   15.10921185    5.09860452     389
Ni    27.12065798   16.88132295    5.09954043     390
Ni    27.11777072   15.10953803    6.86770246     391
Ni    25.34604607   16.88340425    6.86286694     392
Ni    28.89065107   15.10999690    5.10072859     393
Ni    30.66089642   16.88189467    5.10049762     394
Ni    30.65859355   15.11123635    6.86987824     395
Ni    28.88831115   16.88306440    6.86831134     396
Ni    32.43122723   15.11126523    5.10052348     397
Ni    34.20227439   16.88351127    5.09904232     398
Ni    34.20107498   15.11384368    6.86696232     399
Ni    32.42987721   16.88437378    6.86828326     400
Ni     0.57139848    0.93903928    8.63587321     401
Ni     2.34283726    2.70564827    8.63257614     402
Ni     2.33983251    0.93460984   10.40513921     403
Ni     0.56971503    2.70680216   10.40133849     404
Ni     4.11418036    0.93292780    8.63144997     405
Ni     5.88698962    2.69414514    8.62083504     406
Ni     5.88939079    0.93984044   10.40633031     407
Ni     4.11075172    2.68524019   10.39550836     408
Ni     7.66074041    0.93593883    8.63165799     409
Ni     9.43616315    2.70393320    8.63008585     410
Ni     9.43325719    0.93700798   10.40466598     411
Ni     7.66626724    2.69800495   10.39610064     412
Ni    11.20382178    0.93808456    8.63494239     413
Ni    12.97573186    2.70838109    8.63460999     414
Ni    12.97473422    0.93817286   10.40678489     415
Ni    11.20907079    2.70305616   10.40176711     416
Ni    14.74235369    0.94084132    8.63769157     417
Ni    16.51064719    2.71236376    8.63829598     418
Ni    16.51080664    0.94173330   10.40956327     419
Ni    14.74452589    2.70958156   10.40676171     420
Ni    18.27821937    0.94345356    8.64003358     421
Ni    20.04542632    2.71390969    8.64043081     422
Ni    20.04613344    0.94419926   10.41152018     423
Ni    18.27742650    2.71332109   10.41044848     424
Ni    21.81494912    0.94475472    8.64125556     425
Ni    23.58294675    2.71389876    8.64055010     426
Ni    23.58421147    0.94525446   10.41201729     427
Ni    21.81340477    2.71392728   10.41143791     428
Ni    25.35349040    0.94492614    8.64109178     429
Ni    27.12238082    2.71329482    8.63906059     430
Ni    27.12335154    0.94518643   10.41132314     431
Ni    25.35293488    2.71411370   10.41081787     432
Ni    28.89251930    0.94373674    8.63922106     433
Ni    30.66056269    2.71115937    8.63635598     434
Ni    30.66039350    0.94272609   10.40990301     435
Ni    28.89190903    2.71370030   10.40954404     436
Ni    32.43052878    0.94156009    8.63812329     437
Ni    34.19952577    2.70872168    8.63455831     438
Ni    34.19979925    0.94028544   10.40729247     439
Ni    32.42747389    2.70970419   10.40669514     440
Ni     0.57066544    4.47621106    8.63099486     441
Ni     2.35211390    6.24218765    8.63849954     442
Ni     5.88735213    0.95134111   13.95244824     443
Ni     0.55372982    6.23991776   10.39132829     444
Ni     4.11284681    4.48128290    8.64009606     445
Ni     5.88161052    6.24232814    8.65246887     446
Ni     5.89002221    4.43429217   10.36513659     447
Ni     2.34328593    4.47386439   10.39284070     448
Ni     7.66729579    4.47131611    8.62670768     449
Ni     9.44357681    6.24726818    8.62779940     450
Ni     9.44506544    4.46688313   10.39443853     451
Ni     7.68899219    6.23566568   10.38543165     452
Ni    11.20940747    4.47634545    8.63082612     453
Ni    12.97775488    6.25191393    8.63279961     454
Ni    12.97926639    4.47730595   10.40227812     455
Ni    11.21457939    6.24629597   10.39643796     456
Ni    14.74407431    4.48177346    8.63585574     457
Ni    16.51037375    6.25500626    8.63802197     458
Ni    16.51030953    4.48333657   10.40876380     459
Ni    14.74436852    6.25379587   10.40566419     460
Ni    18.27718222    4.48406217    8.63947397     461
Ni    20.04358574    6.25438051    8.64005464     462
Ni    20.04358163    4.48385903   10.41115522     463
Ni    18.27571714    6.25529172   10.41110408     464
Ni    21.81249091    4.48341938    8.64009076     465
Ni    23.57997139    6.25185439    8.63830195     466
Ni    23.58112250    4.48244008   10.41012191     467
Ni    21.81059026    6.25271976   10.41028705     468
Ni    25.35129147    4.48220573    8.63856677     469
Ni    27.11983073    6.24982296    8.63533354     470
Ni    27.12177324    4.48218297   10.40846466     471
Ni    25.34887335    6.24985282   10.40730850     472
Ni    28.89113187    4.48091325    8.63572600     473
Ni    30.65987307    6.24794187    8.63089820     474
Ni    30.66008704    4.48137659   10.40630307     475
Ni    28.89076318    6.24922930   10.40446575     476
Ni    32.42833433    4.47754747    8.63168561     477
Ni    34.19587265    6.24440188    8.62507800     478
Ni    34.19365568    4.47453742   10.40068989     479
Ni    32.42835447    6.24707298   10.39992951     480
Ni     0.56994226    8.01184181    8.62227033     481
Ni     2.34775461    9.78500836    8.62189301     482
Ni     2.33467457    8.00618663   10.37940630     483
Ni     0.57668931    9.77873141   10.38531002     484
Ni     4.12146579    8.00346280    8.64581355     485
Ni     5.89383432    9.79231322    8.63633789     486
Ni     5.89533472    8.01231778   10.40344801     487
Ni     4.11893072    9.79752095   10.37924170     488
Ni     7.66476816    8.01713039    8.63586885     489
Ni     9.43851967    9.79578582    8.62906820     490
Ni     9.45308640    8.02288658   10.39038159     491
Ni     7.67076885    9.79433470   10.38842692     492
Ni    11.21139372    8.02445377    8.63000863     493
Ni    12.97617507    9.79820497    8.63401231     494
Ni    12.97933508    8.02557546   10.40049317     495
Ni    11.20825857    9.79817741   10.40187608     496
Ni    14.74417905    8.02641520    8.63552561     497
Ni    16.51052854    9.79817206    8.63882879     498
Ni    16.50895747    8.02689628   10.41033394     499
Ni    14.74347125    9.79859114   10.40720265     500
Ni    18.27656783    8.02627829    8.64003620     501
Ni    20.04366693    9.79624801    8.64016477     502
Ni    20.04299355    8.02528493   10.41140564     503
Ni    18.27648605    9.79786083   10.41220330     504
Ni    21.81054452    8.02344341    8.63889968     505
Ni    23.57738685    9.79184217    8.63594023     506
Ni    23.57743445    8.02037412   10.40765315     507
Ni    21.81061251    9.79425119   10.40990096     508
Ni    25.34762163    8.01962840    8.63513465     509
Ni    27.11575225    9.78739131    8.63116931     510
Ni    27.11653727    8.01636317   10.40277000     511
Ni    25.34328532    9.78717640   10.40285136     512
Ni    28.88871187    8.01724255    8.63119246     513
Ni    30.65901685    9.78521168    8.62679365     514
Ni    30.66064459    8.01496682   10.39793538     515
Ni    28.88514135    9.78236262   10.39675684     516
Ni    32.42847259    8.01687289    8.62644031     517
Ni    34.20022244    9.78436145    8.62242913     518
Ni    34.19565699    8.01408318   10.38944541     519
Ni    32.42941914    9.78678087   10.39572363     520
Ni     0.57132057   11.55809636    8.61923263     521
Ni     2.34645333   13.33886605    8.61530539     522
Ni     2.33928242   11.55851728   10.37332914     523
Ni     0.57709172   13.33034449   10.37300879     524
Ni     4.12428255   11.56785665    8.62615830     525
Ni     5.89664428   13.34496438    8.62990937     526
Ni     5.89712248   11.57771855   10.40541674     527
Ni     4.11314314   13.35028569   10.37065947     528
Ni     7.66548511   11.57065015    8.63384288     529
Ni     9.44009481   13.34549797    8.62852496     530
Ni     9.44940620   11.57104926   10.39090424     531
Ni     7.67768675   13.35604675   10.38600239     532
Ni    11.20960177   11.57029935    8.63048010     533
Ni    12.97613571   13.34340603    8.63380744     534
Ni    12.97786184   11.57100436   10.40164534     535
Ni    11.21108990   13.34803703   10.39825859     536
Ni    14.74378845   11.57004057    8.63614266     537
Ni    16.51097143   13.34061082    8.63899147     538
Ni    16.50947981   11.56963985   10.41081081     539
Ni    14.74365332   13.34232025   10.40688108     540
Ni    18.27775055   11.56867166    8.64062526     541
Ni    20.04578506   13.33870620    8.64060957     542
Ni    20.04570476   11.56794628   10.41232729     543
Ni    18.27815614   13.33960404   10.41212491     544
Ni    21.81074684   11.56566434    8.63822866     545
Ni    23.57629177   13.33533668    8.63364808     546
Ni    23.57684868   11.56271690   10.40608263     547
Ni    21.81497056   13.33803425   10.41114035     548
Ni    25.34384632   11.56023668    8.63135394     549
Ni    27.11116044   13.33025515    8.62678158     550
Ni    27.10845098   11.55332128   10.39557723     551
Ni    25.33966525   13.33100650   10.39789227     552