ITEM: TIMESTEP
0
ITEM: NUMBER OF ATOMS
107
ITEM: BOX BOUNDS pp pp pp
0.0 10.6199999
0.0 10.6199999
0.0 10.6199999
ITEM: ATOMS id type x y z
1 1 0.3631595 0.354 0.354
2 1 2.1240001 2.1257265 0.354
3 1 2.1240001 0.354 2.1257265
4 1 0.3514707 2.1222684 2.1222684
5 1 3.8848404 0.354 0.354
6 1 5.6732493 2.1147506 0.354
7 1 5.6732493 0.354 2.1147506
8 1 3.8965292 2.1222684 2.1222684
9 1 9.1947508 2.1147506 0.354
10 1 9.1947508 0.354 2.1147506
11 1 7.434 2.1147506 2.1147506
12 1 0.350694 3.8906942 0.354
13 1 2.1240001 3.8932446 2.1232967
14 1 3.897306 3.8906942 0.354
15 1 5.6657319 3.8914708 2.1222684
16 1 7.434 3.9031596 0.354
17 1 9.2022686 3.8914708 2.1222684
18 1 0.350694 0.354 3.8906942
19 1 2.1240001 2.1232967 3.8932446
20 1 3.897306 0.354 3.8906942
21 1 5.6657319 2.1222684 3.8914708
22 1 7.434 0.354 3.9031596
23 1 9.2022686 2.1222684 3.8914708
24 1 0.3530649 3.893065 3.893065
25 1 3.8949352 3.893065 3.893065
26 1 7.434 3.8906942 3.8906942
27 1 2.1240001 0.354 5.6640001
28 1 0.3532444 2.1232967 5.6640001
29 1 5.6622734 0.354 5.6640001
30 1 3.8947556 2.1232967 5.6640001
31 1 9.2057266 0.354 5.6640001
32 1 7.434 2.1257265 5.6640001
33 1 2.1240001 3.8935158 5.6640001
34 1 5.6647034 3.8932446 5.6640001
35 1 9.2032967 3.8932446 5.6640001
36 1 0.350694 0.354 7.4373064
37 1 2.1240001 2.1232967 7.4347558
38 1 2.1240001 0.354 9.2022734
39 1 0.3514707 2.1222684 9.2057314
40 1 3.897306 0.354 7.4373064
41 1 5.6657319 2.1222684 7.4365292
42 1 5.6732493 0.354 9.2132492
43 1 3.8965292 2.1222684 9.2057314
44 1 7.434 0.354 7.4248405
45 1 9.2022686 2.1222684 7.4365292
46 1 9.1947508 0.354 9.2132492
47 1 7.434 2.1147506 9.2132492
48 1 0.3530649 3.893065 7.4349351
49 1 2.1240001 3.8932446 9.2047033
50 1 3.8949352 3.893065 7.4349351
51 1 5.6657319 3.8914708 9.2057314
52 1 7.434 3.8906942 7.4373064
53 1 9.2022686 3.8914708 9.2057314
54 1 2.1240001 5.6640001 0.354
55 1 0.3532444 5.6640001 2.1232967
56 1 5.6622734 5.6640001 0.354
57 1 3.8947556 5.6640001 2.1232967
58 1 9.2057266 5.6640001 0.354
59 1 7.434 5.6640001 2.1257265
60 1 0.350694 7.4373064 0.354
61 1 2.1240001 9.2022734 0.354
62 1 2.1240001 7.4347558 2.1232967
63 1 0.3514707 9.2057314 2.1222684
64 1 3.897306 7.4373064 0.354
65 1 5.6732493 9.2132492 0.354
66 1 5.6657319 7.4365292 2.1222684
67 1 3.8965292 9.2057314 2.1222684
68 1 7.434 7.4248405 0.354
69 1 9.1947508 9.2132492 0.354
70 1 9.2022686 7.4365292 2.1222684
71 1 7.434 9.2132492 2.1147506
72 1 2.1240001 5.6640001 3.8935158
73 1 5.6647034 5.6640001 3.8932446
74 1 9.2032967 5.6640001 3.8932446
75 1 0.3530649 7.4349351 3.893065
76 1 2.1240001 9.2047033 3.8932446
77 1 3.8949352 7.4349351 3.893065
78 1 5.6657319 9.2057314 3.8914708
79 1 7.434 7.4373064 3.8906942
80 1 9.2022686 9.2057314 3.8914708
81 1 0.353516 5.6640001 5.6640001
82 1 3.894484 5.6640001 5.6640001
83 1 7.434 5.6640001 5.6640001
84 1 2.1240001 7.434484 5.6640001
85 1 0.3532444 9.2047033 5.6640001
86 1 5.6647034 7.4347558 5.6640001
87 1 3.8947556 9.2047033 5.6640001
88 1 9.2032967 7.4347558 5.6640001
89 1 7.434 9.2022734 5.6640001
90 1 2.1240001 5.6640001 7.434484
91 1 0.3532444 5.6640001 9.2047033
92 1 5.6647034 5.6640001 7.4347558
93 1 3.8947556 5.6640001 9.2047033
94 1 9.2032967 5.6640001 7.4347558
95 1 7.434 5.6640001 9.2022734
96 1 0.3530649 7.4349351 7.4349351
97 1 2.1240001 9.2047033 7.4347558
98 1 2.1240001 7.4347558 9.2047033
99 1 0.3514707 9.2057314 9.2057314
100 1 3.8949352 7.4349351 7.4349351
101 1 5.6657319 9.2057314 7.4365292
102 1 5.6657319 7.4365292 9.2057314
103 1 3.8965292 9.2057314 9.2057314
104 1 7.434 7.4373064 7.4373064
105 1 9.2022686 9.2057314 7.4365292
106 1 9.2022686 7.4365292 9.2057314
107 1 7.434 9.2132492 9.2132492
ITEM: TIMESTEP
1
ITEM: NUMBER OF ATOMS
107
ITEM: BOX BOUNDS pp pp pp
0.0 10.6199999
0.0 10.6199999
0.0 10.6199999
ITEM: ATOMS id type x y z
1 1 0.3388823 0.3371961 0.3539689
2 1 2.1315713 2.0955744 0.3539985
3 1 2.1308091 0.3404578 2.1136746
4 1 0.3388363 2.1056056 2.1072891
5 1 3.9619118 0.3085407 0.3539753
6 1 5.6928082 2.0396078 0.3539934
7 1 5.6218081 0.3795925 2.2869375
8 1 3.8884282 2.1129336 2.1239865
9 1 9.1618748 2.0818493 0.3540041
10 1 9.1610174 0.3332867 2.1234617
11 1 7.4132652 2.0809495 2.1234407
12 1 0.3361113 3.8761232 0.3540087
13 1 2.1172364 3.8843688 2.1049161
14 1 3.9058366 3.869861 0.3540073
15 1 5.6610041 3.8706778 2.1135609
16 1 7.4171834 3.8788886 0.3540183
17 1 9.1855927 3.8788 2.1072981
18 1 0.3489696 0.3506534 3.8773904
19 1 2.1059034 2.125097 3.8822298
20 1 3.848619 0.3524697 3.9329872
21 1 5.6489454 2.1528115 3.9327996
22 1 7.4403582 0.3603687 3.953217
23 1 9.2017679 2.1217902 3.8848516
24 1 0.3468469 3.8868468 3.8760662
25 1 3.8763862 3.8955556 3.882139
26 1 7.4306479 3.8889652 3.8773888
27 1 2.0884743 0.3525271 5.6640172
28 1 0.3483041 2.1275809 5.6639943
29 1 5.6410108 0.360443 5.6639924
30 1 3.8620446 2.1396117 5.6639924
31 1 9.227046 0.3586349 5.6639877
32 1 7.4386187 2.1470606 5.6639982
33 1 2.1077516 3.8935972 5.6639834
34 1 5.6490517 3.9128152 5.6640091
35 1 9.2075625 3.888306 5.6640134
36 1 0.3489551 0.3506689 7.450613
37 1 2.1059077 2.125135 7.4457646
38 1 2.1308105 0.3404054 9.2143412
39 1 0.3388352 2.1056185 9.2206984
40 1 3.8486332 0.3524865 7.3950105
41 1 5.6489415 2.1528182 7.3951917
42 1 5.6218238 0.3796082 9.0410528
43 1 3.8884216 2.1129499 9.2040005
44 1 7.4403672 0.360376 7.3747802
45 1 9.2017708 2.1217778 7.4431505
46 1 9.1609898 0.333282 9.2045469
47 1 7.4132671 2.080966 9.2045612
48 1 0.3468469 3.8868434 7.4519272
49 1 2.1172292 3.8843716 9.223115
50 1 3.876382 3.8955646 7.4458623
51 1 5.6610031 3.870683 9.2144413
52 1 7.4306517 3.8889702 7.450634
53 1 9.1855927 3.8787924 9.2207127
54 1 2.1255782 5.6655751 0.3539939
55 1 0.3443235 5.6572232 2.1048992
56 1 5.6642146 5.6626082 0.3540002
57 1 3.895866 5.6627393 2.1074214
58 1 9.1755543 5.6715622 0.3539994
59 1 7.4204288 5.6708198 2.1136334
60 1 0.3298668 7.4458318 0.3539612
61 1 2.1225927 9.2042341 0.3540609
62 1 2.1226926 7.4358297 2.1074097
63 1 0.3306651 9.2009859 2.1135767
64 1 3.9197506 7.459785 0.3539805
65 1 6.540709 10.080677 0.3539974
66 1 5.6681447 7.4602962 2.1236579
67 1 3.9202658 9.2080927 2.1236866
68 1 7.3885636 7.5019136 0.3540038
69 1 9.1196318 9.2328329 0.3540067
70 1 9.192956 7.4284425 2.1240039
71 1 7.4596319 9.1618652 2.2869699
72 1 2.1145999 5.6546078 3.8762164
73 1 5.6508141 5.65234 3.8775482
74 1 9.205101 5.6458912 3.8822406
75 1 0.3555656 7.4163661 3.882169
76 1 2.1123269 9.1908054 3.8775748
77 1 3.8797198 7.4197274 3.885155
78 1 5.641243 9.1812573 3.9530674
79 1 7.4324904 7.3886356 3.9329796
80 1 9.2328434 9.1889372 3.9328178
81 1 0.353596 5.6477294 5.6639924
82 1 3.8738504 5.652926 5.6639967
83 1 7.4325023 5.6284814 5.6640063
84 1 2.1129372 7.4138336 5.6640239
85 1 0.3728078 9.1890554 5.6640187
86 1 5.6427999 7.394692 5.6639958
87 1 3.854704 9.1827898 5.6640172
88 1 9.2195959 7.40203 5.6639886
89 1 7.4404416 9.1810236 5.6639886
90 1 2.1145976 5.6545735 7.4517803
91 1 0.3443108 5.6572037 9.2230835
92 1 5.6508136 5.6523471 7.4504514
93 1 3.8958666 5.6627283 9.2205763
94 1 9.2051029 5.6458988 7.4457608
95 1 7.4204293 5.6708107 9.2143774
96 1 0.3555436 7.4163475 7.4458328
97 1 2.1123366 9.1908007 7.4504113
98 1 2.1227031 7.4358759 9.2206011
99 1 0.3307125 9.2009802 9.2144222
100 1 3.87975 7.4197212 7.442842
101 1 5.6412864 9.1812677 7.3749371
102 1 5.6681524 7.4602824 9.2043247
103 1 3.920222 9.2080898 9.2043247
104 1 7.4324913 7.3886318 7.3950105
105 1 9.23281 9.1889391 7.3951726
106 1 9.1929379 7.4284363 9.2039881
107 1 7.4596443 9.1618538 9.0410452
ITEM: TIMESTEP
2
ITEM: NUMBER OF ATOMS
107
ITEM: BOX BOUNDS pp pp pp
0.0 10.6199999
0.0 10.6199999
0.0 10.6199999
ITEM: ATOMS id type x y z
1 1 0.3375198 0.3392646 0.3539999
2 1 2.1105721 2.1046009 0.3539999
3 1 2.1096442 0.3360139 2.1221137
4 1 0.3375225 2.1070015 2.123152
5 1 3.886246 0.3288012 0.354
6 1 5.6475702 2.1166143 0.354
7 1 5.6474118 0.3282983 2.1145544
8 1 3.8791852 2.1050537 2.1225534
9 1 9.1845951 2.1045954 0.354
10 1 9.185071 0.3358283 2.122175
11 1 7.4158287 2.1050706 2.122175
12 1 0.3378492 3.8778494 0.354
13 1 2.1083031 3.8773826 2.1240375
14 1 3.875209 3.8770696 0.354
15 1 5.6473146 3.8774626 2.1254397
16 1 7.4192648 3.8775202 0.3540002
17 1 9.1870012 3.8775226 2.123152
18 1 0.3372482 0.3368149 3.8930756
19 1 2.1082311 2.1064851 3.8934298
20 1 3.8790194 0.33588 3.8911338
21 1 5.6474777 2.1041555 3.890586
22 1 7.4155617 0.3355619 3.8913034
23 1 9.1865215 2.1065216 3.892906
24 1 0.3373657 3.8773658 3.8936334
25 1 3.8784414 3.8778422 3.8935092
26 1 7.4168148 3.877248 3.8930756
27 1 2.1079104 0.3362462 5.6640001
28 1 0.3372804 2.1068001 5.6640001
29 1 5.6470671 0.3392721 5.6640001
30 1 3.8778946 2.1068854 5.6640001
31 1 9.1864262 0.3366835 5.6640001
32 1 7.4166837 2.1064265 5.6640001
33 1 2.1078661 3.877825 5.6640001
34 1 5.6475172 3.8773232 5.6640001
35 1 9.1868 3.8772802 5.6640001
36 1 0.3372482 0.3368149 7.4349246
37 1 2.1082313 2.1064851 7.4345703
38 1 2.1096442 0.3360137 9.2058859
39 1 0.3375225 2.1070015 9.2048483
40 1 3.8790194 0.33588 7.4368658
41 1 5.6474777 2.1041553 7.4374137
42 1 5.6474118 0.3282982 9.2134457
43 1 3.8791852 2.1050537 9.2054462
44 1 7.4155622 0.335562 7.436697
45 1 9.1865215 2.1065216 7.4350944
46 1 9.185071 0.3358283 9.2058249
47 1 7.4158287 2.1050708 9.2058249
48 1 0.3373656 3.8773658 7.4343667
49 1 2.1083031 3.8773826 9.2039623
50 1 3.8784414 3.8778422 7.4344907
51 1 5.6473146 3.8774626 9.2025604
52 1 7.4168148 3.877248 7.4349246
53 1 9.1870012 3.8775226 9.2048483
54 1 2.1100593 5.6500588 0.354
55 1 0.3373824 5.6483035 2.1240375
56 1 5.6472359 5.6381102 0.3539999
57 1 3.8789388 5.6498642 2.1219974
58 1 9.1846008 5.6505723 0.354
59 1 7.4160142 5.6496444 2.1221137
60 1 0.3370696 7.4152088 0.354
61 1 2.0981104 9.1872368 0.3540004
62 1 2.1098645 7.4189391 2.1219974
63 1 0.3374627 9.187315 2.1254397
64 1 3.8863712 7.4263711 0.354
65 1 7.4081659 10.9481668 0.354
66 1 5.6475458 7.4266496 2.1143551
67 1 3.8866496 9.1875458 2.1143551
68 1 7.4088011 7.4262457 0.354
69 1 9.1966143 9.1875696 0.354
70 1 9.1850538 7.4191852 2.1225534
71 1 7.408298 9.1874123 2.1145544
72 1 2.1086392 5.6486392 3.8931998
73 1 5.647574 5.6508193 3.8901818
74 1 9.1864853 5.6482311 3.8934298
75 1 0.3378423 7.4184408 3.8935092
76 1 2.1108191 9.1875734 3.8901818
77 1 3.8792704 7.4192705 3.891306
78 1 5.6474486 9.1874485 3.9029828
79 1 7.4158797 7.4190197 3.8911338
80 1 9.1841555 9.1874781 3.890586
81 1 0.3378248 5.6478658 5.6640001
82 1 3.878533 5.6485992 5.6640001
83 1 7.4162464 5.6479106 5.6640001
84 1 2.108599 7.4185333 5.6640001
85 1 0.3373233 9.1875172 5.6640001
86 1 5.6477561 7.4156857 5.6640001
87 1 3.8756856 9.1877565 5.6640001
88 1 9.1868849 7.4178949 5.6640001
89 1 7.4192724 9.187067 5.6640001
90 1 2.1086392 5.6486392 7.4348006
91 1 0.3373824 5.6483035 9.2039623
92 1 5.647574 5.6508193 7.4378181
93 1 3.8789388 5.6498642 9.2060022
94 1 9.1864853 5.6482311 7.4345703
95 1 7.4160142 5.6496444 9.2058859
96 1 0.3378423 7.4184408 7.4344907
97 1 2.1108191 9.1875734 7.4378181
98 1 2.1098645 7.4189391 9.2060022
99 1 0.3374629 9.187315 9.2025604
100 1 3.8792704 7.4192705 7.4366946
101 1 5.6474486 9.1874485 7.4250179
102 1 5.6475458 7.4266496 9.213645
103 1 3.8866496 9.1875458 9.213645
104 1 7.4158802 7.4190197 7.4368658
105 1 9.1841555 9.1874781 7.4374137
106 1 9.1850538 7.4191852 9.2054462
107 1 7.408298 9.1874123 9.2134457
