ITEM: TIMESTEP
0
ITEM: NUMBER OF ATOMS
107
ITEM: BOX BOUNDS xy xz yz pp pp pp
                     0.00000000000000e+00 1.06200000000000e+01 0.00000000000000e+00
0.00000000000000e+00	1.06200000000000e+01	0.00000000000000e+00
0.00000000000000e+00	1.06200000000000e+01	0.00000000000000e+00
ITEM: ATOMS id type x y z Mass
1 1 3.568e-01 3.559e-01 3.530e-01 0.000e+00
2 1 2.132e+00 2.124e+00 3.465e-01 1.000e+00
3 1 2.126e+00 3.559e-01 2.123e+00 0.000e+00
4 1 3.572e-01 2.123e+00 2.122e+00 0.000e+00
5 1 3.893e+00 3.642e-01 3.462e-01 1.000e+00
6 1 5.654e+00 2.124e+00 3.442e-01 1.000e+00
7 1 5.663e+00 3.559e-01 2.122e+00 0.000e+00
8 1 3.894e+00 2.123e+00 2.134e+00 0.000e+00
9 1 7.431e+00 3.573e-01 3.525e-01 0.000e+00
10 1 9.206e+00 2.125e+00 3.544e-01 0.000e+00
11 1 9.203e+00 3.549e-01 2.122e+00 0.000e+00
12 1 7.431e+00 2.124e+00 2.121e+00 0.000e+00
13 1 3.570e-01 3.894e+00 3.541e-01 0.000e+00
14 1 2.124e+00 3.892e+00 2.121e+00 0.000e+00
15 1 3.894e+00 3.882e+00 3.439e-01 1.000e+00
16 1 5.663e+00 3.891e+00 2.121e+00 0.000e+00
17 1 7.432e+00 3.894e+00 3.537e-01 0.000e+00
18 1 9.205e+00 3.892e+00 2.121e+00 0.000e+00
19 1 3.552e-01 3.568e-01 3.896e+00 0.000e+00
20 1 2.123e+00 2.122e+00 3.895e+00 0.000e+00
21 1 3.894e+00 3.534e-01 3.895e+00 0.000e+00
22 1 5.664e+00 2.124e+00 3.895e+00 0.000e+00
23 1 7.433e+00 3.546e-01 3.895e+00 0.000e+00
24 1 9.202e+00 2.123e+00 3.893e+00 0.000e+00
25 1 3.540e-01 3.893e+00 3.895e+00 0.000e+00
26 1 3.894e+00 3.895e+00 3.894e+00 0.000e+00
27 1 7.434e+00 3.894e+00 3.893e+00 0.000e+00
28 1 2.126e+00 3.568e-01 5.667e+00 0.000e+00
29 1 3.569e-01 2.122e+00 5.667e+00 0.000e+00
30 1 5.661e+00 3.558e-01 5.668e+00 0.000e+00
31 1 3.894e+00 2.126e+00 5.654e+00 0.000e+00
32 1 9.204e+00 3.540e-01 5.665e+00 0.000e+00
33 1 7.431e+00 2.124e+00 5.667e+00 0.000e+00
34 1 2.125e+00 3.893e+00 5.666e+00 0.000e+00
35 1 5.663e+00 3.892e+00 5.666e+00 0.000e+00
36 1 9.205e+00 3.895e+00 5.665e+00 0.000e+00
37 1 3.564e-01 3.561e-01 7.436e+00 0.000e+00
38 1 2.132e+00 2.124e+00 7.443e+00 1.000e+00
39 1 2.135e+00 3.616e-01 9.206e+00 1.000e+00
40 1 3.453e-01 2.123e+00 9.204e+00 0.000e+00
41 1 3.895e+00 3.636e-01 7.445e+00 1.000e+00
42 1 5.655e+00 2.124e+00 7.444e+00 1.000e+00
43 1 5.657e+00 3.636e-01 9.205e+00 1.000e+00
44 1 7.434e+00 3.560e-01 7.437e+00 0.000e+00
45 1 9.204e+00 2.124e+00 7.432e+00 0.000e+00
46 1 9.203e+00 3.531e-01 9.205e+00 0.000e+00
47 1 7.445e+00 2.124e+00 9.203e+00 0.000e+00
48 1 3.543e-01 3.893e+00 7.434e+00 0.000e+00
49 1 2.134e+00 3.885e+00 9.204e+00 1.000e+00
50 1 3.894e+00 3.884e+00 7.444e+00 1.000e+00
51 1 5.654e+00 3.886e+00 9.205e+00 1.000e+00
52 1 7.432e+00 3.892e+00 7.435e+00 0.000e+00
53 1 9.203e+00 3.896e+00 9.203e+00 0.000e+00
54 1 2.125e+00 5.662e+00 3.526e-01 0.000e+00
55 1 3.553e-01 5.663e+00 2.125e+00 0.000e+00
56 1 5.662e+00 5.663e+00 3.533e-01 0.000e+00
57 1 3.893e+00 5.661e+00 2.121e+00 0.000e+00
58 1 9.204e+00 5.661e+00 3.529e-01 0.000e+00
59 1 7.434e+00 5.664e+00 2.123e+00 0.000e+00
60 1 3.553e-01 7.434e+00 3.557e-01 0.000e+00
61 1 2.125e+00 9.207e+00 3.513e-01 0.000e+00
62 1 2.124e+00 7.431e+00 2.124e+00 0.000e+00
63 1 3.534e-01 9.206e+00 2.122e+00 0.000e+00
64 1 3.896e+00 7.434e+00 3.565e-01 0.000e+00
65 1 5.664e+00 9.207e+00 3.529e-01 0.000e+00
66 1 5.665e+00 7.437e+00 2.122e+00 0.000e+00
67 1 3.892e+00 9.208e+00 2.119e+00 0.000e+00
68 1 7.433e+00 7.434e+00 3.558e-01 0.000e+00
69 1 9.205e+00 9.205e+00 3.533e-01 0.000e+00
70 1 9.204e+00 7.434e+00 2.123e+00 0.000e+00
71 1 7.431e+00 9.206e+00 2.123e+00 0.000e+00
72 1 2.125e+00 5.664e+00 3.894e+00 0.000e+00
73 1 5.663e+00 5.662e+00 3.894e+00 0.000e+00
74 1 9.205e+00 5.664e+00 3.895e+00 0.000e+00
75 1 3.544e-01 7.434e+00 3.896e+00 0.000e+00
76 1 2.124e+00 9.206e+00 3.894e+00 0.000e+00
77 1 3.895e+00 7.434e+00 3.893e+00 0.000e+00
78 1 5.663e+00 9.204e+00 3.896e+00 0.000e+00
79 1 7.434e+00 7.435e+00 3.894e+00 0.000e+00
80 1 9.203e+00 9.203e+00 3.893e+00 0.000e+00
81 1 3.546e-01 5.663e+00 5.666e+00 0.000e+00
82 1 3.894e+00 5.659e+00 5.668e+00 0.000e+00
83 1 7.433e+00 5.665e+00 5.664e+00 0.000e+00
84 1 2.124e+00 7.433e+00 5.664e+00 0.000e+00
85 1 3.559e-01 9.205e+00 5.665e+00 0.000e+00
86 1 5.664e+00 7.434e+00 5.664e+00 0.000e+00
87 1 3.895e+00 9.208e+00 5.667e+00 0.000e+00
88 1 9.203e+00 7.434e+00 5.664e+00 0.000e+00
89 1 7.433e+00 9.206e+00 5.665e+00 0.000e+00
90 1 2.126e+00 5.660e+00 7.435e+00 0.000e+00
91 1 3.550e-01 5.660e+00 9.204e+00 0.000e+00
92 1 5.661e+00 5.663e+00 7.437e+00 0.000e+00
93 1 3.894e+00 5.673e+00 9.203e+00 0.000e+00
94 1 9.205e+00 5.664e+00 7.433e+00 0.000e+00
95 1 7.429e+00 5.662e+00 9.204e+00 0.000e+00
96 1 3.566e-01 7.434e+00 7.434e+00 0.000e+00
97 1 2.126e+00 9.207e+00 7.437e+00 0.000e+00
98 1 2.121e+00 7.435e+00 9.205e+00 0.000e+00
99 1 3.571e-01 9.208e+00 9.205e+00 0.000e+00
100 1 3.894e+00 7.433e+00 7.431e+00 0.000e+00
101 1 5.662e+00 9.206e+00 7.436e+00 0.000e+00
102 1 5.667e+00 7.434e+00 9.203e+00 0.000e+00
103 1 3.892e+00 9.194e+00 9.205e+00 0.000e+00
104 1 7.433e+00 7.435e+00 7.435e+00 0.000e+00
105 1 9.204e+00 9.204e+00 7.435e+00 0.000e+00
106 1 9.205e+00 7.434e+00 9.204e+00 0.000e+00
107 1 7.433e+00 9.206e+00 9.203e+00 0.000e+00
ITEM: TIMESTEP
0
ITEM: NUMBER OF ATOMS
107
ITEM: BOX BOUNDS xy xz yz pp pp pp
                     0.00000000000000e+00 1.06200000000000e+01 0.00000000000000e+00
0.00000000000000e+00	1.06200000000000e+01	0.00000000000000e+00
0.00000000000000e+00	1.06200000000000e+01	0.00000000000000e+00
ITEM: ATOMS id type x y z Mass
108 1 3.580e-01 3.524e-01 3.504e-01 0.000e+00
109 1 2.125e+00 2.120e+00 3.508e-01 0.000e+00
110 1 2.124e+00 3.514e-01 2.121e+00 0.000e+00
111 1 3.542e-01 2.124e+00 2.123e+00 0.000e+00
112 1 3.895e+00 3.447e-01 3.448e-01 1.000e+00
113 1 5.663e+00 2.121e+00 3.543e-01 0.000e+00
114 1 5.662e+00 3.516e-01 2.123e+00 0.000e+00
115 1 3.894e+00 2.121e+00 2.121e+00 0.000e+00
116 1 7.430e+00 3.517e-01 3.528e-01 0.000e+00
117 1 9.204e+00 2.122e+00 3.538e-01 0.000e+00
118 1 9.204e+00 3.528e-01 2.123e+00 0.000e+00
119 1 7.434e+00 2.124e+00 2.123e+00 0.000e+00
120 1 3.555e-01 3.892e+00 3.535e-01 0.000e+00
121 1 2.125e+00 3.894e+00 2.123e+00 0.000e+00
122 1 3.895e+00 3.893e+00 3.562e-01 0.000e+00
123 1 5.663e+00 3.894e+00 2.122e+00 0.000e+00
124 1 7.433e+00 3.894e+00 3.536e-01 0.000e+00
125 1 9.203e+00 3.895e+00 2.122e+00 0.000e+00
126 1 3.552e-01 3.545e-01 3.894e+00 0.000e+00
127 1 2.126e+00 2.122e+00 3.894e+00 0.000e+00
128 1 3.895e+00 3.568e-01 3.893e+00 0.000e+00
129 1 5.662e+00 2.125e+00 3.894e+00 0.000e+00
130 1 7.433e+00 3.533e-01 3.896e+00 0.000e+00
131 1 9.203e+00 2.124e+00 3.893e+00 0.000e+00
132 1 3.536e-01 3.894e+00 3.894e+00 0.000e+00
133 1 3.893e+00 3.894e+00 3.893e+00 0.000e+00
134 1 7.433e+00 3.894e+00 3.894e+00 0.000e+00
135 1 2.124e+00 3.505e-01 5.666e+00 0.000e+00
136 1 3.553e-01 2.125e+00 5.665e+00 0.000e+00
137 1 5.662e+00 3.544e-01 5.668e+00 0.000e+00
138 1 3.892e+00 2.120e+00 5.668e+00 0.000e+00
139 1 9.202e+00 3.545e-01 5.662e+00 0.000e+00
140 1 7.435e+00 2.121e+00 5.665e+00 0.000e+00
141 1 2.125e+00 3.893e+00 5.665e+00 0.000e+00
142 1 5.663e+00 3.894e+00 5.663e+00 0.000e+00
143 1 9.205e+00 3.894e+00 5.664e+00 0.000e+00
144 1 3.587e-01 3.522e-01 7.437e+00 0.000e+00
145 1 2.125e+00 2.122e+00 7.436e+00 0.000e+00
146 1 2.133e+00 3.458e-01 9.204e+00 1.000e+00
147 1 3.572e-01 2.123e+00 9.206e+00 0.000e+00
148 1 3.895e+00 3.452e-01 7.441e+00 1.000e+00
149 1 5.664e+00 2.122e+00 7.434e+00 0.000e+00
150 1 5.655e+00 3.455e-01 9.204e+00 1.000e+00
151 1 3.893e+00 2.133e+00 9.204e+00 0.000e+00
152 1 7.431e+00 3.516e-01 7.435e+00 0.000e+00
153 1 9.203e+00 2.123e+00 7.436e+00 0.000e+00
154 1 9.204e+00 3.557e-01 9.205e+00 0.000e+00
155 1 7.431e+00 2.121e+00 9.205e+00 0.000e+00
156 1 3.550e-01 3.894e+00 7.434e+00 0.000e+00
157 1 2.122e+00 3.894e+00 9.204e+00 0.000e+00
158 1 3.894e+00 3.894e+00 7.432e+00 0.000e+00
159 1 5.665e+00 3.896e+00 9.203e+00 0.000e+00
160 1 7.432e+00 3.893e+00 7.435e+00 0.000e+00
161 1 9.202e+00 3.894e+00 9.204e+00 0.000e+00
162 1 2.127e+00 5.667e+00 3.528e-01 0.000e+00
163 1 3.544e-01 5.664e+00 2.125e+00 0.000e+00
164 1 5.663e+00 5.666e+00 3.510e-01 0.000e+00
165 1 3.895e+00 5.668e+00 2.120e+00 0.000e+00
166 1 9.204e+00 5.664e+00 3.548e-01 0.000e+00
167 1 7.433e+00 5.664e+00 2.123e+00 0.000e+00
168 1 3.575e-01 7.437e+00 3.528e-01 0.000e+00
169 1 2.134e+00 9.203e+00 3.432e-01 1.000e+00
170 1 2.124e+00 7.435e+00 2.121e+00 0.000e+00
171 1 3.577e-01 9.203e+00 2.120e+00 0.000e+00
172 1 3.893e+00 7.444e+00 3.439e-01 1.000e+00
173 1 5.655e+00 9.204e+00 3.447e-01 1.000e+00
174 1 5.663e+00 7.436e+00 2.121e+00 0.000e+00
175 1 3.892e+00 9.204e+00 2.133e+00 0.000e+00
176 1 7.433e+00 7.436e+00 3.517e-01 0.000e+00
177 1 9.204e+00 9.204e+00 3.551e-01 0.000e+00
178 1 9.204e+00 7.434e+00 2.122e+00 0.000e+00
179 1 7.431e+00 9.203e+00 2.121e+00 0.000e+00
180 1 2.124e+00 5.664e+00 3.894e+00 0.000e+00
181 1 5.662e+00 5.664e+00 3.893e+00 0.000e+00
182 1 9.204e+00 5.665e+00 3.893e+00 0.000e+00
183 1 3.557e-01 7.435e+00 3.894e+00 0.000e+00
184 1 2.122e+00 9.205e+00 3.892e+00 0.000e+00
185 1 3.895e+00 7.433e+00 3.895e+00 0.000e+00
186 1 5.668e+00 9.203e+00 3.893e+00 0.000e+00
187 1 7.432e+00 7.435e+00 3.892e+00 0.000e+00
188 1 9.204e+00 9.204e+00 3.894e+00 0.000e+00
189 1 3.549e-01 5.666e+00 5.666e+00 0.000e+00
190 1 3.894e+00 5.667e+00 5.669e+00 0.000e+00
191 1 7.434e+00 5.664e+00 5.665e+00 0.000e+00
192 1 2.125e+00 7.436e+00 5.666e+00 0.000e+00
193 1 3.589e-01 9.205e+00 5.668e+00 0.000e+00
194 1 5.660e+00 7.435e+00 5.668e+00 0.000e+00
195 1 3.892e+00 9.204e+00 5.655e+00 0.000e+00
196 1 9.203e+00 7.436e+00 5.664e+00 0.000e+00
197 1 7.432e+00 9.205e+00 5.668e+00 0.000e+00
198 1 2.126e+00 5.667e+00 7.436e+00 0.000e+00
199 1 3.582e-01 5.668e+00 9.203e+00 0.000e+00
200 1 5.663e+00 5.666e+00 7.438e+00 0.000e+00
201 1 3.893e+00 5.655e+00 9.204e+00 0.000e+00
202 1 9.205e+00 5.666e+00 7.434e+00 0.000e+00
203 1 7.432e+00 5.667e+00 9.204e+00 0.000e+00
204 1 3.566e-01 7.437e+00 7.437e+00 0.000e+00
205 1 2.134e+00 9.204e+00 7.443e+00 1.000e+00
206 1 2.135e+00 7.445e+00 9.205e+00 1.000e+00
207 1 3.461e-01 9.203e+00 9.203e+00 0.000e+00
208 1 3.893e+00 7.444e+00 7.444e+00 1.000e+00
209 1 5.654e+00 9.203e+00 7.443e+00 1.000e+00
210 1 5.656e+00 7.442e+00 9.203e+00 1.000e+00
211 1 7.431e+00 7.436e+00 7.435e+00 0.000e+00
212 1 9.204e+00 9.205e+00 7.433e+00 0.000e+00
213 1 9.204e+00 7.431e+00 9.204e+00 0.000e+00
214 1 7.442e+00 9.205e+00 9.204e+00 0.000e+00
ITEM: TIMESTEP
0
ITEM: NUMBER OF ATOMS
107
ITEM: BOX BOUNDS xy xz yz pp pp pp
                     0.00000000000000e+00 1.06200000000000e+01 0.00000000000000e+00
0.00000000000000e+00	1.06200000000000e+01	0.00000000000000e+00
0.00000000000000e+00	1.06200000000000e+01	0.00000000000000e+00
ITEM: ATOMS id type x y z Mass
215 1 3.536e-01 3.643e-01 3.551e-01 0.000e+00
216 1 2.127e+00 2.123e+00 3.530e-01 0.000e+00
217 1 2.122e+00 3.505e-01 2.122e+00 0.000e+00
218 1 3.546e-01 2.124e+00 2.125e+00 0.000e+00
219 1 3.891e+00 3.500e-01 3.542e-01 0.000e+00
220 1 5.664e+00 2.124e+00 3.533e-01 0.000e+00
221 1 5.666e+00 3.531e-01 2.123e+00 0.000e+00
222 1 3.894e+00 2.126e+00 2.123e+00 0.000e+00
223 1 7.439e+00 3.495e-01 3.537e-01 0.000e+00
224 1 9.204e+00 2.124e+00 3.537e-01 0.000e+00
225 1 9.207e+00 3.518e-01 2.124e+00 0.000e+00
226 1 7.434e+00 2.123e+00 2.122e+00 0.000e+00
227 1 3.535e-01 3.886e+00 3.538e-01 0.000e+00
228 1 2.120e+00 3.896e+00 2.122e+00 0.000e+00
229 1 3.890e+00 3.897e+00 3.551e-01 0.000e+00
230 1 5.663e+00 3.895e+00 2.123e+00 0.000e+00
231 1 7.436e+00 3.896e+00 3.541e-01 0.000e+00
232 1 9.205e+00 3.895e+00 2.122e+00 0.000e+00
233 1 3.520e-01 3.500e-01 3.891e+00 0.000e+00
234 1 2.123e+00 2.124e+00 3.895e+00 0.000e+00
235 1 3.893e+00 3.543e-01 3.893e+00 0.000e+00
236 1 5.664e+00 2.124e+00 3.892e+00 0.000e+00
237 1 7.435e+00 3.515e-01 3.893e+00 0.000e+00
238 1 9.204e+00 2.124e+00 3.893e+00 0.000e+00
239 1 3.526e-01 3.900e+00 3.890e+00 0.000e+00
240 1 3.894e+00 3.895e+00 3.894e+00 0.000e+00
241 1 7.435e+00 3.896e+00 3.894e+00 0.000e+00
242 1 2.124e+00 3.530e-01 5.664e+00 0.000e+00
243 1 3.528e-01 2.126e+00 5.661e+00 0.000e+00
244 1 5.664e+00 3.520e-01 5.665e+00 0.000e+00
245 1 3.894e+00 2.125e+00 5.666e+00 0.000e+00
246 1 9.205e+00 3.550e-01 5.664e+00 0.000e+00
247 1 7.433e+00 2.125e+00 5.662e+00 0.000e+00
248 1 2.124e+00 3.896e+00 5.663e+00 0.000e+00
249 1 5.663e+00 3.893e+00 5.666e+00 0.000e+00
250 1 9.203e+00 3.896e+00 5.664e+00 0.000e+00
251 1 3.532e-01 3.520e-01 7.436e+00 0.000e+00
252 1 2.123e+00 2.124e+00 7.435e+00 0.000e+00
253 1 2.122e+00 3.515e-01 9.204e+00 0.000e+00
254 1 3.554e-01 2.123e+00 9.203e+00 0.000e+00
255 1 3.895e+00 3.540e-01 7.434e+00 0.000e+00
256 1 5.664e+00 2.124e+00 7.437e+00 0.000e+00
257 1 5.664e+00 3.528e-01 9.206e+00 0.000e+00
258 1 3.894e+00 2.125e+00 9.205e+00 0.000e+00
259 1 7.435e+00 3.548e-01 7.436e+00 0.000e+00
260 1 9.204e+00 2.124e+00 7.434e+00 0.000e+00
261 1 9.207e+00 3.516e-01 9.208e+00 0.000e+00
262 1 7.435e+00 2.124e+00 9.203e+00 0.000e+00
263 1 3.541e-01 3.896e+00 7.438e+00 0.000e+00
264 1 2.123e+00 3.898e+00 9.206e+00 0.000e+00
265 1 3.894e+00 3.896e+00 7.435e+00 0.000e+00
266 1 5.664e+00 3.894e+00 9.204e+00 0.000e+00
267 1 7.436e+00 3.896e+00 7.435e+00 0.000e+00
268 1 9.207e+00 3.899e+00 9.205e+00 0.000e+00
269 1 2.116e+00 5.674e+00 3.555e-01 1.000e+00
270 1 3.526e-01 5.674e+00 2.114e+00 1.000e+00
271 1 5.663e+00 5.662e+00 3.548e-01 0.000e+00
272 1 3.890e+00 5.662e+00 2.123e+00 0.000e+00
273 1 9.214e+00 5.672e+00 3.538e-01 1.000e+00
274 1 7.437e+00 5.665e+00 2.120e+00 0.000e+00
275 1 2.115e+00 9.196e+00 3.540e-01 1.000e+00
276 1 2.114e+00 7.436e+00 2.114e+00 1.000e+00
277 1 3.523e-01 9.195e+00 2.114e+00 1.000e+00
278 1 3.903e+00 7.434e+00 3.529e-01 0.000e+00
279 1 5.664e+00 9.206e+00 3.517e-01 0.000e+00
280 1 5.665e+00 7.434e+00 2.126e+00 0.000e+00
281 1 3.888e+00 9.201e+00 2.122e+00 0.000e+00
282 1 7.423e+00 7.433e+00 3.541e-01 0.000e+00
283 1 9.213e+00 9.194e+00 3.546e-01 1.000e+00
284 1 9.213e+00 7.434e+00 2.116e+00 1.000e+00
285 1 7.439e+00 9.203e+00 2.122e+00 0.000e+00
286 1 2.123e+00 5.665e+00 3.891e+00 0.000e+00
287 1 5.664e+00 5.665e+00 3.894e+00 0.000e+00
288 1 9.205e+00 5.666e+00 3.893e+00 0.000e+00
289 1 3.544e-01 7.433e+00 3.901e+00 0.000e+00
290 1 2.123e+00 9.202e+00 3.892e+00 0.000e+00
291 1 3.889e+00 7.433e+00 3.891e+00 0.000e+00
292 1 5.666e+00 9.203e+00 3.893e+00 0.000e+00
293 1 7.437e+00 7.434e+00 3.891e+00 0.000e+00
294 1 9.206e+00 9.201e+00 3.891e+00 0.000e+00
295 1 3.550e-01 5.662e+00 5.664e+00 0.000e+00
296 1 3.893e+00 5.665e+00 5.665e+00 0.000e+00
297 1 7.436e+00 5.665e+00 5.664e+00 0.000e+00
298 1 2.126e+00 7.434e+00 5.665e+00 0.000e+00
299 1 3.540e-01 9.204e+00 5.664e+00 0.000e+00
300 1 5.664e+00 7.433e+00 5.664e+00 0.000e+00
301 1 3.895e+00 9.203e+00 5.665e+00 0.000e+00
302 1 9.204e+00 7.436e+00 5.664e+00 0.000e+00
303 1 7.434e+00 9.202e+00 5.665e+00 0.000e+00
304 1 2.122e+00 5.666e+00 7.437e+00 0.000e+00
305 1 3.533e-01 5.672e+00 9.212e+00 1.000e+00
306 1 5.664e+00 5.666e+00 7.434e+00 0.000e+00
307 1 3.891e+00 5.666e+00 9.206e+00 0.000e+00
308 1 9.206e+00 5.668e+00 7.436e+00 0.000e+00
309 1 7.437e+00 5.668e+00 9.204e+00 0.000e+00
310 1 3.548e-01 7.432e+00 7.425e+00 0.000e+00
311 1 2.122e+00 9.204e+00 7.437e+00 0.000e+00
312 1 2.116e+00 7.435e+00 9.212e+00 1.000e+00
313 1 3.541e-01 9.194e+00 9.214e+00 1.000e+00
314 1 3.890e+00 7.435e+00 7.438e+00 0.000e+00
315 1 5.665e+00 9.203e+00 7.435e+00 0.000e+00
316 1 5.666e+00 7.432e+00 9.203e+00 0.000e+00
317 1 3.890e+00 9.202e+00 9.205e+00 0.000e+00
318 1 7.438e+00 7.434e+00 7.437e+00 0.000e+00
319 1 9.206e+00 9.203e+00 7.435e+00 0.000e+00
320 1 9.214e+00 7.433e+00 9.215e+00 1.000e+00
321 1 7.437e+00 9.203e+00 9.204e+00 0.000e+00
ITEM: TIMESTEP
0
ITEM: NUMBER OF ATOMS
107
ITEM: BOX BOUNDS xy xz yz pp pp pp
                     0.00000000000000e+00 1.06200000000000e+01 0.00000000000000e+00
0.00000000000000e+00	1.06200000000000e+01	0.00000000000000e+00
0.00000000000000e+00	1.06200000000000e+01	0.00000000000000e+00
ITEM: ATOMS id type x y z Mass
322 1 3.538e-01 3.540e-01 3.453e-01 0.000e+00
323 1 2.123e+00 2.123e+00 3.549e-01 0.000e+00
324 1 2.116e+00 3.540e-01 2.133e+00 1.000e+00
325 1 3.531e-01 2.115e+00 2.134e+00 1.000e+00
326 1 3.891e+00 3.529e-01 3.581e-01 0.000e+00
327 1 5.664e+00 2.124e+00 3.549e-01 0.000e+00
328 1 5.664e+00 3.526e-01 2.120e+00 0.000e+00
329 1 3.892e+00 2.122e+00 2.126e+00 0.000e+00
330 1 7.437e+00 3.523e-01 3.579e-01 0.000e+00
331 1 9.207e+00 2.123e+00 3.558e-01 0.000e+00
332 1 9.213e+00 3.556e-01 2.133e+00 1.000e+00
333 1 7.437e+00 2.123e+00 2.124e+00 0.000e+00
334 1 3.532e-01 3.888e+00 3.577e-01 0.000e+00
335 1 2.123e+00 3.895e+00 2.127e+00 0.000e+00
336 1 3.894e+00 3.894e+00 3.551e-01 0.000e+00
337 1 5.663e+00 3.893e+00 2.123e+00 0.000e+00
338 1 7.435e+00 3.893e+00 3.554e-01 0.000e+00
339 1 9.206e+00 3.892e+00 2.127e+00 0.000e+00
340 1 2.115e+00 2.115e+00 3.893e+00 1.000e+00
341 1 3.905e+00 3.533e-01 3.894e+00 0.000e+00
342 1 5.664e+00 2.125e+00 3.893e+00 0.000e+00
343 1 7.426e+00 3.531e-01 3.894e+00 0.000e+00
344 1 9.214e+00 2.114e+00 3.894e+00 1.000e+00
345 1 3.542e-01 3.904e+00 3.894e+00 0.000e+00
346 1 3.890e+00 3.889e+00 3.892e+00 0.000e+00
347 1 7.438e+00 3.890e+00 3.893e+00 0.000e+00
348 1 2.115e+00 3.550e-01 5.654e+00 1.000e+00
349 1 3.556e-01 2.114e+00 5.653e+00 1.000e+00
350 1 5.664e+00 3.529e-01 5.664e+00 0.000e+00
351 1 3.891e+00 2.123e+00 5.664e+00 0.000e+00
352 1 9.214e+00 3.536e-01 5.654e+00 1.000e+00
353 1 7.437e+00 2.124e+00 5.663e+00 0.000e+00
354 1 2.121e+00 3.892e+00 5.661e+00 0.000e+00
355 1 5.665e+00 3.892e+00 5.663e+00 0.000e+00
356 1 9.205e+00 3.891e+00 5.663e+00 0.000e+00
357 1 3.536e-01 3.536e-01 7.444e+00 0.000e+00
358 1 2.122e+00 2.122e+00 7.430e+00 0.000e+00
359 1 2.125e+00 3.543e-01 9.204e+00 0.000e+00
360 1 3.558e-01 2.125e+00 9.204e+00 0.000e+00
361 1 3.890e+00 3.543e-01 7.432e+00 0.000e+00
362 1 5.664e+00 2.124e+00 7.434e+00 0.000e+00
363 1 5.665e+00 3.527e-01 9.204e+00 0.000e+00
364 1 3.892e+00 2.123e+00 9.204e+00 0.000e+00
365 1 7.436e+00 3.530e-01 7.431e+00 0.000e+00
366 1 9.206e+00 2.121e+00 7.430e+00 0.000e+00
367 1 9.202e+00 3.550e-01 9.203e+00 0.000e+00
368 1 7.435e+00 2.123e+00 9.204e+00 0.000e+00
369 1 3.549e-01 3.889e+00 7.431e+00 0.000e+00
370 1 2.123e+00 3.892e+00 9.201e+00 0.000e+00
371 1 3.893e+00 3.893e+00 7.433e+00 0.000e+00
372 1 5.663e+00 3.896e+00 9.206e+00 0.000e+00
373 1 7.436e+00 3.892e+00 7.432e+00 0.000e+00
374 1 9.204e+00 3.893e+00 9.206e+00 0.000e+00
375 1 2.123e+00 5.664e+00 3.541e-01 0.000e+00
376 1 3.546e-01 5.664e+00 2.123e+00 0.000e+00
377 1 5.665e+00 5.661e+00 3.550e-01 0.000e+00
378 1 3.893e+00 5.664e+00 2.126e+00 0.000e+00
379 1 9.206e+00 5.663e+00 3.537e-01 0.000e+00
380 1 7.434e+00 5.664e+00 2.122e+00 0.000e+00
381 1 3.537e-01 7.437e+00 3.573e-01 0.000e+00
382 1 2.123e+00 9.207e+00 3.565e-01 0.000e+00
383 1 2.123e+00 7.436e+00 2.126e+00 0.000e+00
384 1 3.540e-01 9.213e+00 2.134e+00 1.000e+00
385 1 3.892e+00 7.435e+00 3.543e-01 0.000e+00
386 1 5.665e+00 9.206e+00 3.557e-01 0.000e+00
387 1 5.664e+00 7.435e+00 2.124e+00 0.000e+00
388 1 3.892e+00 9.206e+00 2.125e+00 0.000e+00
389 1 7.432e+00 7.436e+00 3.550e-01 0.000e+00
390 1 9.205e+00 9.206e+00 3.564e-01 0.000e+00
391 1 9.207e+00 7.436e+00 2.127e+00 0.000e+00
392 1 7.436e+00 9.207e+00 2.126e+00 0.000e+00
393 1 2.125e+00 5.663e+00 3.893e+00 0.000e+00
394 1 5.663e+00 5.662e+00 3.894e+00 0.000e+00
395 1 9.203e+00 5.664e+00 3.892e+00 0.000e+00
396 1 3.541e-01 7.424e+00 3.894e+00 0.000e+00
397 1 2.115e+00 9.212e+00 3.894e+00 1.000e+00
398 1 3.891e+00 7.440e+00 3.894e+00 0.000e+00
399 1 5.663e+00 9.202e+00 3.894e+00 0.000e+00
400 1 7.436e+00 7.438e+00 3.893e+00 0.000e+00
401 1 9.212e+00 9.213e+00 3.894e+00 1.000e+00
402 1 3.536e-01 5.662e+00 5.665e+00 0.000e+00
403 1 3.892e+00 5.664e+00 5.664e+00 0.000e+00
404 1 7.434e+00 5.663e+00 5.663e+00 0.000e+00
405 1 2.123e+00 7.434e+00 5.660e+00 0.000e+00
406 1 3.538e-01 9.213e+00 5.657e+00 1.000e+00
407 1 5.664e+00 7.435e+00 5.663e+00 0.000e+00
408 1 3.891e+00 9.205e+00 5.663e+00 0.000e+00
409 1 9.206e+00 7.436e+00 5.661e+00 0.000e+00
410 1 7.437e+00 9.206e+00 5.662e+00 0.000e+00
411 1 2.121e+00 5.664e+00 7.433e+00 0.000e+00
412 1 3.540e-01 5.666e+00 9.204e+00 0.000e+00
413 1 5.663e+00 5.665e+00 7.433e+00 0.000e+00
414 1 3.892e+00 5.664e+00 9.205e+00 0.000e+00
415 1 9.204e+00 5.665e+00 7.433e+00 0.000e+00
416 1 7.435e+00 5.665e+00 9.203e+00 0.000e+00
417 1 3.530e-01 7.436e+00 7.429e+00 0.000e+00
418 1 2.124e+00 9.208e+00 7.432e+00 0.000e+00
419 1 2.122e+00 7.435e+00 9.204e+00 0.000e+00
420 1 3.550e-01 9.203e+00 9.204e+00 0.000e+00
421 1 3.893e+00 7.436e+00 7.432e+00 0.000e+00
422 1 5.663e+00 9.205e+00 7.434e+00 0.000e+00
423 1 5.664e+00 7.432e+00 9.203e+00 0.000e+00
424 1 3.894e+00 9.203e+00 9.203e+00 0.000e+00
425 1 7.436e+00 7.433e+00 7.433e+00 0.000e+00
426 1 9.207e+00 9.207e+00 7.433e+00 0.000e+00
427 1 9.205e+00 7.432e+00 9.204e+00 0.000e+00
428 1 7.435e+00 9.203e+00 9.204e+00 0.000e+00
ITEM: TIMESTEP
0
ITEM: NUMBER OF ATOMS
107
ITEM: BOX BOUNDS xy xz yz pp pp pp
                     0.00000000000000e+00 1.06200000000000e+01 0.00000000000000e+00
0.00000000000000e+00	1.06200000000000e+01	0.00000000000000e+00
0.00000000000000e+00	1.06200000000000e+01	0.00000000000000e+00
ITEM: ATOMS id type x y z Mass
429 1 3.536e-01 3.579e-01 3.514e-01 0.000e+00
430 1 2.122e+00 2.126e+00 3.522e-01 0.000e+00
431 1 2.122e+00 3.533e-01 2.124e+00 0.000e+00
432 1 3.519e-01 2.126e+00 2.122e+00 0.000e+00
433 1 3.895e+00 3.540e-01 3.537e-01 0.000e+00
434 1 5.666e+00 2.124e+00 3.526e-01 0.000e+00
435 1 5.664e+00 3.542e-01 2.123e+00 0.000e+00
436 1 3.892e+00 2.125e+00 2.125e+00 0.000e+00
437 1 7.435e+00 3.567e-01 3.515e-01 0.000e+00
438 1 9.205e+00 2.133e+00 3.456e-01 1.000e+00
439 1 9.203e+00 3.576e-01 2.119e+00 0.000e+00
440 1 7.435e+00 2.125e+00 2.123e+00 0.000e+00
441 1 3.441e-01 3.894e+00 3.456e-01 1.000e+00
442 1 2.121e+00 3.893e+00 2.120e+00 0.000e+00
443 1 3.892e+00 3.895e+00 3.548e-01 0.000e+00
444 1 5.668e+00 3.893e+00 2.120e+00 0.000e+00
445 1 7.444e+00 3.894e+00 3.454e-01 1.000e+00
446 1 9.203e+00 3.893e+00 2.133e+00 0.000e+00
447 1 3.545e-01 3.560e-01 3.894e+00 0.000e+00
448 1 2.121e+00 2.124e+00 3.893e+00 0.000e+00
449 1 3.893e+00 3.550e-01 3.895e+00 0.000e+00
450 1 5.664e+00 2.125e+00 3.894e+00 0.000e+00
451 1 7.435e+00 3.557e-01 3.895e+00 0.000e+00
452 1 9.205e+00 2.121e+00 3.894e+00 0.000e+00
453 1 3.567e-01 3.896e+00 3.894e+00 0.000e+00
454 1 3.893e+00 3.894e+00 3.894e+00 0.000e+00
455 1 7.434e+00 3.893e+00 3.896e+00 0.000e+00
456 1 2.124e+00 3.557e-01 5.665e+00 0.000e+00
457 1 3.545e-01 2.126e+00 5.667e+00 0.000e+00
458 1 5.663e+00 3.551e-01 5.667e+00 0.000e+00
459 1 3.892e+00 2.126e+00 5.666e+00 0.000e+00
460 1 9.203e+00 3.578e-01 5.667e+00 0.000e+00
461 1 7.436e+00 2.127e+00 5.666e+00 0.000e+00
462 1 2.122e+00 3.891e+00 5.666e+00 0.000e+00
463 1 5.668e+00 3.893e+00 5.665e+00 0.000e+00
464 1 9.204e+00 3.893e+00 5.656e+00 0.000e+00
465 1 3.522e-01 3.576e-01 7.437e+00 0.000e+00
466 1 2.122e+00 2.125e+00 7.436e+00 0.000e+00
467 1 2.121e+00 3.572e-01 9.204e+00 0.000e+00
468 1 3.440e-01 2.135e+00 9.203e+00 1.000e+00
469 1 3.893e+00 3.555e-01 7.434e+00 0.000e+00
470 1 5.666e+00 2.125e+00 7.435e+00 0.000e+00
471 1 5.668e+00 3.582e-01 9.204e+00 0.000e+00
472 1 3.895e+00 2.121e+00 9.204e+00 0.000e+00
473 1 7.437e+00 3.569e-01 7.436e+00 0.000e+00
474 1 9.204e+00 2.133e+00 7.444e+00 1.000e+00
475 1 9.204e+00 3.462e-01 9.202e+00 0.000e+00
476 1 7.443e+00 2.134e+00 9.203e+00 1.000e+00
477 1 3.441e-01 3.892e+00 7.442e+00 1.000e+00
478 1 2.134e+00 3.896e+00 9.205e+00 0.000e+00
479 1 3.894e+00 3.895e+00 7.432e+00 0.000e+00
480 1 5.655e+00 3.894e+00 9.204e+00 0.000e+00
481 1 7.444e+00 3.894e+00 7.445e+00 1.000e+00
482 1 2.121e+00 5.662e+00 3.531e-01 0.000e+00
483 1 3.514e-01 5.664e+00 2.121e+00 0.000e+00
484 1 5.666e+00 5.663e+00 3.545e-01 0.000e+00
485 1 3.893e+00 5.663e+00 2.122e+00 0.000e+00
486 1 9.203e+00 5.655e+00 3.431e-01 1.000e+00
487 1 7.435e+00 5.663e+00 2.121e+00 0.000e+00
488 1 3.521e-01 7.432e+00 3.532e-01 0.000e+00
489 1 2.125e+00 9.205e+00 3.541e-01 0.000e+00
490 1 2.123e+00 7.432e+00 2.125e+00 0.000e+00
491 1 3.537e-01 9.204e+00 2.122e+00 0.000e+00
492 1 3.895e+00 7.434e+00 3.534e-01 0.000e+00
493 1 5.665e+00 9.203e+00 3.547e-01 0.000e+00
494 1 5.665e+00 7.431e+00 2.124e+00 0.000e+00
495 1 3.895e+00 9.203e+00 2.125e+00 0.000e+00
496 1 7.435e+00 7.432e+00 3.498e-01 0.000e+00
497 1 9.203e+00 9.206e+00 3.560e-01 0.000e+00
498 1 9.203e+00 7.430e+00 2.121e+00 0.000e+00
499 1 7.433e+00 9.205e+00 2.124e+00 0.000e+00
500 1 2.122e+00 5.663e+00 3.894e+00 0.000e+00
501 1 5.666e+00 5.665e+00 3.894e+00 0.000e+00
502 1 9.205e+00 5.665e+00 3.892e+00 0.000e+00
503 1 3.542e-01 7.433e+00 3.895e+00 0.000e+00
504 1 2.122e+00 9.203e+00 3.894e+00 0.000e+00
505 1 3.892e+00 7.431e+00 3.893e+00 0.000e+00
506 1 5.664e+00 9.203e+00 3.892e+00 0.000e+00
507 1 7.435e+00 7.433e+00 3.894e+00 0.000e+00
508 1 9.204e+00 9.206e+00 3.896e+00 0.000e+00
509 1 3.521e-01 5.663e+00 5.665e+00 0.000e+00
510 1 3.894e+00 5.664e+00 5.665e+00 0.000e+00
511 1 7.436e+00 5.661e+00 5.666e+00 0.000e+00
512 1 2.121e+00 7.433e+00 5.664e+00 0.000e+00
513 1 3.535e-01 9.207e+00 5.665e+00 0.000e+00
514 1 5.666e+00 7.435e+00 5.667e+00 0.000e+00
515 1 3.895e+00 9.204e+00 5.665e+00 0.000e+00
516 1 9.202e+00 7.430e+00 5.670e+00 0.000e+00
517 1 7.436e+00 9.203e+00 5.666e+00 0.000e+00
518 1 2.122e+00 5.661e+00 7.437e+00 0.000e+00
519 1 3.448e-01 5.655e+00 9.203e+00 1.000e+00
520 1 5.666e+00 5.662e+00 7.436e+00 0.000e+00
521 1 3.896e+00 5.666e+00 9.205e+00 0.000e+00
522 1 9.205e+00 5.654e+00 7.444e+00 1.000e+00
523 1 7.442e+00 5.654e+00 9.203e+00 1.000e+00
524 1 3.499e-01 7.431e+00 7.433e+00 0.000e+00
525 1 2.123e+00 9.204e+00 7.433e+00 0.000e+00
526 1 2.121e+00 7.430e+00 9.206e+00 0.000e+00
527 1 3.552e-01 9.205e+00 9.204e+00 0.000e+00
528 1 3.895e+00 7.435e+00 7.435e+00 0.000e+00
529 1 5.664e+00 9.202e+00 7.434e+00 0.000e+00
530 1 5.669e+00 7.430e+00 9.204e+00 0.000e+00
531 1 3.895e+00 9.204e+00 9.205e+00 0.000e+00
532 1 7.435e+00 7.431e+00 7.435e+00 0.000e+00
533 1 9.203e+00 9.204e+00 7.432e+00 0.000e+00
534 1 9.203e+00 7.444e+00 9.205e+00 0.000e+00
535 1 7.430e+00 9.204e+00 9.204e+00 0.000e+00
ITEM: TIMESTEP
0
ITEM: NUMBER OF ATOMS
107
ITEM: BOX BOUNDS xy xz yz pp pp pp
                     0.00000000000000e+00 1.06200000000000e+01 0.00000000000000e+00
0.00000000000000e+00	1.06200000000000e+01	0.00000000000000e+00
0.00000000000000e+00	1.06200000000000e+01	0.00000000000000e+00
ITEM: ATOMS id type x y z Mass
536 1 3.533e-01 3.566e-01 3.569e-01 0.000e+00
537 1 2.122e+00 2.124e+00 3.560e-01 0.000e+00
538 1 2.122e+00 3.562e-01 2.126e+00 0.000e+00
539 1 3.449e-01 2.125e+00 2.134e+00 1.000e+00
540 1 3.892e+00 3.562e-01 3.534e-01 0.000e+00
541 1 5.667e+00 2.123e+00 3.563e-01 0.000e+00
542 1 5.664e+00 3.550e-01 2.126e+00 0.000e+00
543 1 3.894e+00 2.123e+00 2.122e+00 0.000e+00
544 1 7.434e+00 3.570e-01 3.576e-01 0.000e+00
545 1 9.203e+00 2.125e+00 3.431e-01 0.000e+00
546 1 9.205e+00 3.638e-01 2.133e+00 1.000e+00
547 1 7.443e+00 2.123e+00 2.132e+00 1.000e+00
548 1 3.517e-01 3.894e+00 3.582e-01 0.000e+00
549 1 2.121e+00 3.892e+00 2.126e+00 0.000e+00
550 1 3.894e+00 3.891e+00 3.537e-01 0.000e+00
551 1 5.664e+00 3.893e+00 2.126e+00 0.000e+00
552 1 7.437e+00 3.890e+00 3.550e-01 0.000e+00
553 1 9.204e+00 3.885e+00 2.134e+00 1.000e+00
554 1 3.447e-01 3.649e-01 3.893e+00 1.000e+00
555 1 2.134e+00 2.124e+00 3.896e+00 0.000e+00
556 1 3.894e+00 3.513e-01 3.894e+00 0.000e+00
557 1 5.654e+00 2.125e+00 3.895e+00 0.000e+00
558 1 7.442e+00 3.650e-01 3.895e+00 1.000e+00
559 1 3.466e-01 3.884e+00 3.894e+00 1.000e+00
560 1 3.893e+00 3.896e+00 3.892e+00 0.000e+00
561 1 7.444e+00 3.885e+00 3.896e+00 1.000e+00
562 1 2.123e+00 3.564e-01 5.662e+00 0.000e+00
563 1 3.448e-01 2.125e+00 5.656e+00 1.000e+00
564 1 5.666e+00 3.560e-01 5.662e+00 0.000e+00
565 1 3.894e+00 2.124e+00 5.666e+00 0.000e+00
566 1 9.204e+00 3.624e-01 5.654e+00 1.000e+00
567 1 7.443e+00 2.122e+00 5.654e+00 1.000e+00
568 1 2.122e+00 3.893e+00 5.662e+00 0.000e+00
569 1 5.666e+00 3.891e+00 5.660e+00 0.000e+00
570 1 9.204e+00 3.885e+00 5.654e+00 1.000e+00
571 1 3.523e-01 3.546e-01 7.432e+00 0.000e+00
572 1 2.121e+00 2.123e+00 7.429e+00 0.000e+00
573 1 2.124e+00 3.517e-01 9.204e+00 0.000e+00
574 1 3.565e-01 2.124e+00 9.203e+00 0.000e+00
575 1 3.894e+00 3.546e-01 7.433e+00 0.000e+00
576 1 5.667e+00 2.124e+00 7.430e+00 0.000e+00
577 1 5.666e+00 3.534e-01 9.204e+00 0.000e+00
578 1 3.893e+00 2.123e+00 9.205e+00 0.000e+00
579 1 7.435e+00 3.562e-01 7.432e+00 0.000e+00
580 1 9.203e+00 2.125e+00 7.444e+00 0.000e+00
581 1 9.205e+00 3.506e-01 9.205e+00 0.000e+00
582 1 7.432e+00 2.122e+00 9.203e+00 0.000e+00
583 1 3.511e-01 3.893e+00 7.430e+00 0.000e+00
584 1 2.123e+00 3.893e+00 9.204e+00 0.000e+00
585 1 3.895e+00 3.894e+00 7.435e+00 0.000e+00
586 1 5.665e+00 3.893e+00 9.204e+00 0.000e+00
587 1 7.436e+00 3.891e+00 7.431e+00 0.000e+00
588 1 9.204e+00 3.895e+00 9.205e+00 0.000e+00
589 1 2.124e+00 5.663e+00 3.545e-01 0.000e+00
590 1 3.532e-01 5.660e+00 2.127e+00 0.000e+00
591 1 5.668e+00 5.665e+00 3.555e-01 0.000e+00
592 1 3.892e+00 5.662e+00 2.126e+00 0.000e+00
593 1 9.205e+00 5.661e+00 3.565e-01 0.000e+00
594 1 7.435e+00 5.662e+00 2.124e+00 0.000e+00
595 1 3.528e-01 7.435e+00 3.557e-01 0.000e+00
596 1 2.122e+00 9.204e+00 3.543e-01 0.000e+00
597 1 2.124e+00 7.434e+00 2.124e+00 0.000e+00
598 1 3.526e-01 9.204e+00 2.127e+00 0.000e+00
599 1 3.893e+00 7.434e+00 3.571e-01 0.000e+00
600 1 5.664e+00 9.204e+00 3.545e-01 0.000e+00
601 1 5.664e+00 7.434e+00 2.124e+00 0.000e+00
602 1 3.894e+00 9.204e+00 2.126e+00 0.000e+00
603 1 7.434e+00 7.435e+00 3.556e-01 0.000e+00
604 1 9.202e+00 9.207e+00 3.559e-01 0.000e+00
605 1 9.203e+00 7.433e+00 2.124e+00 0.000e+00
606 1 7.436e+00 9.206e+00 2.126e+00 0.000e+00
607 1 2.120e+00 5.661e+00 3.896e+00 0.000e+00
608 1 5.668e+00 5.661e+00 3.895e+00 0.000e+00
609 1 9.204e+00 5.673e+00 3.892e+00 0.000e+00
610 1 3.563e-01 7.434e+00 3.893e+00 0.000e+00
611 1 2.118e+00 9.207e+00 3.896e+00 0.000e+00
612 1 3.895e+00 7.435e+00 3.893e+00 0.000e+00