         170
Lattice="  53.5138   0.0000   0.0000   0.0000  60.9682   0.0000   0.0000   0.0000   8.6222 " Time=0.000E+00  Step=0
Ni     0.36384210    0.72199890    0.71288570       1
Ni    29.49759490    0.72398030    2.85504060      72
Ni    30.80430410    0.72039590    0.72831970      73
NiV   32.11245350    0.72528950    2.91163620      78
NiV   33.41417700    0.73579070    0.77781730      79
NiV   34.70649720    0.74986890    2.94858720      84
NiV   35.98932660    0.76298480    0.80299480      85
NiV   37.26416020    0.77341890    2.96504120      90
NiV   38.53297810    0.78085270    0.81370620      91
NiV   39.79802710    0.78509710    2.97183060      96
NiV   41.06024930    0.78759920    0.81742870      97
NiV   42.32184980    0.78797750    2.97292080     102
NiV   43.58365630    0.78595220    0.81578760     103
NiV   44.84780880    0.78254830    2.96872360     108
NiV   46.11521530    0.77543690    0.80872560     109
NiV   47.38806150    0.76655830    2.95816020     114
NiV   48.66865920    0.75269790    0.79319170     115
NiV   49.95724120    0.74180940    2.93433240     120
NiV   51.26105120    0.72419080    0.76487720     121
Ni    52.57033920    0.70542510    2.89938120     126
Ni     0.36548530   29.05180360    1.45290160     507
Ni    29.50028040   29.05212590    3.60924220     575
Ni    30.80716140   29.05527690    1.42460690     579
NiV   32.11507030   29.04988480    3.55246360     581
NiV   33.41619110   29.03907970    1.37548980     585
NiV   34.70777900   29.02503780    3.51601960     587
NiV   35.98999800   29.01206210    1.35057500     591
NiV   37.26430890   29.00187110    3.49963410     593
NiV   38.53282170   28.99466520    1.33973980     597
NiV   39.79763030   28.99063680    3.49264080     599
NiV   41.05987930   28.98834620    1.33570800     603
NiV   42.32157520   28.98832700    3.49121760     605
NiV   43.58376310   28.99057580    1.33697860     609
NiV   44.84843840   28.99455460    3.49510030     611
NiV   46.11674500   29.00166510    1.34381760     615
NiV   47.39075850   29.01171880    3.50576710     617
NiV   48.67260740   29.02455710    1.35998130     621
NiV   49.96377180   29.03850560    3.53037690     623
NiV   51.26453400   29.04934880    1.39604760     627
Ni    52.57227710   29.05486870    3.57921480     629
Ni    30.21937940   31.13787080    0.29550890     703
Ni    31.40751270   31.13656810    2.50510790     708
NiV   32.59626770   31.12123870    0.40275080     709
NiV   33.78966910   31.09821700    2.60539410     714
NiV   34.98960880   31.07473760    0.48690980     715
NiV   36.19703670   31.05535320    2.66893940     720
NiV   37.41147230   31.04110150    0.53102950     721
NiV   38.63068390   31.03140640    2.69757960     726
NiV   39.85377880   31.02557370    0.54840750     727
NiV   41.07866290   31.02231600    2.70681810     732
NiV   42.30458830   31.02227210    0.55131360     733
NiV   43.52951430   31.02550700    2.70410090     738
NiV   44.75271230   31.03127290    0.54231170     739
NiV   45.97208020   31.04084400    2.68706850     744
NiV   47.18672560   31.05492020    0.51417340     745
NiV   48.39441300   31.07408910    2.64363430     750
NiV   49.59460830   31.09740640    0.45145430     751
NiV   50.78823090   31.12039190    2.56028080     756
Ni    51.97705840   31.13608550    0.35177400     757
Ni    53.16515730   31.13778110    2.45327880     762
Ni     0.89181260   57.56932830    3.33615660    1160
Ni    30.22363660   59.60653310    1.86233720    1233
Ni    31.41199490   59.60691840    3.96388560    1235
NiV   32.60092170   59.62122730    1.75472690    1239
NiV   33.79409790   59.64432910    3.86259040    1241
NiV   34.99390040   59.66793830    1.66920840    1245
NiV   36.20113370   59.68764880    3.79753070    1247
NiV   37.41550450   59.70225910    1.62362390    1251
NiV   38.63472750   59.71227270    3.76757720    1253
NiV   39.85797500   59.71842200    1.60499740    1257
NiV   41.08306120   59.72192390    3.75713060    1259
NiV   42.30935670   59.72239690    1.60070540    1263
NiV   43.53439720   59.71965030    3.75829940    1265
NiV   44.75832750   59.71427920    1.60772700    1269
NiV   45.97717680   59.70558170    3.77306270    1271
NiV   47.19312290   59.69177630    1.63311030    1275
NiV   48.39836880   59.67459490    3.81378080    1277
NiV   49.60065840   59.65026860    1.69353390    1281
NiV   50.78786850   59.63650520    3.89472700    1283
Ni    52.01023860   57.57053000    3.22030520    1286
Ni    51.97989660   59.60541920    1.80229390    1287
Ni    53.16260910   59.57193380    4.02921200    1289
Ni     0.36049860    0.70476390    5.01898240    1291
Ni    29.49759300    0.72397830    7.16613910    1362
Ni    30.80430800    0.72040500    5.03942490    1363
NiV   32.11245350    0.72528350    7.22272970    1368
NiV   33.41419600    0.73580010    5.08892820    1369
NiV   34.70650870    0.74985510    7.25967550    1374
NiV   35.98938380    0.76298390    5.11411720    1375
NiV   37.26419450    0.77338730    7.27612310    1380
NiV   38.53311920    0.78081950    5.12485220    1381
NiV   39.79811860    0.78499620    7.28290650    1386
NiV   41.06056600    0.78750010    5.12862400    1387
NiV   42.32206350    0.78769410    7.28398470    1392
NiV   43.58431630    0.78567630    5.12709090    1393
NiV   44.84827800    0.78180360    7.27982900    1398
NiV   46.11646270    0.77487100    5.12027070    1399
NiV   47.38906480    0.76471520    7.26950270    1404
NiV   48.67055900    0.75233990    5.10554550    1405
NiV   49.96021660    0.73731990    7.24897580    1410
NiV   51.25750350    0.72884100    5.07469560    1411
Ni    52.56615830    0.72098960    7.20598220    1416
Ni     0.36548500   29.05180170    5.76400380    1797
Ni    29.50028040   29.05212400    7.92034440    1865
Ni    30.80715940   29.05527690    5.73570870    1869
NiV   32.11507030   29.04988290    7.86356540    1871
NiV   33.41619110   29.03907970    5.68659170    1875
NiV   34.70777900   29.02503780    7.82712130    1877
NiV   35.98999800   29.01206210    5.66167740    1881
NiV   37.26430890   29.00187300    7.81073570    1883
NiV   38.53282170   28.99466520    5.65084220    1887
NiV   39.79763030   28.99063880    7.80374290    1889
NiV   41.05987930   28.98834620    5.64681060    1893
NiV   42.32157520   28.98832900    7.80232000    1895
NiV   43.58376310   28.99057400    5.64808130    1899
NiV   44.84843840   28.99455640    7.80620290    1901
NiV   46.11674500   29.00166320    5.65491960    1905
NiV   47.39075850   29.01172070    7.81686980    1907
NiV   48.67260740   29.02455520    5.67108350    1911
NiV   49.96377180   29.03850560    7.84147940    1913
NiV   51.26453400   29.04934880    5.70714950    1917
Ni    52.57227710   29.05486870    7.89031740    1919
Ni    30.21937940   31.13787270    4.60661130    1993
Ni    31.40751270   31.13656810    6.81620980    1998
NiV   32.59626770   31.12124060    4.71385290    1999
NiV   33.78966910   31.09821700    6.91649640    2004
NiV   34.98960880   31.07473950    4.79801230    2005
NiV   36.19703670   31.05535510    6.98004160    2010
NiV   37.41147230   31.04110150    4.84213160    2011
NiV   38.63068390   31.03141020    7.00868230    2016
NiV   39.85377880   31.02557180    4.85950960    2017
NiV   41.07866670   31.02231790    7.01792050    2022
NiV   42.30458830   31.02227020    4.86241540    2023
NiV   43.52951430   31.02550890    7.01520350    2028
NiV   44.75271230   31.03126910    4.85341320    2029
NiV   45.97208020   31.04084400    6.99817040    2034
NiV   47.18672560   31.05491640    4.82527450    2035
NiV   48.39441300   31.07408910    6.95473620    2040
NiV   49.59460830   31.09740450    4.76255560    2041
NiV   50.78823090   31.12038990    6.87138280    2046
Ni    51.97706220   31.13608360    4.66287520    2047
Ni    53.16515730   31.13778110    6.76438100    2052
Ni     0.94276280   55.54550940    4.72527120    2449
Ni     0.92106760   57.57249450    7.62501720    2450
Ni     0.82743310   59.58356480    6.21823360    2451
Ni     2.06594730   57.58482360    5.49384830    2452
Ni    30.22365570   59.60653310    6.17343860    2523
Ni    31.41202160   59.60691070    8.27498060    2525
NiV   32.60096360   59.62121970    6.06582640    2529
NiV   33.79414370   59.64431380    8.17367940    2531
NiV   34.99398040   59.66791540    5.98031000    2535
NiV   36.20122910   59.68762210    8.10860920    2537
NiV   37.41567230   59.70220190    5.93473680    2541
NiV   38.63494490   59.71221160    8.07863240    2543
NiV   39.85834120   59.71829610    5.91613780    2547
NiV   41.08359150   59.72174070    8.06813720    2549
NiV   42.31015020   59.72208790    5.91190160    2553
NiV   43.53564460   59.71922300    8.06920530    2555
NiV   44.76001360   59.71358490    5.91905560    2559
NiV   45.98004160   59.70444870    8.08384320    2561
NiV   47.19633870   59.69033430    5.94462920    2565
NiV   48.40424350   59.67141340    8.12431150    2567
NiV   49.60577780   59.64852530    6.00528430    2571
Ni    50.86272060   57.59513860    5.34605170    2572
NiV   50.79782490   59.62493140    8.20912840    2573
Ni    52.04897690   55.56589510    4.67473600    2575
Ni    52.04193880   57.58141710    7.50461630    2576
Ni    51.98406220   59.61581040    6.11093620    2577
Ni    53.16984560   59.61264800    8.33402060    2578
Ni    53.25411610   55.55768970    6.84063580    2579
         161
Lattice="  53.5138   0.0000   0.0000   0.0000  60.9682   0.0000   0.0000   0.0000   8.6222 " Time=5.745E-01  Step=0.5
Ni     0.41455607    0.72366302    0.74432789       1
Ni    30.80440646    0.72069966    0.72792830      73
NiV   32.11260712    0.72559999    2.91124292      78
NiV   33.41442473    0.73610488    0.77745875      79
NiV   34.70690640    0.75018565    2.94823195      84
NiV   35.98988487    0.76331507    0.80269532      85
NiV   37.26510594    0.77373336    2.96476249      90
NiV   38.53415255    0.78118687    0.81356827      91
NiV   39.80003836    0.78533584    2.97182374      96
NiV   41.06258841    0.78782850    0.81776756      97
NiV   42.32599421    0.78779222    2.97368029     102
NiV   43.58818598    0.78540195    0.81729177     103
NiV   44.85601080    0.78079990    2.97158471     108
NiV   46.12387639    0.77198524    0.81268066     109
NiV   47.40302054    0.75905287    2.96600220     114
NiV   48.68683636    0.73878559    0.79983629     115
NiV   49.97678444    0.71495319    2.94945684     120
NiV   51.29484789    0.70542840    0.77972093     121
Ni    52.58963033    0.62231470    2.92523158     126
Ni     0.36553039   29.05208969    1.45249829     507
Ni    30.80720761   29.05556738    1.42420255     579
NiV   32.11511817   29.05017371    3.55205951     581
NiV   33.41623827   29.03936874    1.37508621     585
NiV   34.70782427   29.02532653    3.51561648     587
NiV   35.99004253   29.01235052    1.35017207     591
NiV   37.26435362   29.00216001    3.49923142     593
NiV   38.53286605   28.99495324    1.33933728     597
NiV   39.79767642   28.99092510    3.49223859     599
NiV   41.05992355   28.98863337    1.33530578     603
NiV   42.32161905   28.98861438    3.49081550     605
NiV   43.58380987   28.99086179    1.33657660     609
NiV   44.84848174   28.99484082    3.49469828     611
NiV   46.11678792   29.00195058    1.34341574     615
NiV   47.39080306   29.01200453    3.50536501     617
NiV   48.67265069   29.02484175    1.35957937     621
NiV   49.96381659   29.03878964    3.52997431     623
NiV   51.26457794   29.04963436    1.39564504     627
Ni    52.57232208   29.05515384    3.57881157     629
Ni     0.84177738   31.12578146    0.24826749     631
Ni    30.21942199   31.13816154    0.29510775     703
Ni    31.40755554   31.13685734    2.50470706     708
NiV   32.59631158   31.12152786    0.40234996     709
NiV   33.78971073   31.09850512    2.60499322     714
NiV   34.98965282   31.07502616    0.48650859     715
NiV   36.19707878   31.05564114    2.66853796     720
NiV   37.41151549   31.04138899    0.53062793     721
NiV   38.63072653   31.03169378    2.69717772     726
NiV   39.85382293   31.02586157    0.54800598     727
NiV   41.07870803   31.02260066    2.70641594     732
NiV   42.30463293   31.02255830    0.55091214     733
NiV   43.52955980   31.02579136    2.70369874     738
NiV   44.75275482   31.03155533    0.54191019     739
NiV   45.97212574   31.04112457    2.68666636     744
NiV   47.18676818   31.05519872    0.51377205     745
NiV   48.39445659   31.07436773    2.64323260     750
NiV   49.59465262   31.09768234    0.45105339     751
NiV   50.78827647   31.12066668    2.55987952     756
Ni    51.97710586   31.13635874    0.35137322     757
Ni    53.16520199   31.13805768    2.45287744     762
Ni     0.93978174   57.46129200    3.19627571    1160
Ni     0.74098852   59.60014440    2.05489595    1161
Ni     1.90086366   59.64103681    4.16935765    1163
Ni    31.41215450   59.60721779    3.96347292    1235
NiV   32.60105315   59.62155215    1.75432232    1239
NiV   33.79441318   59.64464437    3.86214785    1241
NiV   34.99414970   59.66831468    1.66877833    1245
NiV   36.20177499   59.68801639    3.79703625    1247
NiV   37.41596744   59.70273451    1.62320462    1251
NiV   38.63609089   59.71271707    3.76709530    1253
NiV   39.85877700   59.71901288    1.60482390    1257
NiV   41.08609339   59.72241919    3.75693699    1259
NiV   42.31052853   59.72293280    1.60142611    1263
NiV   43.54161480   59.72043828    3.75926195    1265
NiV   44.75925795   59.71404186    1.61130738    1269
NiV   45.99598432   59.70745355    3.77808635    1271
NiV   47.19040594   59.68832215    1.64349037    1275
NiV   48.44904986   59.68063548    3.83465568    1277
NiV   49.58152032   59.63197599    1.72788447    1281
NiV   50.93388486   59.64181905    3.95112934    1283
Ni    51.98005214   57.48355783    3.09867283    1286
Ni    51.92886129   59.55364616    1.82946762    1287
Ni    53.18222868   58.63075660    4.70010334    1289
Ni     0.32441606    0.61436662    5.00885072    1291
Ni    30.80438596    0.72069122    5.03901480    1363
NiV   32.11257873    0.72556916    7.22233935    1368
NiV   33.41438454    0.73608135    5.08852999    1369
NiV   34.70678896    0.75014435    7.25931347    1374
NiV   35.98981237    0.76326026    5.11374426    1375
NiV   37.26476617    0.77367634    7.27581904    1380
NiV   38.53399046    0.78108985    5.12457607    1381
NiV   39.79917473    0.78528057    7.28282199    1386
NiV   41.06219569    0.78775075    5.12873741    1387
NiV   42.32391626    0.78785606    7.28457541    1392
NiV   43.58714198    0.78617348    5.12847140    1393
NiV   44.85161318    0.78142391    7.28219940    1398
NiV   46.12077813    0.77714993    5.12562674    1399
NiV   47.39634285    0.76335026    7.27638722    1404
NiV   48.67432568    0.76367352    5.12323740    1405
NiV   49.98800892    0.73358747    7.26267496    1410
NiV   51.23972795    0.78945775    5.09420670    1411
Ni    52.63258969    0.79807855    7.25259787    1416
Ni     0.36553038   29.05208840    5.76360001    1797
Ni    30.80720747   29.05556749    5.73530448    1869
NiV   32.11511799   29.05017333    7.86316128    1871
NiV   33.41623811   29.03936928    5.68618824    1875
NiV   34.70782412   29.02532647    7.82671813    1877
NiV   35.99004234   29.01235142    5.66127439    1881
NiV   37.26435353   29.00216073    7.81033312    1883
NiV   38.53286574   28.99495386    5.65043998    1887
NiV   39.79767630   28.99092644    7.80334062    1889
NiV   41.05992319   28.98863313    5.64640866    1893
NiV   42.32161871   28.98861573    7.80191803    1895
NiV   43.58380956   28.99086054    5.64767937    1899
NiV   44.84848120   28.99484169    7.80580126    1901
NiV   46.11678769   29.00194876    5.65451816    1905
NiV   47.39080231   29.01200485    7.81646825    1907
NiV   48.67265053   29.02483980    5.67068137    1911
NiV   49.96381561   29.03878977    7.84107759    1913
NiV   51.26457781   29.04963262    5.70674671    1917
Ni    52.57232097   29.05515417    7.88991455    1919
Ni     0.84177886   31.12577860    4.55936723    1921
Ni    30.21942241   31.13816204    4.60620987    1993
Ni    31.40755577   31.13685735    6.81580897    1998
NiV   32.59631217   31.12152894    4.71345221    1999
NiV   33.78971142   31.09850598    6.91609527    2004
NiV   34.98965327   31.07502733    4.79761094    2005
NiV   36.19708010   31.05564365    6.97964039    2010
NiV   37.41151508   31.04138868    4.84173019    2011
NiV   38.63072792   31.03169725    7.00828070    2016
NiV   39.85382147   31.02585850    4.85910761    2017
NiV   41.07870865   31.02260323    7.01751910    2022
NiV   42.30463111   31.02255275    4.86201287    2023
NiV   43.52955936   31.02579128    7.01480150    2028
NiV   44.75275352   31.03154882    4.85301031    2029
NiV   45.97212478   31.04112170    6.99776844    2034
NiV   47.18676791   31.05519259    4.82487198    2035
NiV   48.39445581   31.07436284    6.95433415    2040
NiV   49.59465334   31.09767721    4.76215318    2041
NiV   50.78827619   31.12066076    6.87098065    2046
Ni    51.97710718   31.13635479    4.66247279    2047
Ni    53.16520189   31.13805254    6.76397838    2052
Ni     0.83601911   59.69258744    6.39313878    2451
Ni    31.41208037   59.60721258    8.27457794    2525
NiV   32.60111521   59.62151570    6.06540161    2529
NiV   33.79425445   59.64464298    8.17325554    2531
NiV   34.99426694   59.66823050    5.97983012    2535
NiV   36.20140532   59.68800543    8.10813845    2537
NiV   37.41619458   59.70254273    5.93416956    2541
NiV   38.63514057   59.71264453    8.07817137    2543
NiV   39.85923019   59.71859596    5.91551997    2547
NiV   41.08346034   59.72212512    8.06789637    2549
NiV   42.31141495   59.72219541    5.91132954    2553
NiV   43.53396225   59.71889413    8.06974400    2555
NiV   44.76092715   59.71302996    5.91875451    2559
NiV   45.97285400   59.70171433    8.08648953    2561
NiV   47.19408520   59.68868657    5.94585505    2565
NiV   48.38163828   59.66287988    8.13099114    2567
NiV   49.59431114   59.64769700    6.00982369    2571
NiV   50.74219324   59.61076286    8.26396378    2573
Ni    51.92674716   59.77653385    6.23808257    2577
Ni    53.11745097   59.64574157    8.41417544    2578
         161
Lattice="  53.5138   0.0000   0.0000   0.0000  60.9682   0.0000   0.0000   0.0000   8.6222 " Time=5.745E-01  Step=1
Ni     0.33466011    0.70337913    0.72086548       1
Ni    30.75072776    0.72342025    0.70264847      73
NiV   32.05822338    0.72064408    2.88745434      78
NiV   33.36630695    0.72629896    0.75939813      79
NiV   34.66678862    0.73721274    2.93576835      84
NiV   35.95791238    0.75098872    0.79478248      85
NiV   37.23956758    0.76364488    2.95978367      90
NiV   38.51345286    0.77350686    0.81046236      91
NiV   39.78195947    0.78051813    2.97001061      96
NiV   41.04629360    0.78461068    0.81672186      97
NiV   42.30930621    0.78661042    2.97317324     102
NiV   43.56996825    0.78698876    0.81720956     103
NiV   44.83410225    0.78373625    2.97082759     108
NiV   46.09618018    0.78055010    0.81191599     109
NiV   47.36861816    0.77013402    2.96230487     114
NiV   48.63776625    0.76194997    0.79889609     115
NiV   49.92806331    0.73636091    2.94231678     120
NiV   51.22111521    0.72456142    0.77313765     121
Ni    52.54232403    0.64197551    2.91946897     126
Ni     0.31767394   29.05412012    1.42941598     507
Ni    30.76984160   29.05415736    1.44142072     579
NiV   32.07823355   29.05340601    3.56769372     581
NiV   33.38397800   29.04508946    1.38673786     585
NiV   34.68131765   29.03238795    3.52369161     587
NiV   35.96900237   29.01819209    1.35553436     591
NiV   37.24757724   29.00587711    3.50289839     593
NiV   38.51913249   28.99656908    1.34190803     597
NiV   39.78551569   28.99043859    3.49380364     599
NiV   41.04896409   28.98725499    1.33606946     603
NiV   42.31040090   28.98583873    3.49066764     605
NiV   43.57179603   28.98663535    1.33549826     609
NiV   44.83389791   28.98941822    3.49259594     611
NiV   46.09914479   28.99396029    1.33992552     615
NiV   47.36821027   29.00197782    3.50000044     617
NiV   48.64379630   29.01285804    1.35136358     621
NiV   49.92731807   29.02622534    3.51754017     623
NiV   51.22071355   29.04014320    1.37826914     627
Ni    52.52277988   29.05010921    3.55645587     629
Ni     0.88380412   31.13589377    0.28621305     631
Ni    30.25219289   31.13207462    0.26602727     703
Ni    31.44115397   31.13882383    2.47316152     708
NiV   32.62941945   31.13108103    0.37188284     709
NiV   33.82006627   31.11134308    2.57837829     714
NiV   35.01632165   31.08723253    0.46599167     715
NiV   36.21946040   31.06494008    2.65421837     720
NiV   37.43027670   31.04731690    0.52136214     721
NiV   38.64671155   31.03484788    2.69163735     726
NiV   39.86785385   31.02670419    0.54509469     727
NiV   41.09201473   31.02196412    2.70560494     732
NiV   42.31773242   31.01982653    0.55189240     733
NiV   43.54360728   31.02116072    2.70664004     738
NiV   44.76863954   31.02485824    0.54733684     739
NiV   45.99114602   31.03148710    2.69556129     744
NiV   47.20973446   31.04213778    0.52780647     745
NiV   48.42301305   31.05744154    2.66409380     750
NiV   49.62937497   31.07788939    0.48018774     751
NiV   50.82795662   31.10183937    2.59668561     756
Ni    52.02063389   31.12413226    0.39298932     757
Ni    53.20919798   31.13696301    2.49500943     762
Ni     0.94059854   57.55768043    3.28656780    1160
Ni     0.80356728   59.60756563    1.95683534    1161
Ni     1.93919948   59.62782465    4.11077724    1163
Ni    31.45944936   59.60578976    4.00982319    1235
NiV   32.64767382   59.60810726    1.80013350    1239
NiV   33.83713092   59.62407975    3.90287876    1241
NiV   35.03129830   59.64710407    1.70102693    1245
NiV   36.23247707   59.67010067    3.82028999    1247
NiV   37.44078420   59.68907422    1.63900497    1251
NiV   38.65674679   59.70285598    3.77728499    1253
NiV   39.87645136   59.71250406    1.61101547    1257
NiV   41.10192582   59.71814364    3.76000765    1259
NiV   42.32629376   59.72164774    1.60150449    1263
NiV   43.55719917   59.72170944    3.75621701    1265
NiV   44.77874395   59.71872275    1.60273630    1269
NiV   46.01470144   59.71403993    3.76292864    1271
NiV   47.22120238   59.70315170    1.61579317    1275
NiV   48.47145994   59.69475630    3.78625301    1277
NiV   49.63450010   59.66647982    1.64661413    1281
NiV   50.93407993   59.66221572    3.84533408    1283
Ni    52.06410544   57.60689533    3.20529622    1286
Ni    51.99295360   59.59727361    1.71655125    1287
Ni    53.25986124   57.58409140    5.38505629    1289
Ni     0.29868311    0.61704994    5.00473737    1291
Ni    30.75077671    0.72348658    5.01373229    1363
NiV   32.05842205    0.72066222    7.19867246    1368
NiV   33.36611659    0.72621526    5.07037869    1369
NiV   34.66676475    0.73716258    7.24685449    1374
NiV   35.95778951    0.75092430    5.10579004    1375
NiV   37.23934454    0.76359387    7.27085200    1380
NiV   38.51329988    0.77346718    5.12136972    1381
NiV   39.78129857    0.78050860    7.28095136    1386
NiV   41.04619619    0.78443230    5.12763596    1387
NiV   42.30775389    0.78689480    7.28411167    1392
NiV   43.56967446    0.78686887    5.12799471    1393
NiV   44.83035452    0.78509023    7.28166093    1398
NiV   46.09516994    0.78168798    5.12305356    1399
NiV   47.36060065    0.77522278    7.27357798    1404
NiV   48.63268914    0.76802214    5.11272295    1405
NiV   49.91249931    0.75430916    7.26024971    1410
NiV   51.18422301    0.75381128    5.10046809    1411
Ni    52.52291452    0.70919597    7.21827905    1416
Ni     0.31763650   29.05411213    5.74057368    1797
Ni    30.76976887   29.05409035    5.75261011    1869
NiV   32.07835982   29.05348949    7.87874628    1871
NiV   33.38381379   29.04485082    5.69783065    1875
NiV   34.68135584   29.03227108    7.83476101    1877
NiV   35.96881447   29.01807716    5.66657000    1881
NiV   37.24757311   29.00588797    7.81390442    1883
NiV   38.51906604   28.99669431    5.65302587    1887
NiV   39.78555672   28.99051694    7.80492308    1889
NiV   41.04891983   28.98733227    5.64719412    1893
NiV   42.31047143   28.98584486    7.80179433    1895
NiV   43.57170214   28.98667162    5.64658657    1899
NiV   44.83397666   28.98941327    7.80364669    1901
NiV   46.09914325   28.99402241    5.65103411    1905
NiV   47.36831905   29.00191021    7.81112297    1907
NiV   48.64378182   29.01276384    5.66245851    1911
NiV   49.92748753   29.02637097    7.82876811    1913
NiV   51.22048572   29.04008081    5.68922463    1917
Ni    52.52267684   29.05008863    7.86747888    1919
Ni     0.88379934   31.13574854    4.59725666    1921
Ni    30.25217665   31.13199323    4.57718759    1993
Ni    31.44111307   31.13887912    6.78417802    1998
NiV   32.62947500   31.13091717    4.68297721    1999
NiV   33.81999150   31.11116601    6.88943369    2004
NiV   35.01638457   31.08729983    4.77706853    2005
NiV   36.21940416   31.06483899    6.96534838    2010
NiV   37.43024785   31.04737445    4.83248481    2011
NiV   38.64673502   31.03499415    7.00277245    2016
NiV   39.86783707   31.02671462    4.85619754    2017
NiV   41.09205002   31.02207068    7.01672368    2022
NiV   42.31771088   31.01989850    4.86295885    2023
NiV   43.54364516   31.02122326    7.01764375    2028
NiV   44.76871508   31.02484980    4.85851466    2029
NiV   45.99122494   31.03150896    7.00668451    2034
NiV   47.20977499   31.04218596    4.83892073    2035
NiV   48.42311188   31.05735681    6.97524199    2040
NiV   49.62936429   31.07774775    4.79125936    2041
NiV   50.82802187   31.10187807    6.90773260    2046
Ni    52.02064229   31.12409206    4.70411014    2047
Ni    53.20924872   31.13695238    6.80616376    2052
Ni     0.88943206   59.57859005    6.23730256    2451
Ni    31.45940837   59.60580186    8.32093486    2525
NiV   32.64772267   59.60806085    6.11124693    2529
NiV   33.83702478   59.62411827    8.21403588    2531
NiV   35.03135011   59.64705668    6.01206786    2535
NiV   36.23217596   59.67014891    8.13138827    2537
NiV   37.44095948   59.68903886    5.95003808    2541
NiV   38.65607006   59.70296124    8.08841666    2543
NiV   39.87683522   59.71237583    5.92188188    2547
NiV   41.10020017   59.71830604    8.07105024    2549
NiV   42.32735339   59.72143214    5.91198659    2553
NiV   43.55255320   59.72172122    8.06688519    2555
NiV   44.78187742   59.71878712    5.91217193    2559
NiV   46.00172750   59.71314584    8.07197279    2561
NiV   47.23063299   59.70519176    5.92255269    2565
NiV   48.43499853   59.68944535    8.09007192    2567
NiV   49.66341755   59.67558211    5.95161680    2571
NiV   50.83941707   59.64702735    8.12685364    2573
Ni    52.07371740   59.63443540    5.99367104    2577
Ni    53.19980439   59.59598798    8.28822608    2578
         158
Lattice="  53.5138   0.0000   0.0000   0.0000  60.9682   0.0000   0.0000   0.0000   8.6222 " Time=5.746E-01  Step=1.5
Ni     0.33036824    0.68313017    0.71192348       1
Ni    30.75045611    0.72356888    0.70312519      73
NiV   32.05789448    0.72070568    2.88799001      78
NiV   33.36550452    0.72636577    0.75974901      79
NiV   34.66587271    0.73735150    2.93611269      84
NiV   35.95625691    0.75111611    0.79477641      85
NiV   37.23745205    0.76385841    2.95960147      90
NiV   38.51029835    0.77373680    0.80950880      91
NiV   39.77776273    0.78086150    2.96840705      96
NiV   41.04049344    0.78502480    0.81350191      97
NiV   42.30143980    0.78748821    2.96822224     102
NiV   43.55960730    0.78870212    0.80874864     103
NiV   44.82000755    0.78716496    2.95826420     108
NiV   46.07869066    0.78663844    0.79356241     109
NiV   47.34569916    0.78069404    2.93528374     114
NiV   48.61167602    0.77669909    0.76467910     115
NiV   49.89510916    0.77413181    2.88500266     120
NiV   51.23339984    0.71349029    0.74684439     121
Ni    52.55887657    0.60348910    2.96227056     126
Ni     0.31773412   29.05393689    1.43018517     507
Ni    30.76936116   29.05424435    1.44158111     579
NiV   32.07802739   29.05360242    3.56777766     581
NiV   33.38354420   29.04518061    1.38695610     585
NiV   34.68097456   29.03244915    3.52399037     587
NiV   35.96853501   29.01830374    1.35585049     591
NiV   37.24721083   29.00605817    3.50315270     593
NiV   38.51881139   28.99681107    1.34214146     597
NiV   39.78530349   28.99064018    3.49402150     599
NiV   41.04876854   28.98745189    1.33629918     603
NiV   42.31026999   28.98603422    3.49087051     605
NiV   43.57158641   28.98674145    1.33570809     609
NiV   44.83386398   28.98951208    3.49283014     611
NiV   46.09907540   28.99410277    1.34031439     615
NiV   47.36829946   29.00198605    3.50051823     617
NiV   48.64383735   29.01293621    1.35198087     621
NiV   49.92754722   29.02636894    3.51821341     623
NiV   51.22084529   29.04017750    1.37887699     627
Ni    52.52309993   29.05008198    3.55719844     629
Ni     0.88300934   31.13557979    0.28619908     631
Ni    30.25202646   31.13221713    0.26609882     703
Ni    31.44096972   31.13895447    2.47315569     708
NiV   32.62926254   31.13121618    0.37198625     709
NiV   33.81983377   31.11145444    2.57857710     714
NiV   35.01610079   31.08745106    0.46626034     715
NiV   36.21915005   31.06506898    2.65454374     720
NiV   37.42998151   31.04752396    0.52167553     721
NiV   38.64643705   31.03501835    2.69191268     726
NiV   39.86759219   31.02683606    0.54529403     727
NiV   41.09174151   31.02222444    2.70575469     732
NiV   42.31742156   31.02005099    0.55198805     733
NiV   43.54332591   31.02136040    2.70666851     738
NiV   44.76832627   31.02494164    0.54748147     739
NiV   45.99086074   31.03162506    2.69574433     744