        2409
Lattice="  53.5138   0.0000   0.0000   0.0000  60.9682   0.0000   0.0000   0.0000   8.6222 " Time=0.000E+00  Step=0
Ni     0.33913030    2.73193860    3.52276400       2
Ni     0.32296900    4.75978140    2.03879620       3
Ni     1.62364990    2.74762130    1.35363600       4
Ni     1.59748590    4.76579620    4.18521880       5
Ni     1.66421090    0.73146310    2.83678610       6
Ni     2.94927020    0.73938040    0.65895280       7
Ni     2.90269260    2.75898460    3.49803500       8
Ni     2.87335600    4.77842240    2.02238630       9
Ni     4.17675070    2.76899240    1.33263910      10
Ni     4.14702750    4.78831100    4.17201280      11
Ni     4.23094130    0.75243000    2.80095060      12
Ni     5.50097940    0.75943350    0.63411780      13
Ni     5.45074660    2.78026870    3.48313550      14
Ni     5.41888810    4.79680020    2.01174760      15
Ni     6.71952110    2.78707410    1.32335060      16
Ni     6.69098710    4.80507850    4.16519310      17
Ni     6.76835160    0.76766950    2.78277950      18
Ni     8.02875520    0.77156340    0.62210100      19
Ni     7.98763480    2.79370410    3.47674970      20
Ni     7.96071400    4.81056360    2.00799110      21
Ni     9.25232220    2.79740000    1.31945170      22
Ni     9.23025040    4.81548070    4.16306260      23
Ni     9.28790480    0.77551800    2.77463060      24
Ni    10.54349420    0.77742270    0.61689680      25
Ni    10.51634120    2.80063300    3.47412300      26
Ni    10.49807360    4.81848100    2.00717040      27
Ni    11.77846620    2.80238490    1.31789030      28
Ni    11.76556880    4.82090190    4.16274020      29
Ni    11.79855830    0.77915770    2.77121470      30
Ni    13.05199530    0.77997100    0.61483830      31
Ni    13.04021170    2.80373460    3.47310140      32
Ni    13.03213020    4.82223940    2.00716640      33
Ni    14.30114370    2.80432470    1.31731210      34
Ni    14.29854680    4.82307720    4.16271780      35
Ni    14.30535030    0.78057330    2.77000950      36
Ni    15.55821140    0.78068800    0.61433860      37
Ni    15.56211090    2.80453950    3.47277980      38
Ni    15.56468680    4.82321840    2.00706790      39
Ni    16.82308010    2.80420210    1.31724480      40
Ni    16.83102990    4.82282780    4.16246130      41
Ni    16.81142620    0.78051980    2.77009590      42
Ni    18.06500820    0.77989630    0.61509560      43
Ni    18.08460620    2.80335240    3.47297190      44
Ni    18.09765630    4.82174640    2.00670430      45
Ni    19.34688000    2.80178170    1.31781110      46
Ni    19.36490060    4.81989720    4.16208600      47
Ni    19.31959340    0.77876520    2.77170470      48
Ni    20.57556350    0.77688520    0.61792510      49
Ni    20.61037640    2.79930160    3.47409510      50
Ni    20.63293460    4.81704670    2.00652410      51
Ni    21.87545780    2.79556660    1.31979780      52
Ni    21.90199860    4.81296830    4.16242170      53
Ni    21.83369450    0.77399980    2.77631120      54
Ni    23.09488110    0.76968540    0.62513370      55
Ni    23.14260860    2.79021410    3.47740800      56
Ni    23.17224500    4.80738400    2.00785210      57
Ni    24.41229820    2.78283100    1.32511350      58
Ni    24.44375420    4.80014990    4.16539240      59
Ni    24.36036300    0.76352830    2.78727960      60
Ni    25.63176350    0.75505680    0.64143020      61
Ni    25.68492320    2.77328420    3.48567560      62
Ni    25.71649740    4.79134940    2.01324060      63
Ni    26.96078880    2.76195840    1.33748770      64
Ni    26.99028020    4.78162050    4.17393920      65
Ni    26.91082580    0.74448500    2.81090600      66
Ni    28.19932370    0.73304230    0.67461860      67
Ni    28.23983580    2.75037650    3.50325830      68
Ni    28.26493260    4.77212910    2.02533980      69
Ni    29.52203750    2.74086120    1.36073860      70
Ni    29.54022220    4.76478580    4.18938210      71
Ni    30.80670740    2.73672580    3.53157880      74
Ni    30.81628800    4.76134540    2.04318360      75
Ni    32.09331130    2.73958920    1.39203370      76
Ni    32.09324260    4.76330040    4.20832540      77
Ni    33.38003540    2.74980120    3.56328970      80
Ni    33.37148670    4.77017310    2.06202700      81
Ni    34.66530610    2.76329520    1.42173290      82
Ni    34.65102770    4.78044270    4.22644040      83
Ni    35.94820800    2.77713970    3.58924530      86
Ni    35.93124020    4.79167080    2.07912520      87
Ni    37.22805410    2.78891350    1.44337490      88
Ni    37.21165470    4.80193050    4.24202870      89
Ni    38.50533680    2.79726650    3.60625910      92
Ni    38.49159620    4.81016730    2.09260130      93
Ni    39.78010940    2.80298000    1.45568030      94
Ni    39.77086640    4.81583550    4.25254350      95
Ni    41.05333710    2.80590110    3.61376670      98
Ni    41.04971700    4.81885050    2.09934900      99
Ni    42.32609940    2.80621270    1.45832330     100
Ni    42.32821660    4.81920390    4.25513550     101
Ni    43.59902580    2.80404830    3.61176900     104
Ni    43.60699850    4.81679300    2.09760740     105
Ni    44.87335600    2.79886110    1.45151680     106
Ni    44.88600540    4.81180620    4.24924850     107
Ni    46.14976880    2.79148100    3.60037400     110
Ni    46.16579440    4.80400420    2.08787700     111
Ni    47.42899710    2.78002340    1.43547000     112
Ni    47.44602210    4.79415990    4.23649310     113
Ni    48.71084220    2.76696470    3.58026650     116
Ni    48.72621920    4.78255180    2.07297780     117
Ni    49.99541100    2.75201200    1.41033070     118
Ni    50.00656890    4.77059130    4.22002460     119
Ni    51.28363800    2.73721460    3.55123330     122
Ni    51.28440860    4.76175220    2.05600240     123
Ni    52.56895070    2.73090770    1.38348660     124
Ni    52.56126410    4.75721550    4.20277830     125
Ni     0.31122540    6.78656440    0.55589150     127
Ni     0.30190330    8.81278420    3.38290860     128
Ni     0.29561710   10.83796220    1.89721340     129
Ni     1.57369370    8.81603620    1.22359100     130
Ni     1.56717540   10.83987440    4.05057720     131
Ni     1.58325770    6.79159310    2.70566800     132
Ni     2.85595500    6.79871990    0.54437070     133
Ni     2.84530780    8.82096200    3.37543820     134
Ni     2.83895640   10.84288800    1.89272400     135
Ni     4.11740690    8.82653720    1.21648650     136
Ni     4.11088420   10.84646320    4.04616260     137
Ni     4.12853530    6.80735500    2.69573790     138
Ni     5.40005400    6.81349180    0.53634900     139
Ni     5.38973240    8.83245570    3.36964820     140
Ni     5.38323500   10.85009300    1.88879640     141
Ni     6.66176080    8.83691120    1.21211230     142
Ni     6.65592340   10.85364720    4.04313470     143
Ni     6.67263220    6.82102250    2.69017390     144
Ni     7.94417340    6.82606840    0.53350300     145
Ni     7.93444920    8.84162240    3.36681610     146
Ni     7.92866000   10.85634240    1.88665220     147
Ni     9.20678710    8.84490300    1.21080300     148
Ni     9.20187190   10.85897260    4.04184010     149
Ni     9.21561620    6.83065320    2.68871550     150
Ni    10.48644350    6.83378410    0.53318890     151
Ni    10.47923760    8.84774020    3.36631560     152
Ni    10.47505380   10.86079980    1.88610660     153
Ni    11.75149350    8.84966660    1.21087870     154
Ni    11.74842460   10.86231240    4.04165790     155
Ni    11.75684360    6.83611590    2.68888400     156
Ni    13.02693750    6.83760840    0.53351820     157
Ni    13.02364730    8.85100460    3.36654350     158
Ni    13.02179340   10.86328120    1.88613600     159
Ni    14.29573820    8.85173620    1.21104780     160
Ni    14.29518890   10.86386020    4.04166890     161
Ni    14.29675580    6.83841230    2.68911290     162
Ni    15.56654360    6.83860970    0.53348910     163
Ni    15.56776910    8.85190880    3.36649970     164
Ni    15.56859780   10.86402800    1.88603260     165
Ni    16.83985340    8.85154720    1.21073270     166
Ni    16.84198960   10.86378680    4.04140420     167
Ni    16.83635140    6.83816770    2.68879200     168
Ni    18.10639190    6.83707720    0.53290010     169
Ni    18.11199000    8.85059180    3.36596320     170
Ni    18.11538320   10.86313340    1.88563640     171
Ni    19.38425830    8.84900680    1.21010160     172
Ni    19.38873480   10.86201760    4.04098610     173
Ni    19.37673950    6.83520650    2.68808080     174
Ni    20.64753340    6.83244230    0.53229650     175
Ni    20.65664290    8.84669020    3.36547350     176
Ni    20.66202740   10.86041560    1.88536340     177
Ni    21.92914200    8.84358320    1.21006490     178
Ni    21.93519780   10.85828300    4.04108480     179
Ni    21.91880620    6.82861140    2.68794610     180
Ni    23.19057660    6.82360940    0.53310000     181
Ni    23.20168880    8.83963780    3.36627220     182
Ni    23.20819280   10.85563280    1.88607600     183
Ni    24.47419930    8.83492950    1.21208110     184
Ni    24.48093610   10.85251900    4.04263210     185
Ni    24.46276860    6.81741960    2.69024490     186
Ni    25.73524480    6.81028320    0.53743050     187
Ni    25.74657440    8.82966620    3.36979940     188
Ni    25.75337980   10.84911360    1.88858660     189
Ni    27.01873780    8.82429030    1.21720540     190
Ni    27.02551270   10.84568980    4.04608200     191
Ni    27.00785830    6.80273300    2.69695020     192
Ni    28.28047750    6.79573300    0.54647650     193
Ni    28.29069520    8.81942180    3.37630270     194
Ni    28.29739570   10.84264860    1.89276100     195
Ni    29.56255920    8.81583980    1.22455820     196
Ni    29.56917960   10.84042360    4.05058960     197
Ni    29.55315210    6.79043100    2.70780260     198
Ni    30.82606890    6.78805120    0.55821430     199
Ni    30.83459480    8.81419760    3.38377430     200
Ni    30.84111800   10.83939280    1.89712260     201
Ni    32.10718160    8.81485750    1.23145100     202
Ni    32.11352160   10.83973600    4.05438140     203
Ni    32.09966280    6.78918270    2.71940570     204
Ni    33.37442780    6.79369790    0.56899200     205
Ni    33.38071820    8.81768900    3.38967440     206
Ni    33.38672260   10.84137440    1.90009960     207
Ni    34.65554430    8.82212830    1.23631920     208
Ni    34.66098410   10.84399320    4.05653290     209
Ni    34.65065770    6.80062770    2.72922830     210
Ni    35.92845160    6.80861860    0.57805370     211
Ni    35.93180080    8.82739160    3.39375140     212
Ni    35.93646620   10.84712520    1.90159080     213
Ni    37.20947650    8.83263880    1.23987430     214
Ni    37.21318440   10.85030180    4.05759330     215
Ni    37.20745850    6.81639720    2.73767040     216
Ni    38.48736960    6.82292800    0.58564390     217
Ni    38.48833850    8.83720880    3.39688780     218
Ni    38.49103930   10.85307880    1.90239520     219
Ni    39.76812750    8.84055720    1.24245920     220
Ni    39.76977160   10.85516940    4.05822090     221
Ni    39.76774220    6.82767580    2.74386670     222
Ni    41.04839330    6.83019500    0.58979610     223
Ni    41.04845050    8.84244160    3.39867210     224
Ni    41.04911420   10.85631000    1.90282540     225
Ni    42.32901380    8.84260000    1.24318920     226
Ni    42.32865530   10.85645020    4.05841680     227
Ni    42.32905960    6.83051640    2.74551820     228
Ni    43.60972980    6.82839540    0.58874680     229
Ni    43.60938650    8.84114460    3.39826180     230
Ni    43.60806660   10.85548700    1.90276160     231
Ni    44.88931280    8.83800700    1.24171030     232
Ni    44.88692860   10.85357760    4.05813790     233
Ni    44.89010240    6.82420590    2.74193580     234
Ni    46.17011640    6.81784490    0.58303560     235
Ni    46.16835020    8.83362960    3.39597920     236
Ni    46.16495900   10.85080240    1.90234040     237
Ni    47.44626240    8.82823850    1.23892280     238
Ni    47.44189840   10.84747700    4.05762480     239
Ni    47.44924550    6.81020830    2.73477560     240
Ni    48.72729880    6.80173970    0.57511110     241
Ni    48.72280500    8.82253550    3.39288210     242
Ni    48.71757890   10.84398180    1.90172860     243
Ni    49.99786000    8.81732850    1.23557400     244
Ni    49.99197400   10.84082600    4.05676890     245
Ni    50.00386430    6.79369880    2.72644780     246
Ni    51.27883910    6.78777650    0.56641250     247
Ni    51.27141950    8.81353950    3.38900450     248
Ni    51.26526260   10.83848860    1.90035980     249
Ni    52.54402160    8.81189060    1.23069860     250
Ni    52.53759770   10.83746150    4.05459790     251
Ni    52.55208970    6.78519630    2.71699720     252
Ni     0.29180980   12.86223600    0.41037790     253
Ni     0.29060290   14.88607120    3.23411990     254
Ni     0.29205140   16.90982260    1.74679990     255
Ni     1.56246320   14.88586140    1.07865510     256
Ni     1.56385950   16.90861320    3.90349320     257
Ni     1.56356960   12.86308580    2.56497840     258
Ni     2.83541090   12.86441620    0.40833390     259
Ni     2.83437760   14.88577760    3.23424080     260
Ni     2.83574060   16.90703580    1.74906080     261
Ni     4.10653590   14.88573460    1.07865290     262
Ni     4.10785870   16.90531540    3.90560580     263
Ni     4.10751010   12.86618040    2.56284690     264
Ni     5.37991100   12.86790660    0.40633750     265
Ni     5.37904450   14.88581000    3.23414920     266
Ni     5.38031340   16.90359320    1.75082630     267
Ni     6.65190410   14.88585000    1.07848930     268
Ni     6.65313820   16.90205200    3.90691280     269
Ni     6.65275810   12.86972240    2.56119440     270
Ni     7.92584660   12.87116620    0.40511880     271
Ni     7.92517100   14.88599880    3.23395110     272
Ni     7.92629100   16.90069960    1.75164250     273
Ni     9.19870760   14.88606740    1.07828120     274
Ni     9.19976040   16.89965260    3.90729380     275
Ni     9.19932650   12.87251860    2.56036450     276
Ni    10.47305490   12.87360960    0.40467660     277
Ni    10.47255710   14.88621620    3.23372870     278
Ni    10.47343920   16.89882660    1.75169220     279
Ni    11.74660970   14.88635840    1.07808700     280
Ni    11.74731450   16.89828880    3.90712460     281
Ni    11.74691490   12.87440600    2.56012800     282
Ni    13.02095320   12.87503060    0.40454560     283
Ni    13.02079110   14.88648520    3.23353170     284
Ni    13.02130600   16.89797980    1.75143630     285
Ni    14.29508310   14.88663960    1.07789610     286
Ni    14.29536150   16.89788820    3.90685920     287
Ni    14.29500290   12.87536720    2.56002070     288
Ni    15.56912040   12.87553880    0.40438440     289
Ni    15.56937890   14.88676360    3.23334910     290
Ni    15.56945230   16.89801980    1.75122650     291
Ni    16.84367380   14.88690860    1.07771430     292
Ni    16.84351360   16.89834600    3.90672660     293
Ni    16.84318740   12.87546160    2.55980260     294
Ni    18.11721420   12.87518700    0.40411300     295
Ni    18.11787420   14.88703260    3.23317740     296
Ni    18.11752130   16.89889920    1.75115060     297
Ni    19.39195250   14.88716600    1.07754660     298
Ni    19.39141270   16.89966960    3.90665640     299
Ni    19.39111900   12.87466340    2.55954430     300
Ni    20.66486740   12.87389860    0.40395100     301
Ni    20.66583060   14.88728620    3.23302010     302
Ni    20.66514400   16.90068820    1.75099550     303
Ni    21.93945880   14.88740260    1.07739910     304
Ni    21.93864820   16.90194900    3.90631140     305
Ni    21.93838700   12.87286760    2.55959420     306
Ni    23.21162990   12.87158400    0.40432790     307
Ni    23.21277620   14.88750740    3.23288800     308
Ni    23.21187020   16.90344620    1.75034880     309
Ni    24.48574070   14.88759900    1.07728600     310
Ni    24.48476030   16.90513240    3.90527680     311
Ni    24.48453710   12.87008100    2.56039530     312
Ni    25.75709350   12.86844160    0.40559850     313
Ni    25.75834090   14.88767340    3.23279980     314
Ni    25.75729560   16.90692140    1.74889160     315
Ni    27.03060530   14.88772680    1.07722770     316
Ni    27.02950100   16.90866480    3.90344100     317
Ni    27.02931600   12.86680420    2.56210330     318
Ni    28.30129240   12.86535360    0.40761980     319
Ni    28.30262950   14.88775920    3.23277500     320
Ni    28.30146220   16.91017720    1.74680910     321
Ni    29.57457160   14.88777260    1.07723620     322
Ni    29.57334140   16.91125880    3.90131560     323
Ni    29.57318120   12.86429500    2.56423600     324
Ni    30.84521300   12.86379540    0.40962920     325
Ni    30.84665880   14.88777360    3.23281190     326
Ni    30.84537320   16.91175080    1.74486720     327
Ni    32.11914830   14.88776980    1.07729280     328
Ni    32.11783600   16.91159260    3.89974320     329
Ni    32.11766430   12.86393640    2.56591750     330
Ni    33.39080810   12.86468520    0.41086620     331
Ni    33.39229970   14.88776980    3.23287580     332
Ni    33.39099890   16.91083720    1.74375700     333
Ni    34.66632080   14.88778220    1.07735240     334
Ni    34.66508870   16.90964520    3.89907840     335
Ni    34.66487120   12.86589620    2.56670070     336
Ni    35.93997960   12.86736120    0.41127720     337
Ni    35.94133000   14.88780780    3.23292160     338
Ni    35.94023140   16.90823180    1.74343890     339
Ni    37.21734620   14.88784700    1.07738050     340
Ni    37.21644980   16.90682040    3.89897560     341
Ni    37.21616360   12.86885360    2.56686210     342
Ni    38.49332810   12.87017360    0.41130700     343
Ni    38.49428180   14.88789660    3.23293280     344
Ni    38.49364470   16.90559960    1.74343560     345
Ni    39.77195740   14.88794240    1.07737860     346
Ni    39.77162550   16.90471660    3.89899880     347
Ni    39.77128220   12.87116820    2.56684470     348
Ni    41.04975510   12.87171840    0.41128770     349
Ni    41.05011370   14.88798820    3.23292850     350
Ni    41.05011750   16.90424740    1.74345310     351
Ni    42.32845310   14.88800140    1.07738070     352
Ni    42.32879260   16.90424360    3.89901040     353
Ni    42.32842260   12.87178900    2.56685020     354
Ni    43.60695270   12.87132180    0.41132910     355
Ni    43.60664370   14.88799960    3.23295550     356
Ni    43.60731510   16.90468420    1.74346830     357
Ni    44.88439180   14.88793280    1.07744740     358
Ni    44.88534940   16.90552340    3.89904560     359
Ni    44.88499840   12.87039960    2.56695250     360
Ni    46.16230390   12.86902620    0.41149860     361
Ni    46.16142660   14.88782020    3.23307990     362
Ni    46.16261670   16.90664860    1.74354940     363
Ni    47.43754960   14.88762280    1.07764750     364
Ni    47.43891150   16.90792280    3.89922000     365
Ni    47.43863680   12.86738780    2.56717590     366
Ni    48.71389010   12.86562160    0.41172260     367
Ni    48.71265800   14.88736720    3.23336320     368
Ni    48.71412660   16.90913960    1.74389730     369
Ni    49.98675540   14.88703640    1.07800620     370
Ni    49.98826600   16.91010100    3.89984920     371
Ni    49.98805620   12.86401000    2.56728150     372
Ni    51.26126100   12.86275780    0.41154820     373
Ni    51.25993730   14.88669200    3.23377010     374
Ni    51.26145550   16.91059880    1.74491350     375
Ni    52.53242110   14.88634300    1.07841210     376
Ni    52.53390120   16.91052060    3.90131400     377
Ni    52.53368380   12.86215020    2.56666350     378
Ni     0.29612560   18.93395040    0.26013260     379
Ni     0.30282160   20.95880140    3.08584070     380
Ni     0.31224860   22.98449520    1.60224890     381
Ni     1.57459700   20.95517740    0.93419820     382
Ni     1.58481140   22.97924040    3.76374770     383
Ni     1.56783270   18.93163120    2.41804200     384
Ni     2.83961400   18.92848220    0.26480120     385
Ni     2.84644480   20.95023360    3.09342650     386
Ni     2.85733700   22.97214520    1.61346040     387
Ni     4.11850070   20.94472700    0.94096500     388
Ni     4.12984900   22.96444900    3.77318220     389
Ni     4.11164190   18.92495920    2.42238020     390
Ni     5.38397930   18.92143820    0.26840630     391
Ni     5.39077470   20.93932540    3.09881400     392
Ni     5.40224740   22.95711140    1.62055140     393
Ni     6.66319560   20.93446160    0.94473220     394
Ni     6.67438030   22.95071800    3.77785160     395
Ni     6.65663340   18.91823200    2.42502670     396
Ni     7.92954160   18.91548160    0.27006490     397
Ni     7.93567380   20.93038180    3.10102870     398
Ni     7.94610120   22.94552040    1.62311990     399
Ni     9.20810800   20.92714320    0.94568080     400
Ni     9.21734050   22.94152640    3.77885300     401
Ni     9.20265010   18.91327300    2.42582200     402
Ni    10.47588450   18.91159640    0.27022320     403
Ni    10.48044780   20.92472280    3.10109660     404
Ni    10.48808770   22.93861580    1.62311900     405
Ni    11.75266170   20.92304040    0.94525880     406
Ni    11.75840380   22.93663600    3.77833890     407
Ni    11.74919130   18.91041760    2.42558720     408
Ni    13.02254680   18.90971380    0.26983010     409
Ni    13.02476310   20.92200860    3.10051060     410
Ni    13.02838230   22.93544020    1.62246500     411
Ni    14.29679010   20.92156800    0.94475200     412
Ni    14.29814820   22.93491740    3.77779650     413
Ni    14.29590610   18.90941440    2.42521240     414
Ni    15.56928060   18.90953260    0.26958310     415
Ni    15.56878280   20.92166720    3.10022780     416
Ni    15.56784250   22.93501480    1.62218080     417
Ni    16.84080900   20.92231560    0.94474300     418
Ni    16.83760450   22.93572440    3.77782010     419
Ni    16.84264560   18.91004000    2.42513920     420
Ni    18.11600300   18.91096700    0.26964610     421
Ni    18.11291120   20.92353640    3.10045270     422
Ni    18.10757640   22.93710140    1.62247020     423
Ni    19.38512990   20.92539600    0.94506300     424
Ni    19.37788010   22.93923760    3.77824050     425
Ni    19.38932800   18.91234020    2.42523670     426
Ni    20.66258430   18.91419800    0.26960580     427
Ni    20.65747650   20.92796720    3.10063890     428
Ni    20.64861680   22.94227600    1.62277870     429
Ni    21.92992780   20.93132780    0.94479760     430
Ni    21.91984760   22.94636540    3.77807910     431
Ni    21.93572440   18.91656880    2.42483930     432
Ni    23.20867920   18.91943940    0.26861170     433
Ni    23.20242690   20.93550120    3.09954550     434
Ni    23.19156650   22.95161820    1.62167070     435
Ni    24.47488600   20.94041260    0.94249840     436
Ni    24.46370700   22.95802880    3.77547150     437
Ni    24.48138620   18.92274280    2.42303830     438
Ni    25.75378990   18.92630200    0.26588640     439
Ni    25.74720580   20.94583700    3.09576010     440
Ni    25.73612600   22.96534740    1.61703390     441
Ni    27.01931570   20.95132460    0.93715780     442
Ni    27.00867080   22.97300920    3.76847960     443
Ni    27.02588650   18.92983060    2.41942570     444
Ni    28.29773520   18.93292440    0.26161530     445
Ni    28.29121970   20.95623020    3.08909770     446
Ni    28.28123280   22.98005880    1.60774880     447
Ni    29.56304170   20.95978940    0.92972100     448
Ni    29.55383680   22.98528480    3.75744750     449
Ni    29.56950000   18.93515220    2.41489460     450
Ni    30.84143080   18.93615340    0.25729820     451
Ni    30.83506010   20.96135340    3.08162380     452
Ni    30.82671170   22.98752980    1.59591810     453
Ni    32.10765840   20.96060000    0.92289080     454
Ni    32.10031130   22.98621380    3.74584250     455
Ni    32.11384960   18.93576440    2.41119820     456
Ni    33.38708500   18.93409740    0.25443980     457
Ni    33.38124090   20.95769320    3.07581900     458
Ni    33.37510680   22.98156180    1.58518380     459
Ni    34.65613560   20.95323380    0.91811540     460
Ni    34.65141680   22.97456740    3.73606090     461
Ni    34.66139990   18.93148240    2.40916040     462
Ni    35.93694320   18.92839820    0.25303830     463
Ni    35.93248000   20.94801340    3.07181240     464
Ni    35.92929080   22.96661580    1.57613970     465
Ni    37.21023940   20.94285960    0.91460920     466
Ni    37.20838170   22.95896340    3.72763800     467
Ni    37.21373370   18.92531400    2.40816240     468
Ni    38.49164970   18.92264760    0.25227200     469
Ni    38.48920060   20.93844420    3.06872800     470
Ni    38.48834990   22.95259860    1.56860210     471
Ni    39.76905830   20.93524560    0.91209140     472
Ni    39.76882170   22.94808200    3.72156340     473
Ni    39.77045060   18.92070020    2.40756680     474
Ni    41.04982380   18.91966640    0.25187460     475
Ni    41.04946520   20.93355760    3.06704620     476
Ni    41.04952240   22.94574740    1.56462770     477
Ni    42.33005520   20.93351560    0.91148780     478
Ni    42.33031460   22.94569780    3.72015530     479
Ni    42.32940290   18.91963960    2.40742730     480
Ni    43.60879520   18.92061240    0.25202790     481
Ni    43.61047750   20.93511780    3.06762650     482
Ni    43.61101530   22.94792940    1.56594790     483
Ni    44.89036560   20.93821920    0.91317060     484
Ni    44.89149480   22.95233360    3.72406680     485
Ni    44.88764200   18.92248340    2.40786170     486
Ni    46.16560750   18.92504880    0.25270400     487
Ni    46.16936490   20.94252400    3.07018850     488
Ni    46.17147450   22.95857620    1.57200760     489
Ni    47.44717030   20.94755360    0.91635180     490
Ni    47.45058830   22.96611020    3.73165010     491
Ni    47.44245910   18.92799960    2.40876320     492
Ni    48.71805580   18.93092920    0.25389260     493
Ni    48.72356040   20.95264820    3.07384090     494
Ni    48.72849280   22.97395140    1.58053200     495
Ni    49.99848940   20.95698360    0.92053960     496
Ni    50.00483320   22.98087120    3.74083430     497
Ni    49.99240880   18.93336880    2.41040140     498
Ni    51.26566320   18.93485840    0.25619330     499
Ni    51.27208710   20.95978160    3.07881550     500
Ni    51.27964780   22.98547180    1.59047060     501
Ni    52.54467780   20.96043980    0.92654640     502
Ni    52.55324180   22.98676680    3.75173310     503
Ni    52.53807070   18.93508720    2.41352560     504
Ni     0.32496770   25.01054760    0.12033410     505
Ni     0.34260350   27.03471760    2.94847580     506
Ni     1.62490820   27.02536010    0.80632140     508
Ni     1.66440250   29.04285620    3.63396380     509
Ni     1.60023940   25.00321010    2.28460740     510
Ni     2.87482340   24.99364660    0.13628570     511
Ni     2.90411820   27.01364140    2.97248720     512
Ni     2.95366720   29.03123670    1.49837690     513
Ni     4.18014570   27.00201800    0.82466540     514
Ni     4.23336320   29.02030180    3.66845540     515
Ni     4.14858250   24.98370180    2.29725600     516
Ni     5.42131570   24.97463420    0.14534190     517
Ni     5.45292330   26.99211700    2.98552480     518
Ni     5.50524190   29.01143840    1.52308300     519
Ni     6.72273540   26.98440180    0.83345490     520
Ni     6.77102190   29.00494770    3.68558810     521
Ni     6.69282960   24.96712500    2.30306750     522
Ni     7.96308280   24.96129800    0.14863330     523
Ni     7.98995640   26.97877320    2.99122960     524
Ni     8.03238390   29.00037570    1.53467960     525
Ni     9.25507930   26.97482880    0.83705360     526
Ni     9.29055410   28.99729740    3.69326240     527
Ni     9.23213770   24.95701600    2.30462430     528
Ni    10.50016120   24.95401000    0.14912740     529
Ni    10.51854990   26.97218320    2.99342660     530
Ni    10.54651930   28.99528320    1.53963340     531
Ni    11.78080080   26.97049900    0.83833750     532
Ni    11.80097680   28.99403960    3.69635110     533
Ni    11.76735310   24.95202840    2.30455330     534
Ni    13.03394700   24.95085720    0.14883400     535
Ni    13.04220770   26.96953960    2.99411800     536
Ni    13.05447670   28.99335100    1.54144600     537
Ni    14.30312440   26.96914480    0.83864030     538
Ni    14.30743500   28.99308780    3.69726640     539
Ni    14.30017570   24.95035560    2.30425260     540
Ni    15.56628230   24.95045100    0.14864530     541
Ni    15.56387330   26.96923840    2.99414480     542
Ni    15.56021980   28.99318320    1.54167740     543
Ni    16.82477760   26.96981820    0.83842980     544
Ni    16.81316380   28.99363340    3.69688560     545
Ni    16.83250240   24.95113560    2.30421620     546
Ni    18.09907910   24.95247660    0.14872830     547
Ni    18.08615880   26.97094740    2.99366620     548
Ni    18.06663320   28.99449540    1.54062380     549
Ni    19.34837150   26.97277640    0.83757870     550
Ni    19.32104110   28.99588780    3.69495730     551
Ni    19.36624530   24.95460700    2.30430910     552
Ni    20.63423540   24.95772560    0.14862610     553
Ni    20.61178590   26.97553260    2.99224940     554
Ni    20.57693290   28.99801840    1.53745510     555
Ni    21.87683880   26.97954000    0.83528750     556
Ni    21.83499530   29.00116540    3.68997580     557
Ni    21.90325160   24.96208000    2.30368260     558
Ni    23.17346570   24.96793180    0.14699200     559
Ni    23.14397050   26.98517420    2.98861040     560
Ni    23.09620860   29.00574680    1.52982460     561
Ni    24.41368100   26.99283600    0.82961340     562
Ni    24.36178590   29.01217840    3.67851570     563
Ni    24.44494250   24.97541820    2.30038430     564
Ni    25.71764950   24.98443040    0.14125400     565
Ni    25.68634420   27.00263600    2.97993900     566
Ni    25.63340000   29.02091790    1.51294280     567
Ni    26.96226120   27.01414110    0.81678820     568
Ni    26.91277120   29.03169820    3.65418890     569
Ni    26.99139400   24.99430480    2.29147840     570
Ni    28.26598170   25.00381660    0.12881280     571
Ni    28.24136930   27.02577780    2.96188440     572
Ni    28.20167160   29.04320140    1.47894640     573
Ni    29.52359580   27.03513340    0.79309870     574