ITEM: TIMESTEP
0
ITEM: NUMBER OF ATOMS
2579
ITEM: BOX BOUNDS pp pp pp
0.0000000000000000e+00 5.3513841210000002e+01
0.0000000000000000e+00 6.0968188400000003e+01
0.0000000000000000e+00 8.6222039000000006e+00
ITEM: ATOMS id type x y z c_1[1] c_1[2] c_1[3] c_1[4] c_1[5] c_1[6]
1 1 6.09644824367986e-01 7.81119700151452e-01 6.14436115744539e-01 2.070e+05 -3.002e+04 8.214e+04 -5.378e+04 -3.782e+04 4.818e+03
6 1 1.86261530973392e+00 7.81474960302806e-01 2.76967998461602e+00 1.973e+05 -2.903e+04 7.850e+04 -1.699e+04 -1.319e+04 2.395e+03
7 1 3.11541715260022e+00 7.81474960807740e-01 6.14129012719191e-01 1.963e+05 -3.069e+04 7.766e+04 1.812e+04 1.261e+04 3.616e+03
12 1 4.36838764804544e+00 7.81119699564267e-01 2.76998710240270e+00 2.067e+05 -3.169e+04 8.032e+04 5.426e+04 3.795e+04 3.651e+03
13 1 5.62189271981328e+00 7.80347464795810e-01 6.15116743868521e-01 2.288e+05 -3.357e+04 8.621e+04 9.099e+04 6.506e+04 4.030e+03
18 1 6.87635091169411e+00 7.79034443234539e-01 2.77186367471393e+00 2.651e+05 -3.636e+04 9.598e+04 1.287e+05 9.491e+04 4.578e+03
19 1 8.13231143108642e+00 7.76970135950933e-01 6.18255174611709e-01 3.197e+05 -3.987e+04 1.107e+05 1.671e+05 1.290e+05 5.374e+03
24 1 9.39047095260536e+00 7.73869227555950e-01 2.77684590583824e+00 3.978e+05 -4.359e+04 1.322e+05 2.060e+05 1.690e+05 6.487e+03
25 1 1.06518161084205e+01 7.69311239091362e-01 6.25928993775481e-01 5.066e+05 -4.547e+04 1.628e+05 2.431e+05 2.170e+05 8.014e+03
30 1 1.19175735801433e+01 7.62876833843282e-01 2.78840572972494e+00 6.523e+05 -4.236e+04 2.055e+05 2.751e+05 2.748e+05 9.918e+03
31 1 1.31894247370855e+01 7.54118582078918e-01 6.42981606904029e-01 8.385e+05 -2.669e+04 2.634e+05 2.945e+05 3.439e+05 1.154e+04
36 1 1.44690905028418e+01 7.43332708372467e-01 2.81298453503073e+00 1.057e+06 6.052e+03 3.376e+05 2.927e+05 4.229e+05 1.010e+04
37 1 1.57583274900183e+01 7.31892565383171e-01 6.77300547064839e-01 1.283e+06 5.494e+04 4.227e+05 2.587e+05 5.029e+05 -2.576e+03
42 1 1.70572271245245e+01 7.23141014452506e-01 2.85825583972118e+00 1.460e+06 9.655e+04 5.022e+05 1.876e+05 5.627e+05 -3.356e+04
43 1 1.83642822610085e+01 7.20267263256389e-01 7.31842087748398e-01 1.548e+06 1.115e+05 5.521e+05 7.239e+04 5.808e+05 -8.935e+04
49 1 2.09728774349966e+01 7.36962168378517e-01 7.80541395350364e-01 1.279e+06 2.667e+04 4.613e+05 -1.274e+05 4.146e+05 -1.730e+05
55 1 2.35459803664535e+01 7.63975724428806e-01 8.05084530948596e-01 8.363e+05 -6.557e+04 3.077e+05 -1.733e+05 2.267e+05 -1.857e+05
61 1 2.60883259169359e+01 7.81262725140963e-01 8.15741756562258e-01 5.323e+05 -8.279e+04 2.097e+05 -1.172e+05 1.032e+05 -1.767e+05
3 1 5.89713575767945e-01 4.82350294089317e+00 2.00699722424228e+00 4.125e+05 -1.073e+05 2.327e+05 -2.185e+04 -1.119e+04 -4.267e+04
4 1 1.85863175090021e+00 2.80536291749284e+00 1.31717000668906e+00 3.254e+05 -7.842e+04 1.699e+05 -1.207e+04 -7.212e+03 -2.613e+04
9 1 3.12207768834550e+00 4.82409586967484e+00 2.00707229163373e+00 4.074e+05 -1.080e+05 2.301e+05 7.394e+03 3.756e+03 -4.292e+04
10 1 4.38033148014616e+00 2.80487709382955e+00 1.31728917551907e+00 3.325e+05 -7.880e+04 1.732e+05 3.601e+04 2.160e+04 -2.614e+04
15 1 5.65492142515186e+00 4.82224759806744e+00 2.00688297183433e+00 4.227e+05 -1.055e+05 2.378e+05 3.528e+04 1.842e+04 -4.208e+04
16 1 6.90400347274015e+00 2.80208019652994e+00 1.31806331913412e+00 3.691e+05 -7.978e+04 1.903e+05 8.131e+04 4.986e+04 -2.581e+04
21 1 8.19014538885032e+00 4.81713578472351e+00 2.00690458646270e+00 4.583e+05 -9.566e+04 2.561e+05 5.599e+04 3.190e+04 -3.935e+04
22 1 9.43259408873821e+00 2.79541829102802e+00 1.32031190882600e+00 4.389e+05 -7.572e+04 2.252e+05 1.181e+05 7.646e+04 -2.358e+04
27 1 1.07294580366670e+01 4.80700411849936e+00 2.00850872045822e+00 5.115e+05 -6.673e+04 2.857e+05 6.327e+04 4.466e+04 -3.369e+04
28 1 1.19696135651962e+01 2.78213864923963e+00 1.32600824912464e+00 5.440e+05 -4.808e+04 2.841e+05 1.365e+05 1.004e+05 -1.691e+04
33 1 1.32737155340356e+01 4.79054169295820e+00 2.01429097101508e+00 5.730e+05 -1.453e+02 3.264e+05 5.649e+04 5.990e+04 -2.800e+04
34 1 1.45184072755185e+01 2.76083708674248e+00 1.33894934637509e+00 6.719e+05 3.397e+04 3.718e+05 1.293e+05 1.233e+05 -1.015e+04
39 1 1.58220862286526e+01 4.77128284038226e+00 2.02682366544144e+00 6.273e+05 9.996e+04 3.756e+05 5.336e+04 8.015e+04 -3.325e+04
40 1 1.70799320141253e+01 2.74008696674956e+00 1.36278806058808e+00 7.787e+05 1.455e+05 4.756e+05 1.078e+05 1.421e+05 -2.492e+04
45 1 1.83733442862375e+01 4.76116301199212e+00 2.04496598046232e+00 6.610e+05 1.651e+05 4.240e+05 7.356e+04 9.886e+04 -5.507e+04
46 1 1.96512245322813e+01 2.74015554963782e+00 1.39437688526550e+00 7.888e+05 1.576e+05 5.420e+05 6.656e+04 1.349e+05 -6.743e+04
51 1 2.09285696175630e+01 4.77094293420226e+00 2.06383923128612e+00 6.639e+05 1.128e+05 4.550e+05 8.934e+04 1.017e+05 -8.073e+04
52 1 2.22227461502148e+01 2.76455233475997e+00 1.42407080022556e+00 6.849e+05 2.200e+04 5.157e+05 1.345e+04 9.322e+04 -1.179e+05
57 1 2.34883248587166e+01 4.79260900318993e+00 2.08096471351739e+00 6.342e+05 -1.216e+03 4.589e+05 6.283e+04 8.132e+04 -1.092e+05
58 1 2.47847738211991e+01 2.78976128361737e+00 1.44553428359939e+00 5.577e+05 -8.050e+04 4.547e+05 -1.904e+04 4.740e+04 -1.474e+05
63 1 2.60485510019983e+01 4.81064786480242e+00 2.09432170828047e+00 5.916e+05 -7.693e+04 4.485e+05 2.553e+04 4.705e+04 -1.335e+05
127 1 5.84390461296383e-01 6.83886193125208e+00 5.33344439991416e-01 4.645e+05 -1.228e+05 2.707e+05 -1.179e+04 -4.911e+03 -5.054e+04
132 1 1.85416518522740e+00 6.83947795195085e+00 2.68904749537265e+00 4.612e+05 -1.247e+05 2.690e+05 -4.037e+03 -1.642e+03 -5.098e+04
133 1 3.12386782644162e+00 6.83947794796762e+00 5.33496513649014e-01 4.612e+05 -1.247e+05 2.690e+05 4.037e+03 1.643e+03 -5.098e+04
138 1 4.39364255612283e+00 6.83886192398687e+00 2.68889539768437e+00 4.645e+05 -1.228e+05 2.707e+05 1.179e+04 4.911e+03 -5.054e+04
139 1 5.66362716433755e+00 6.83757721779267e+00 5.33085895842119e-01 4.712e+05 -1.187e+05 2.742e+05 1.862e+04 8.149e+03 -4.962e+04
144 1 6.93394784290766e+00 6.83552032007826e+00 2.68836679919287e+00 4.808e+05 -1.117e+05 2.793e+05 2.389e+04 1.140e+04 -4.821e+04
145 1 8.20470117346343e+00 6.83255285421349e+00 5.32686789234667e-01 4.930e+05 -1.009e+05 2.860e+05 2.711e+04 1.479e+04 -4.634e+04
150 1 9.47594626164451e+00 6.82851958459748e+00 2.68846196581912e+00 5.072e+05 -8.484e+04 2.943e+05 2.796e+04 1.859e+04 -4.415e+04
151 1 1.07476766187159e+01 6.82331295042636e+00 5.33758114055489e-01 5.222e+05 -6.233e+04 3.042e+05 2.663e+04 2.313e+04 -4.206e+04
156 1 1.20198211781789e+01 6.81694094744486e+00 2.69106600690590e+00 5.372e+05 -3.229e+04 3.156e+05 2.396e+04 2.879e+04 -4.077e+04
157 1 1.32922367429598e+01 6.80966387776405e+00 5.38422028344664e-01 5.512e+05 4.807e+03 3.285e+05 2.185e+04 3.575e+04 -4.133e+04
162 1 1.45647693684617e+01 6.80206067815430e+00 2.69810680709217e+00 5.636e+05 4.660e+04 3.429e+05 2.263e+04 4.382e+04 -4.439e+04
163 1 1.58373186675854e+01 6.79509272340243e+00 5.47762236647030e-01 5.745e+05 8.770e+04 3.584e+05 2.853e+04 5.238e+04 -5.021e+04
168 1 1.71099042400036e+01 6.78999253621921e+00 2.70918666622393e+00 5.844e+05 1.200e+05 3.743e+05 4.088e+04 6.053e+04 -5.817e+04
169 1 1.83827723824094e+01 6.78789540431576e+00 5.59617704062511e-01 5.941e+05 1.353e+05 3.897e+05 5.793e+04 6.713e+04 -6.649e+04
174 1 1.96563771943989e+01 6.78937336818153e+00 2.72079146332568e+00 6.040e+05 1.294e+05 4.038e+05 7.466e+04 7.133e+04 -7.341e+04
175 1 2.09311945850577e+01 6.79415861082800e+00 5.70343015785100e-01 6.135e+05 1.038e+05 4.158e+05 8.554e+04 7.269e+04 -7.902e+04
180 1 2.22075293464799e+01 6.80125226015587e+00 2.73057161805494e+00 6.210e+05 6.516e+04 4.258e+05 8.685e+04 7.058e+04 -8.454e+04
181 1 2.34854196887155e+01 6.80925077465835e+00 5.79396864146120e-01 6.256e+05 2.291e+04 4.334e+05 7.813e+04 6.452e+04 -9.089e+04
186 1 2.47645086974819e+01 6.81691690555632e+00 2.73900267241551e+00 6.265e+05 -1.595e+04 4.388e+05 6.355e+04 5.477e+04 -9.828e+04
187 1 2.60444604669450e+01 6.82326935041432e+00 5.86927642045716e-01 6.249e+05 -4.640e+04 4.424e+05 4.572e+04 4.158e+04 -1.052e+05
130 1 1.85301747163955e+00 8.85277894587994e+00 1.21096723380799e+00 4.959e+05 -1.329e+05 2.932e+05 -1.875e+03 -5.574e+02 -5.406e+04
136 1 4.39704136718760e+00 8.85223352022696e+00 1.21083224222788e+00 4.979e+05 -1.301e+05 2.942e+05 5.405e+03 1.713e+03 -5.363e+04
142 1 6.94136471687874e+00 8.84933965765304e+00 1.21039211394515e+00 5.069e+05 -1.149e+05 2.995e+05 1.015e+04 4.570e+03 -5.172e+04
148 1 9.48615519581345e+00 8.84355944083705e+00 1.21058085182643e+00 5.202e+05 -8.297e+04 3.092e+05 1.024e+04 9.268e+03 -4.947e+04
154 1 1.20310870719374e+01 8.83459245515829e+00 1.21285929754245e+00 5.338e+05 -2.982e+04 3.236e+05 7.680e+03 1.735e+04 -4.992e+04
160 1 1.45754698332430e+01 8.82380262407863e+00 1.21822232673185e+00 5.451e+05 3.929e+04 3.433e+05 1.083e+04 2.867e+04 -5.665e+04
166 1 1.71191513306407e+01 8.81551377719698e+00 1.22568431219306e+00 5.574e+05 9.738e+04 3.666e+05 2.900e+04 3.985e+04 -6.854e+04
172 1 1.96637635163288e+01 8.81492423801055e+00 1.23251692611198e+00 5.764e+05 1.074e+05 3.887e+05 5.612e+04 4.647e+04 -7.758e+04
178 1 2.22122829606553e+01 8.82246373889272e+00 1.23729755184569e+00 6.018e+05 6.529e+04 4.069e+05 6.952e+04 4.623e+04 -8.056e+04
184 1 2.47664329702828e+01 8.83291379176493e+00 1.24081948377290e+00 6.246e+05 5.636e+03 4.214e+05 5.715e+04 3.709e+04 -8.340e+04
129 1 5.78974198963233e-01 1.08644791475417e+01 1.88595413849048e+00 5.180e+05 -1.328e+05 3.079e+05 -1.960e+03 -4.062e+02 -5.456e+04
135 1 3.12569850085660e+00 1.08648801906466e+01 1.88603679284942e+00 5.171e+05 -1.361e+05 3.072e+05 6.955e+02 1.155e+02 -5.482e+04
141 1 5.67240497960322e+00 1.08636585999603e+01 1.88582572772774e+00 5.197e+05 -1.260e+05 3.093e+05 2.873e+03 8.810e+02 -5.411e+04
147 1 8.21895715994768e+00 1.08606207456402e+01 1.88575018371270e+00 5.248e+05 -1.007e+05 3.144e+05 3.098e+03 2.929e+03 -5.334e+04
153 1 1.07650061839554e+01 1.08555432724536e+01 1.88667438596524e+00 5.302e+05 -5.774e+04 3.236e+05 1.799e+03 7.254e+03 -5.463e+04
159 1 1.33100553151081e+01 1.08488171197892e+01 1.88937807370233e+00 5.350e+05 6.489e+02 3.377e+05 2.608e+03 1.391e+04 -6.029e+04
165 1 1.58539406201989e+01 1.08423257710674e+01 1.89365934819520e+00 5.416e+05 5.953e+04 3.559e+05 1.114e+04 2.116e+04 -6.984e+04
171 1 1.83976074873718e+01 1.08392434837278e+01 1.89799325883223e+00 5.551e+05 9.197e+04 3.746e+05 2.810e+04 2.630e+04 -7.793e+04
177 1 2.09432866315814e+01 1.08414371732549e+01 1.90086807092929e+00 5.780e+05 8.151e+04 3.904e+05 4.340e+04 2.772e+04 -7.945e+04
183 1 2.34932043476635e+01 1.08472347763138e+01 1.90228830322087e+00 6.058e+05 4.159e+04 4.029e+05 4.507e+04 2.477e+04 -7.632e+04
189 1 2.60479614377223e+01 1.08530369324786e+01 1.90306457820096e+00 6.292e+05 6.786e+02 4.126e+05 3.087e+04 1.655e+04 -7.348e+04
253 1 5.77932971083626e-01 1.28761482442150e+01 4.04335819293001e-01 5.286e+05 -1.335e+05 3.149e+05 -4.973e+02 -3.213e+01 -5.472e+04
256 1 1.85187368592186e+00 1.48875805716260e+01 1.07777556005659e+00 5.318e+05 -1.372e+05 3.166e+05 2.672e-02 -2.724e-02 -5.475e+04
258 1 1.85198163138874e+00 1.28763589562833e+01 2.55992176447533e+00 5.283e+05 -1.370e+05 3.144e+05 -1.825e+02 2.639e+00 -5.481e+04
259 1 3.12605152562733e+00 1.28763589589064e+01 4.04370781410706e-01 5.283e+05 -1.370e+05 3.144e+05 1.825e+02 -2.683e+00 -5.481e+04
262 1 4.40041871713685e+00 1.48875805828891e+01 1.07777555057670e+00 5.319e+05 -1.336e+05 3.170e+05 3.619e-02 3.140e-03 -5.473e+04
264 1 4.40010018579573e+00 1.28761482537582e+01 2.55988677523592e+00 5.286e+05 -1.335e+05 3.149e+05 4.974e+02 3.211e+01 -5.472e+04
265 1 5.67408370223956e+00 1.28757190339600e+01 4.04285582417217e-01 5.292e+05 -1.263e+05 3.160e+05 6.709e+02 1.873e+02 -5.462e+04
268 1 6.94863729861014e+00 1.48875805881919e+01 1.07777555296924e+00 5.324e+05 -1.151e+05 3.196e+05 2.557e-02 2.926e-02 -5.503e+04
270 1 6.94795308763512e+00 1.28750580121126e+01 2.55980900758703e+00 5.299e+05 -1.152e+05 3.177e+05 6.504e+02 5.419e+02 -5.468e+04
271 1 8.22165356752143e+00 1.28741505635331e+01 4.04305046570828e-01 5.307e+05 -1.001e+05 3.202e+05 4.391e+02 1.167e+03 -5.511e+04
274 1 9.49606379641294e+00 1.48875805890284e+01 1.07777555379453e+00 5.327e+05 -8.055e+04 3.255e+05 2.974e-02 5.460e-03 -5.708e+04
276 1 9.49512548590574e+00 1.28729891518253e+01 2.56003644973148e+00 5.314e+05 -8.076e+04 3.238e+05 1.241e+02 2.110e+03 -5.618e+04
277 1 1.07683103039362e+01 1.28715837869210e+01 4.04853464974824e-01 5.320e+05 -5.742e+04 3.284e+05 -1.183e+02 3.382e+03 -5.811e+04
280 1 1.20422503634651e+01 1.48875805927020e+01 1.07777555043507e+00 5.329e+05 -3.114e+04 3.358e+05 2.836e-02 -1.175e-02 -6.242e+04
282 1 1.20411609112183e+01 1.28699773230483e+01 2.56099526413707e+00 5.327e+05 -3.074e+04 3.343e+05 -2.039e+01 4.937e+03 -6.103e+04
283 1 1.33136567093755e+01 1.28682598324481e+01 4.06258777632692e-01 5.337e+05 -2.120e+03 3.413e+05 7.547e+02 6.672e+03 -6.487e+04
286 1 1.45870207372795e+01 1.48875805982075e+01 1.07777554004413e+00 5.351e+05 2.437e+04 3.503e+05 4.630e-02 -5.260e-03 -7.073e+04
288 1 1.45858237645215e+01 1.28665761899540e+01 2.56280328532970e+00 5.355e+05 2.624e+04 3.492e+05 2.524e+03 8.431e+03 -6.931e+04
289 1 1.58577531867869e+01 1.28651157789178e+01 4.08335288087824e-01 5.388e+05 5.151e+04 3.576e+05 5.454e+03 1.004e+04 -7.375e+04
292 1 1.71309263751398e+01 1.48875806110514e+01 1.07777553063505e+00 5.433e+05 6.741e+04 3.663e+05 4.527e-02 -4.392e-03 -7.833e+04
294 1 1.71296126161340e+01 1.28640792755499e+01 2.56494146361465e+00 5.440e+05 7.071e+04 3.660e+05 9.416e+03 1.135e+04 -7.746e+04
295 1 1.84016380348846e+01 1.28636257755904e+01 4.10303949435669e-01 5.516e+05 8.153e+04 3.738e+05 1.392e+04 1.225e+04 -7.975e+04
298 1 1.96755122903450e+01 1.48875806221044e+01 1.07777552665864e+00 5.607e+05 8.012e+04 3.803e+05 3.548e-02 1.815e-02 -8.037e+04
300 1 1.96741084856761e+01 1.28638194728854e+01 2.56654911478531e+00 5.616e+05 8.301e+04 3.809e+05 1.817e+04 1.269e+04 -8.024e+04
301 1 2.09472955492018e+01 1.28646087681945e+01 4.11452905571684e-01 5.737e+05 7.585e+04 3.869e+05 2.136e+04 1.266e+04 -7.900e+04
304 1 2.22227614385188e+01 1.48875806250701e+01 1.07777553024385e+00 5.858e+05 6.184e+04 3.905e+05 3.166e-02 2.451e-02 -7.584e+04
306 1 2.22214184866844e+01 1.28658350901536e+01 2.56725042868344e+00 5.872e+05 6.223e+04 3.921e+05 2.284e+04 1.212e+04 -7.645e+04
307 1 2.34966023290918e+01 1.28672837809718e+01 4.11800832379885e-01 6.008e+05 4.513e+04 3.965e+05 2.230e+04 1.107e+04 -7.324e+04
310 1 2.47738958690844e+01 1.48875806279091e+01 1.07777552893645e+00 6.117e+05 3.021e+04 3.975e+05 2.101e-02 -2.015e-03 -6.850e+04
312 1 2.47728596806694e+01 1.28687303587495e+01 2.56737299428673e+00 6.136e+05 2.761e+04 4.002e+05 1.977e+04 9.455e+03 -6.999e+04
313 1 2.60500912787027e+01 1.28699828369364e+01 4.11812642478298e-01 6.243e+05 1.228e+04 4.032e+05 1.548e+04 7.278e+03 -6.720e+04
1291 1 6.09644823599094e-01 7.81119699557678e-01 4.92553806558727e+00 2.078e+05 -6.209e+04 8.649e+04 -6.320e+04 -3.356e+04 9.038e+03
1297 1 3.11541715205635e+00 7.81474960321174e-01 4.92523096337934e+00 1.978e+05 -2.907e+04 7.797e+04 1.944e+04 1.211e+04 3.231e+03
1303 1 5.62189271973665e+00 7.80347465930559e-01 4.92621869453906e+00 2.288e+05 -3.356e+04 8.622e+04 9.100e+04 6.506e+04 4.029e+03
1309 1 8.13231142929271e+00 7.76970134752358e-01 4.92935712355122e+00 3.197e+05 -3.987e+04 1.107e+05 1.671e+05 1.290e+05 5.374e+03
1315 1 1.06518161084901e+01 7.69311240046271e-01 4.93703094386943e+00 5.066e+05 -4.547e+04 1.628e+05 2.431e+05 2.170e+05 8.014e+03
1321 1 1.31894247374221e+01 7.54118583003260e-01 4.95408355687437e+00 8.385e+05 -2.669e+04 2.634e+05 2.945e+05 3.439e+05 1.154e+04
1327 1 1.57583274883714e+01 7.31892564513612e-01 4.98840249568341e+00 1.283e+06 5.494e+04 4.227e+05 2.587e+05 5.029e+05 -2.576e+03
1333 1 1.83642822616004e+01 7.20267263169178e-01 5.04294403726442e+00 1.548e+06 1.115e+05 5.521e+05 7.239e+04 5.808e+05 -8.935e+04
48 1 1.96720636995151e+01 7.25965025965867e-01 2.91493043427848e+00 1.457e+06 7.104e+04 5.250e+05 -4.410e+04 5.133e+05 -1.477e+05
1339 1 2.09728774361278e+01 7.36962168675630e-01 5.09164334586133e+00 1.279e+06 2.667e+04 4.613e+05 -1.274e+05 4.146e+05 -1.730e+05
54 1 2.22640937471857e+01 7.51038063754576e-01 2.95089653103293e+00 1.051e+06 -3.118e+04 3.807e+05 -1.670e+05 3.140e+05 -1.853e+05
1345 1 2.35459803665572e+01 7.63975726202331e-01 5.11618648033109e+00 8.363e+05 -6.557e+04 3.077e+05 -1.733e+05 2.267e+05 -1.857e+05
60 1 2.48200182033141e+01 7.74105621383687e-01 2.96702262489544e+00 6.609e+05 -7.994e+04 2.500e+05 -1.538e+05 1.577e+05 -1.823e+05
1351 1 2.60883259165331e+01 7.81262726881230e-01 5.12684370704994e+00 5.323e+05 -8.279e+04 2.097e+05 -1.172e+05 1.032e+05 -1.767e+05
2 1 5.97701246714818e-01 2.80487709761824e+00 3.47284015381006e+00 3.325e+05 -7.845e+04 1.732e+05 -3.593e+04 -2.161e+04 -2.623e+04
5 1 1.85595520255456e+00 4.82409587195457e+00 4.16262327148392e+00 4.074e+05 -1.080e+05 2.301e+05 -7.393e+03 -3.755e+03 -4.292e+04
1294 1 1.85863175016308e+00 2.80536291898589e+00 5.62827195649500e+00 3.255e+05 -7.808e+04 1.699e+05 -1.195e+04 -7.216e+03 -2.616e+04
8 1 3.11940096493020e+00 2.80536291769154e+00 3.47272097914260e+00 3.254e+05 -7.840e+04 1.699e+05 1.208e+04 7.208e+03 -2.614e+04
11 1 4.38831932096194e+00 4.82350293242152e+00 4.16254818499600e+00 4.125e+05 -1.073e+05 2.327e+05 2.185e+04 1.119e+04 -4.267e+04
1300 1 4.38033147921142e+00 2.80487709253735e+00 5.62839112480294e+00 3.325e+05 -7.880e+04 1.732e+05 3.601e+04 2.160e+04 -2.614e+04
14 1 5.64174803578267e+00 2.80383371916974e+00 3.47311349804690e+00 3.469e+05 -7.940e+04 1.799e+05 5.929e+04 3.586e+04 -2.608e+04
17 1 6.92211907873881e+00 4.82019397722769e+00 4.16235934478581e+00 4.380e+05 -1.020e+05 2.456e+05 4.694e+04 2.533e+04 -4.104e+04
1306 1 6.90400347120785e+00 2.80208019649977e+00 5.62916526836526e+00 3.691e+05 -7.978e+04 1.903e+05 8.131e+04 4.986e+04 -2.581e+04
20 1 8.16747400093191e+00 2.79938566806402e+00 3.47446774829855e+00 3.995e+05 -7.913e+04 2.052e+05 1.013e+05 6.346e+04 -2.511e+04
23 1 9.45920245517783e+00 4.81282664199742e+00 4.16292716484075e+00 4.830e+05 -8.476e+04 2.694e+05 6.166e+04 3.824e+04 -3.691e+04
1312 1 9.43259408692339e+00 2.79541829021687e+00 5.63141385756499e+00 4.389e+05 -7.572e+04 2.252e+05 1.181e+05 7.646e+04 -2.358e+04
26 1 1.06998089424594e+01 2.78980217128728e+00 3.47809198545125e+00 4.872e+05 -6.690e+04 2.512e+05 1.304e+05 8.877e+04 -2.095e+04
29 1 1.20009753953504e+01 4.79953412974257e+00 4.16623103436857e+00 5.420e+05 -3.911e+04 3.047e+05 6.109e+04 5.169e+04 -3.033e+04
1318 1 1.19696135651877e+01 2.78213864993762e+00 5.63711020175354e+00 5.440e+05 -4.808e+04 2.841e+05 1.365e+05 1.004e+05 -1.691e+04
32 1 1.32423835319945e+01 2.77233001494846e+00 3.48683120859057e+00 6.068e+05 -1.512e+04 3.246e+05 1.359e+05 1.118e+05 -1.261e+04
35 1 1.45474864282831e+01 4.78070813985180e+00 4.17521321760972e+00 6.020e+05 4.810e+04 3.502e+05 5.283e+04 6.956e+04 -2.867e+04
1324 1 1.45184072769736e+01 2.76083708692427e+00 5.65005129672821e+00 6.719e+05 3.397e+04 3.718e+05 1.293e+05 1.233e+05 -1.015e+04
38 1 1.57976188147729e+01 2.74927394833551e+00 3.50503535734939e+00 7.319e+05 9.193e+04 4.238e+05 1.200e+05 1.341e+05 -1.379e+04
41 1 1.70973767782729e+01 4.76410148649838e+00 4.19101631874178e+00 6.475e+05 1.440e+05 4.009e+05 6.026e+04 9.052e+04 -4.224e+04
44 1 1.83647829200717e+01 2.73621024284781e+00 3.53372083201460e+00 8.012e+05 1.793e+05 5.201e+05 8.950e+04 1.426e+05 -4.243e+04
1330 1 1.70799320154971e+01 2.74008696535147e+00 5.67389000845601e+00 7.787e+05 1.455e+05 4.756e+05 1.078e+05 1.421e+05 -2.492e+04
47 1 1.96502686378342e+01 4.76359830787761e+00 4.21010561684602e+00 6.669e+05 1.537e+05 4.426e+05 8.679e+04 1.032e+05 -6.795e+04
50 1 2.09378057097219e+01 2.75089684328544e+00 3.56566013062610e+00 7.449e+05 9.290e+04 5.379e+05 3.890e+04 1.169e+05 -9.595e+04
1336 1 1.96512245332703e+01 2.74015554940838e+00 5.70547883545773e+00 7.888e+05 1.576e+05 5.420e+05 6.656e+04 1.349e+05 -6.743e+04
53 1 2.22081417730462e+01 4.78140271390262e+00 4.22827422461787e+00 6.526e+05 5.531e+04 4.598e+05 7.939e+04 9.406e+04 -9.522e+04
56 1 2.35052904151388e+01 2.77824955597624e+00 3.59149360011164e+00 6.192e+05 -3.930e+04 4.848e+05 -8.063e+03 6.898e+04 -1.354e+05
1342 1 2.22227461492823e+01 2.76455233543576e+00 5.73517275074690e+00 6.849e+05 2.200e+04 5.157e+05 1.345e+04 9.322e+04 -1.179e+05
59 1 2.47687113765315e+01 4.80264966172916e+00 4.24381883386628e+00 6.129e+05 -4.545e+04 4.544e+05 4.193e+04 6.497e+04 -1.216e+05
62 1 2.60618377260651e+01 2.79769651898595e+00 3.60829853541812e+00 5.132e+05 -8.813e+04 4.290e+05 -2.938e+04 3.012e+04 -1.550e+05
1417 1 5.84390460776789e-01 6.83886193040596e+00 4.84444638865334e+00 4.645e+05 -1.228e+05 2.707e+05 -1.179e+04 -4.911e+03 -5.054e+04
1423 1 3.12386782738531e+00 6.83947794811470e+00 4.84459846437995e+00 4.612e+05 -1.247e+05 2.690e+05 4.037e+03 1.643e+03 -5.098e+04
1429 1 5.66362716396329e+00 6.83757721890063e+00 4.84418784701529e+00 4.712e+05 -1.187e+05 2.742e+05 1.862e+04 8.149e+03 -4.962e+04
1435 1 8.20470117557687e+00 6.83255285478515e+00 4.84378874034409e+00 4.930e+05 -1.009e+05 2.860e+05 2.711e+04 1.479e+04 -4.634e+04
1441 1 1.07476766189480e+01 6.82331295058582e+00 4.84486006452416e+00 5.222e+05 -6.233e+04 3.042e+05 2.663e+04 2.313e+04 -4.206e+04
1447 1 1.32922367427604e+01 6.80966387755442e+00 4.84952397949740e+00 5.512e+05 4.807e+03 3.285e+05 2.185e+04 3.575e+04 -4.133e+04
1453 1 1.58373186657751e+01 6.79509272324370e+00 4.85886418664119e+00 5.745e+05 8.770e+04 3.584e+05 2.853e+04 5.238e+04 -5.021e+04
1459 1 1.83827723801751e+01 6.78789540103896e+00 4.87071965227104e+00 5.941e+05 1.353e+05 3.897e+05 5.793e+04 6.713e+04 -6.649e+04
1465 1 2.09311945836810e+01 6.79415861060355e+00 4.88144496446758e+00 6.135e+05 1.038e+05 4.158e+05 8.554e+04 7.269e+04 -7.902e+04
1471 1 2.34854196873132e+01 6.80925077346554e+00 4.89049881354945e+00 6.256e+05 2.291e+04 4.334e+05 7.813e+04 6.452e+04 -9.089e+04
1477 1 2.60444604655243e+01 6.82326934979178e+00 4.89802959167053e+00 6.249e+05 -4.640e+04 4.424e+05 4.572e+04 4.158e+04 -1.052e+05
128 1 5.80991723946476e-01 8.85223352406596e+00 3.36638323619183e+00 4.979e+05 -1.301e+05 2.942e+05 -5.405e+03 -1.713e+03 -5.363e+04
1420 1 1.85301747246062e+00 8.85277894546162e+00 5.52206918191797e+00 4.959e+05 -1.329e+05 2.932e+05 -1.875e+03 -5.574e+02 -5.406e+04
134 1 3.12501561919011e+00 8.85277894621364e+00 3.36651820052520e+00 4.959e+05 -1.329e+05 2.932e+05 1.875e+03 5.574e+02 -5.406e+04
1426 1 4.39704136665038e+00 8.85223352219664e+00 5.52193419292033e+00 4.979e+05 -1.301e+05 2.942e+05 5.405e+03 1.713e+03 -5.363e+04
140 1 5.66914606897399e+00 8.85110804799363e+00 3.36615998047230e+00 5.016e+05 -1.243e+05 2.963e+05 8.279e+03 3.006e+03 -5.282e+04
1432 1 6.94136471714203e+00 8.84933965794951e+00 5.52149406471631e+00 5.069e+05 -1.149e+05 2.995e+05 1.015e+04 4.570e+03 -5.172e+04
146 1 8.21370898794159e+00 8.84684721031665e+00 3.36587328793748e+00 5.133e+05 -1.014e+05 3.038e+05 1.078e+04 6.584e+03 -5.049e+04
1438 1 9.48615519766360e+00 8.84355944150219e+00 5.52168280231088e+00 5.202e+05 -8.297e+04 3.092e+05 1.024e+04 9.268e+03 -4.947e+04
152 1 1.07586449798594e+01 8.83944839459378e+00 3.36691762555037e+00 5.272e+05 -5.909e+04 3.157e+05 8.900e+03 1.282e+04 -4.909e+04
1444 1 1.20310870709640e+01 8.83459245516355e+00 5.52396124721716e+00 5.338e+05 -2.982e+04 3.236e+05 7.680e+03 1.735e+04 -4.992e+04
158 1 1.33033844435551e+01 8.82922732472948e+00 3.37070786043528e+00 5.397e+05 3.827e+03 3.328e+05 7.844e+03 2.275e+04 -5.239e+04
1450 1 1.45754698333738e+01 8.82380262360341e+00 5.52932427608637e+00 5.451e+05 3.929e+04 3.433e+05 1.083e+04 2.867e+04 -5.665e+04
164 1 1.58473476993359e+01 8.81897759656171e+00 3.37739981542064e+00 5.508e+05 7.226e+04 3.547e+05 1.784e+04 3.459e+04 -6.236e+04
170 1 1.83911602822119e+01 8.81406096649523e+00 3.38488706134697e+00 5.658e+05 1.099e+05 3.781e+05 4.273e+04 4.391e+04 -7.391e+04
1456 1 1.71191513296698e+01 8.81551377586915e+00 5.53678626243626e+00 5.574e+05 9.738e+04 3.666e+05 2.900e+04 3.985e+04 -6.854e+04
176 1 2.09373628320931e+01 8.81792950688704e+00 3.39069131482215e+00 5.887e+05 9.113e+04 3.983e+05 6.590e+04 4.732e+04 -7.957e+04
1462 1 1.96637635147315e+01 8.81492423608343e+00 5.54361887666184e+00 5.764e+05 1.074e+05 3.887e+05 5.612e+04 4.647e+04 -7.758e+04
182 1 2.34886535054625e+01 8.82773475110772e+00 3.39471082422587e+00 6.142e+05 3.502e+04 4.146e+05 6.639e+04 4.294e+04 -8.171e+04
1468 1 2.22122829604718e+01 8.82246373713226e+00 5.54839950092386e+00 6.018e+05 6.529e+04 4.069e+05 6.952e+04 4.623e+04 -8.056e+04
188 1 2.60454026705558e+01 8.83733743002771e+00 3.39780438255573e+00 6.324e+05 -1.907e+04 4.269e+05 4.348e+04 2.872e+04 -8.554e+04
1474 1 2.47664329704612e+01 8.83291379166527e+00 5.55192143280260e+00 6.246e+05 5.636e+03 4.214e+05 5.715e+04 3.709e+04 -8.340e+04
131 1 1.85233463367225e+00 1.08648801893450e+01 4.04158777306235e+00 5.171e+05 -1.361e+05 3.072e+05 -6.954e+02 -1.155e+02 -5.482e+04
137 1 4.39905893301997e+00 1.08644791526757e+01 4.04150509748427e+00 5.180e+05 -1.328e+05 3.079e+05 1.960e+03 4.062e+02 -5.456e+04
143 1 6.94571635772490e+00 1.08623851094260e+01 4.04127455523038e+00 5.221e+05 -1.154e+05 3.114e+05 3.266e+03 1.675e+03 -5.363e+04
149 1 9.49207560223091e+00 1.08583373341455e+01 4.04157776391027e+00 5.275e+05 -8.149e+04 3.185e+05 2.491e+03 4.766e+03 -5.356e+04
155 1 1.20376823460127e+01 1.08523118475433e+01 4.04333380473132e+00 5.326e+05 -2.992e+04 3.300e+05 1.591e+03 1.036e+04 -5.684e+04
161 1 1.45821187634706e+01 1.08453544036893e+01 4.04694377919215e+00 5.378e+05 3.159e+04 3.464e+05 5.630e+03 1.764e+04 -6.481e+04
167 1 1.71256838158093e+01 1.08401694226999e+01 4.05149075009868e+00 5.472e+05 8.070e+04 3.655e+05 1.897e+04 2.413e+04 -7.450e+04
173 1 1.96700320235095e+01 1.08397043323076e+01 4.05520310041890e+00 5.654e+05 9.193e+04 3.830e+05 3.688e+04 2.751e+04 -7.958e+04
179 1 2.22176279448777e+01 1.08441055853133e+01 4.05725877261886e+00 5.918e+05 6.345e+04 3.970e+05 4.634e+04 2.685e+04 -7.814e+04
185 1 2.47700242946718e+01 1.08503494908397e+01 4.05827259786679e+00 6.186e+05 1.964e+04 4.082e+05 3.969e+04 2.136e+04 -7.467e+04
254 1 5.77614447525497e-01 1.48875805640431e+01 3.23332654148810e+00 5.319e+05 -1.336e+05 3.170e+05 3.136e-02 -3.147e-02 -5.473e+04
1543 1 5.77932970805251e-01 1.28761482441102e+01 4.71543776821743e+00 5.286e+05 -1.335e+05 3.149e+05 -4.973e+02 -3.213e+01 -5.472e+04
1546 1 1.85187368534704e+00 1.48875805716527e+01 5.38887751162829e+00 5.318e+05 -1.372e+05 3.166e+05 3.775e-02 -2.490e-02 -5.475e+04
260 1 3.12615947978351e+00 1.48875805770280e+01 3.23332652937071e+00 5.318e+05 -1.372e+05 3.166e+05 2.600e-02 -1.930e-02 -5.475e+04
1549 1 3.12605152420657e+00 1.28763589597811e+01 4.71547273253465e+00 5.283e+05 -1.370e+05 3.144e+05 1.825e+02 -2.689e+00 -5.481e+04
1552 1 4.40041871632541e+00 1.48875805830358e+01 5.38887750123313e+00 5.319e+05 -1.336e+05 3.170e+05 3.546e-02 5.444e-03 -5.473e+04
266 1 5.67459696446385e+00 1.48875805859707e+01 3.23332652524671e+00 5.321e+05 -1.263e+05 3.180e+05 2.696e-02 2.677e-02 -5.477e+04
1555 1 5.67408370103515e+00 1.28757190352304e+01 4.71538753319059e+00 5.292e+05 -1.263e+05 3.160e+05 6.709e+02 1.873e+02 -5.462e+04
1558 1 6.94863729992145e+00 1.48875805869675e+01 5.38887750345578e+00 5.324e+05 -1.151e+05 3.196e+05 2.393e-02 3.195e-02 -5.503e+04
272 1 8.22247971496133e+00 1.48875805862982e+01 3.23332652946786e+00 5.326e+05 -9.986e+04 3.221e+05 1.230e-02 1.055e-02 -5.572e+04
1561 1 8.22165356717600e+00 1.28741505633215e+01 4.71540699491301e+00 5.307e+05 -1.001e+05 3.202e+05 4.391e+02 1.167e+03 -5.511e+04
1564 1 9.49606379592312e+00 1.48875805877584e+01 5.38887750327159e+00 5.327e+05 -8.055e+04 3.255e+05 2.334e-02 4.254e-03 -5.708e+04
278 1 1.07693342097153e+01 1.48875805894045e+01 3.23332652726845e+00 5.327e+05 -5.740e+04 3.300e+05 2.719e-02 7.868e-04 -5.929e+04
1567 1 1.07683103033513e+01 1.28715837834732e+01 4.71595541465569e+00 5.320e+05 -5.742e+04 3.284e+05 -1.184e+02 3.382e+03 -5.811e+04
1570 1 1.20422503624207e+01 1.48875805908391e+01 5.38887749896844e+00 5.329e+05 -3.114e+04 3.358e+05 3.802e-02 -9.666e-03 -6.242e+04
284 1 1.33148009302251e+01 1.48875805914019e+01 3.23332651918428e+00 5.336e+05 -3.169e+03 3.426e+05 4.756e-02 -1.397e-02 -6.635e+04
1573 1 1.33136567098377e+01 1.28682598321372e+01 4.71736072684504e+00 5.337e+05 -2.120e+03 3.413e+05 7.547e+02 6.672e+03 -6.487e+04
1576 1 1.45870207363733e+01 1.48875805963335e+01 5.38887748953381e+00 5.351e+05 2.437e+04 3.503e+05 4.343e-02 -5.153e-03 -7.073e+04
290 1 1.58590070858187e+01 1.48875806045379e+01 3.23332651154782e+00 5.382e+05 4.880e+04 3.584e+05 5.749e-02 -2.548e-03 -7.496e+04
1579 1 1.58577531875336e+01 1.28651157791682e+01 4.71943723780601e+00 5.388e+05 5.151e+04 3.576e+05 5.454e+03 1.004e+04 -7.375e+04
296 1 1.84030075727308e+01 1.48875806182419e+01 3.23332650243234e+00 5.509e+05 7.813e+04 3.737e+05 4.123e-02 1.026e-02 -8.025e+04
1582 1 1.71309263752206e+01 1.48875806100797e+01 5.38887748155543e+00 5.433e+05 6.741e+04 3.663e+05 4.461e-02 -3.094e-03 -7.833e+04
1585 1 1.84016380372775e+01 1.28636257770658e+01 4.72140589875156e+00 5.516e+05 8.153e+04 3.738e+05 1.392e+04 1.225e+04 -7.975e+04
302 1 2.09486960357215e+01 1.48875806262246e+01 3.23332650226611e+00 5.727e+05 7.403e+04 3.859e+05 2.341e-02 2.821e-02 -7.876e+04
1588 1 1.96755122921980e+01 1.48875806233189e+01 5.38887747732739e+00 5.607e+05 8.012e+04 3.803e+05 3.064e-02 1.511e-02 -8.037e+04
1591 1 2.09472955514857e+01 1.28646087689638e+01 4.72255485609127e+00 5.737e+05 7.585e+04 3.869e+05 2.136e+04 1.266e+04 -7.900e+04
308 1 2.34978243628304e+01 1.48875806250811e+01 3.23332650511057e+00 5.992e+05 4.629e+04 3.944e+05 3.011e-02 1.021e-02 -7.221e+04
1594 1 2.22227614389986e+01 1.48875806259348e+01 5.38887748094006e+00 5.858e+05 6.184e+04 3.905e+05 2.437e-02 2.358e-02 -7.584e+04
1597 1 2.34966023294650e+01 1.28672837822033e+01 4.72290278383509e+00 6.008e+05 4.513e+04 3.965e+05 2.230e+04 1.107e+04 -7.324e+04