          33
Lattice="   7.1928   0.0000   0.0000   0.0000   7.1928   0.0000   0.0000   0.0000   7.1928 " Time=0.000E+00  Step=0  Energy=-142.639  Barrier=0.000
Ni     0.03097092    0.03097092    0.03097092       1
Ni     1.79819061    1.79819061    6.77820409       2
Ni     1.79819061    6.77820409    1.79819061       3
Ni     6.77820409    1.79819061    1.79819061       4
Ni     3.56541031    0.03097092    0.03097092       5
Ni     5.39457184    1.79819061    7.08154339       6
Ni     5.39457184    7.08154339    1.79819061       7
Ni     4.01093960    1.79819061    1.79819061       8
Ni     0.03097092    0.03097092    3.56541031       9
Ni     1.79819061    1.79819061    4.01093960      10
Ni     1.79819061    7.08154339    5.39457184      11
Ni     7.08154339    1.79819061    5.39457184      12
Ni     3.56541031    0.03097092    3.56541031      13
Ni     5.39457184    1.79819061    3.70760030      14
Ni     5.39457184    7.15405534    5.39457184      15
Ni     3.70760030    1.79819061    5.39457184      16
Ni     0.03097092    3.56541031    0.03097092      17
Ni     1.79819061    5.39457184    7.08154339      18
Ni     1.79819061    4.01093960    1.79819061      19
Ni     7.08154339    5.39457184    1.79819061      20
Ni     3.56541031    3.56541031    0.03097092      21
Ni     5.39457184    5.39457184    7.15405534      22
Ni     5.39457184    3.70760030    1.79819061      23
Ni     3.70760030    5.39457184    1.79819061      24
Ni     0.03097092    3.56541031    3.56541031      25
Ni     1.79819061    5.39457184    3.70760030      26
Ni     1.79819061    3.70760030    5.39457184      27
Ni     7.15405534    5.39457184    5.39457184      28
Ni     3.56541031    3.56541031    3.56541031      29
Ni     5.39457184    5.39457184    3.63508835      30
Ni     5.39457184    3.63508835    5.39457184      31
Ni     3.63508835    5.39457184    5.39457184      32
Ni     1.79819061    1.79819061    1.79819061      33
          33
Lattice="   7.1928   0.0000   0.0000   0.0000   7.1928   0.0000   0.0000   0.0000   7.1928 " Time=2.869E-12  Step=0.5  Energy=-142.488  Barrier=0.151
Ni    -0.02998125   -0.05473892   -0.03002474       1
Ni     1.79817989    1.63652903    6.93923237       2
Ni     1.79817589    7.13927171    1.79812723       3
Ni     6.93920720    1.63637012    1.79815893       4
Ni     3.62635095   -0.05475046   -0.03002789       5
Ni     5.39457005    1.78529660    7.13062553       6
Ni     5.39462304    7.13816797    1.79812983       7
Ni     3.84995848    1.63630284    1.79815530       8
Ni    -0.03005069   -0.05478377    3.62637903       9
Ni     1.79818381    1.63614794    3.84998740      10
Ni     1.79818476    7.13816786    5.39482470      11
Ni     7.13065072    1.78529734    5.39454964      12
Ni     3.62642270   -0.05479328    3.62638131      13
Ni     5.39456656    1.78528716    3.65844518      14
Ni     5.39456508    7.13763196    5.39456870      15
Ni     3.65847548    1.78529145    5.39455417      16
Ni     0.10415387    3.54176750    0.10414341      17
Ni     1.79816469    5.44769591    6.93968834      18
Ni     1.79823942    4.60630570    1.79840836      19
Ni     6.93961342    5.44784671    1.79810030      20
Ni     3.49222646    3.54177415    0.10413733      21
Ni     5.39457771    5.29805391    7.13074832      22
Ni     5.39455016    3.54223544    1.79815130      23
Ni     3.84958266    5.44791040    1.79809937      24
Ni     0.10414134    3.54178797    3.49221928      25
Ni     1.79816807    5.44805751    3.84966016      26
Ni     1.79818230    3.54223562    5.39443029      27
Ni     7.13078417    5.29805094    5.39458821      28
Ni     3.49223862    3.54179373    3.49222600      29
Ni     5.39457586    5.29805850    3.65829419      30
Ni     5.39455693    3.54214643    5.39451658      31
Ni     3.65833313    5.29805703    5.39459043      32
Ni     1.79821847    2.47791695    1.79832141      33
          33
Lattice="   7.1928   0.0000   0.0000   0.0000   7.1928   0.0000   0.0000   0.0000   7.1928 " Time=2.869E-12  Step=1  Energy=-142.639  Barrier=0.000
Ni     0.03028232   -0.13958173    0.03028256       1
Ni     1.79819053    1.68870527    7.08180251       2
Ni     1.79819099    7.49518252    1.79819127       3
Ni     7.08180262    1.68870570    1.79819053       4
Ni     3.56609921   -0.13958113    0.03028220       5
Ni     5.39457213    1.68978885    7.15429460       6
Ni     5.39457135    7.19581545    1.79819100       7
Ni     3.70734123    1.68870579    1.79819056       8
Ni     0.03028216   -0.13958057    3.56609930       9
Ni     1.79819050    1.68870627    3.70734108      10
Ni     1.79819063    7.19581548    5.39456990      11
Ni     7.15429416    1.68978853    5.39457255      12
Ni     3.56609936   -0.13957997    3.56609965      13
Ni     5.39457216    1.68978791    3.63485033      14
Ni     5.39457228    7.12216012    5.39457297      15
Ni     3.63484987    1.68978832    5.39457252      16
Ni     0.03181813    3.51887443    0.03181822      17
Ni     1.79819132    5.28741144    6.77817876      18
Ni     1.79818885    5.28120028    1.79818597      19
Ni     6.77818104    5.28741057    1.79819249      20
Ni     3.56456353    3.51887368    0.03181768      21
Ni     5.39457148    5.28490721    7.08134676      22
Ni     5.39457153    3.37663501    1.79819144      23
Ni     4.01095989    5.28741025    1.79819250      24
Ni     0.03181683    3.51887229    3.56456433      25
Ni     1.79819129    5.28740939    4.01095762      26
Ni     1.79819077    3.37663502    5.39457147      27
Ni     7.08134617    5.28490734    5.39457095      28
Ni     3.56456482    3.51887155    3.56456486      29
Ni     5.39457150    5.28490772    3.70779873      30
Ni     5.39457218    3.44887612    5.39457269      31
Ni     3.70779814    5.28490746    5.39457092      32
Ni     1.79819100    3.06965340    1.79819105      33
