ITEM: TIMESTEP
0
ITEM: NUMBER OF ATOMS
74
ITEM: BOX BOUNDS xy xz yz pp pp pp
                     0.00000000000000e+00 1.06200000000000e+01 0.00000000000000e+00
0.00000000000000e+00	1.06200000000000e+01	0.00000000000000e+00
0.00000000000000e+00	1.06200000000000e+01	0.00000000000000e+00
ITEM: ATOMS id type x y z DisplacementX DisplacementY DisplacementZ
1 1 -1.131e-02 4.877e+00 1.685e+00 5.257e-04 -1.631e-03 -2.373e-03
2 1 -8.343e-03 3.129e+00 3.365e+00 -9.268e-04 4.936e-02 3.663e-02
3 1 -5.599e+00 -1.371e-01 1.684e+00 8.920e-04 9.621e-04 5.943e-04
4 1 5.594e+00 -1.038e-01 1.686e+00 2.797e-04 2.120e-03 4.100e-04
5 1 -5.611e+00 1.533e+00 -7.685e-02 9.975e-05 5.500e-04 7.973e-04
6 1 5.606e+00 1.557e+00 -7.694e-02 1.402e-03 -1.058e-03 5.497e-04
7 1 -1.139e-02 4.835e+00 -1.793e+00 -3.032e-04 3.982e-02 -4.056e-02
8 1 1.521e-02 -5.089e+00 1.683e+00 -1.707e-03 4.875e-04 -5.508e-03
9 1 1.916e-02 -5.080e+00 -1.841e+00 -6.724e-04 -1.126e-02 8.799e-03
10 1 -1.823e+00 -5.091e+00 -7.768e-02 -2.761e-03 -5.471e-04 -8.624e-05
11 1 1.859e+00 -5.086e+00 -7.744e-02 8.825e-04 -1.390e-03 1.327e-03
12 1 5.591e+00 -1.003e-01 -1.837e+00 4.855e-03 -3.201e-05 -1.650e-03
13 1 -5.596e+00 -1.353e-01 -1.835e+00 -1.888e-03 7.050e-04 4.659e-04
14 1 -5.574e+00 -1.796e+00 -7.540e-02 -7.660e-03 -4.137e-03 -8.210e-04
15 1 5.576e+00 -1.761e+00 -7.419e-02 8.066e-03 -4.284e-03 -1.613e-03
16 1 -1.872e+00 4.851e+00 -6.063e-02 -8.560e-03 1.722e-02 -1.649e-02
17 1 1.851e+00 4.857e+00 -6.283e-02 8.024e-03 1.748e-02 -1.582e-02
18 1 -9.172e-03 3.226e+00 -3.594e+00 2.044e-03 -4.681e-02 4.166e-02
19 1 1.236e-02 -3.417e+00 3.443e+00 -8.909e-04 3.180e-02 -3.380e-02
20 1 1.163e-02 -3.384e+00 -3.593e+00 1.375e-03 -2.023e-03 3.446e-02
21 1 3.702e+00 -3.411e+00 -7.386e-02 3.126e-03 -2.353e-03 -3.318e-03
22 1 -3.683e+00 -3.427e+00 -7.411e-02 -5.394e-03 -1.988e-03 -3.857e-03
23 1 -3.728e+00 -1.123e-01 -3.595e+00 -9.440e-03 -1.319e-03 -4.846e-03
24 1 3.726e+00 -9.037e-02 -3.593e+00 8.710e-03 -3.540e-03 -4.799e-03
25 1 3.745e+00 3.225e+00 -7.545e-02 -1.737e-02 -1.230e-02 5.079e-04
26 1 -3.760e+00 3.211e+00 -7.429e-02 1.847e-02 -1.002e-02 -1.085e-04
27 1 -3.739e+00 -1.141e-01 3.446e+00 2.015e-03 -1.406e-03 2.275e-03
28 1 3.737e+00 -9.198e-02 3.445e+00 -3.460e-03 -1.358e-03 1.895e-03
29 1 1.907e+00 1.566e+00 3.461e+00 -4.227e-02 -9.843e-03 -2.020e-02
30 1 -1.915e+00 1.559e+00 3.463e+00 4.277e-02 -1.039e-02 -2.054e-02
31 1 -1.887e+00 3.183e+00 1.685e+00 1.923e-02 8.852e-03 -1.510e-02
32 1 1.871e+00 3.192e+00 1.685e+00 -1.929e-02 8.659e-03 -1.699e-02
33 1 1.865e+00 1.571e+00 -3.594e+00 -5.957e-04 -1.094e-02 1.966e-03
34 1 -1.876e+00 1.562e+00 -3.595e+00 1.046e-03 -8.904e-03 2.514e-03
35 1 1.851e+00 -1.729e+00 3.433e+00 1.091e-02 -1.833e-02 8.658e-03
36 1 -1.839e+00 -1.738e+00 3.432e+00 -1.205e-02 -1.965e-02 7.909e-03
37 1 1.860e+00 -1.738e+00 -3.593e+00 2.174e-03 -9.685e-03 -1.166e-03
38 1 -1.847e+00 -1.749e+00 -3.593e+00 -3.943e-03 -7.796e-03 9.328e-04
39 1 -1.880e+00 3.211e+00 -1.831e+00 1.045e-02 -1.710e-02 6.358e-03
40 1 1.865e+00 3.217e+00 -1.832e+00 -1.255e-02 -2.001e-02 9.132e-03
41 1 -1.835e+00 -3.419e+00 1.683e+00 7.116e-03 1.428e-02 -1.378e-02
42 1 1.860e+00 -3.414e+00 1.685e+00 -8.993e-03 1.626e-02 -1.453e-02
43 1 -1.832e+00 -3.407e+00 -1.828e+00 2.115e-03 2.734e-03 4.810e-03
44 1 1.855e+00 -3.399e+00 -1.828e+00 -1.664e-03 2.926e-03 4.099e-03
45 1 -3.708e+00 -1.768e+00 -1.834e+00 -1.632e-02 -7.415e-03 -4.309e-03
46 1 3.716e+00 -1.749e+00 -1.832e+00 1.549e-02 -6.853e-03 -3.910e-03
47 1 3.741e+00 1.569e+00 -1.839e+00 1.348e-04 -2.356e-03 2.946e-03
48 1 -3.751e+00 1.548e+00 -1.841e+00 -1.710e-03 -4.944e-04 1.402e-03
49 1 -3.706e+00 -1.764e+00 1.685e+00 -1.682e-02 -1.119e-02 -1.404e-04
50 1 3.713e+00 -1.746e+00 1.686e+00 1.568e-02 -1.092e-02 6.056e-04
51 1 -3.767e+00 1.547e+00 1.688e+00 1.673e-02 -4.793e-03 -1.426e-03
52 1 3.758e+00 1.565e+00 1.685e+00 -1.506e-02 -1.789e-03 6.080e-04
53 1 -5.312e-03 1.569e+00 5.214e+00 5.042e-04 1.256e-03 -8.885e-03
54 1 5.673e-03 -1.713e+00 5.168e+00 -1.091e-03 -4.336e-02 3.734e-02
55 1 1.862e+00 -8.172e-02 5.202e+00 2.339e-03 -8.778e-03 2.188e-03
56 1 -1.865e+00 -9.231e-02 5.202e+00 -1.305e-03 -8.271e-03 3.354e-03
57 1 4.205e-04 2.279e-04 -3.098e-04 -5.212e-03 1.473e+00 1.606e+00
58 1 -1.710e-03 9.922e-04 3.370e+00 1.690e-04 -9.154e-02 8.314e-02
59 1 -7.960e-03 3.130e+00 3.182e-03 8.864e-04 9.231e-02 -7.987e-02
60 1 1.869e+00 -5.528e-02 1.687e+00 3.570e-02 -3.705e-02 1.388e-02
61 1 -1.869e+00 -6.603e-02 1.685e+00 -3.750e-02 -3.668e-02 1.283e-02
62 1 -1.916e+00 1.559e+00 -9.113e-02 3.526e-02 -3.549e-02 1.430e-02
63 1 1.907e+00 1.570e+00 -9.201e-02 -3.562e-02 -3.538e-02 1.325e-02
64 1 -3.739e+00 -1.120e-01 -7.428e-02 -1.477e-02 -2.517e-03 7.576e-04
65 1 3.738e+00 -9.309e-02 -7.489e-02 1.341e-02 -2.004e-03 5.197e-04
66 1 1.186e-04 -9.198e-02 -3.595e+00 4.691e-04 2.238e-03 -9.055e-03
67 1 1.115e-02 -3.417e+00 -7.140e-02 -6.416e-04 -1.574e-03 -6.314e-03
68 1 7.313e-03 -1.748e+00 1.685e+00 -3.002e-04 8.332e-02 -7.285e-02
69 1 -6.176e-03 1.568e+00 -1.844e+00 -6.684e-04 -9.387e-02 8.594e-02
70 1 7.537e-03 -1.711e+00 -1.797e+00 -3.930e-04 4.576e-02 3.119e-02
71 1 1.862e+00 -7.969e-02 -1.832e+00 4.037e-02 -8.580e-03 -1.939e-02
72 1 -1.862e+00 -9.349e-02 -1.832e+00 -4.235e-02 -9.430e-03 -1.702e-02
73 1 -1.841e+00 -1.736e+00 -6.179e-02 -1.737e-02 1.082e-02 -1.408e-02
74 1 1.852e+00 -1.729e+00 -6.278e-02 1.500e-02 7.566e-03 -1.255e-02
ITEM: TIMESTEP
0
ITEM: NUMBER OF ATOMS
74
ITEM: BOX BOUNDS xy xz yz pp pp pp
                     0.00000000000000e+00 1.06200000000000e+01 0.00000000000000e+00
0.00000000000000e+00	1.06200000000000e+01	0.00000000000000e+00
0.00000000000000e+00	1.06200000000000e+01	0.00000000000000e+00
ITEM: ATOMS id type x y z DisplacementX DisplacementY DisplacementZ
75 1 5.674e+00 8.053e-03 1.776e+00 -1.887e-02 1.083e-03 5.881e-04
76 1 3.823e+00 9.049e-03 3.551e+00 -3.167e-02 -2.010e-03 -1.152e-02
77 1 3.379e-02 4.971e+00 1.776e+00 -1.415e-03 9.255e-04 -3.880e-03
78 1 7.986e-02 -4.979e+00 1.775e+00 -1.535e-03 -3.495e-06 -4.671e-03
79 1 1.905e+00 4.970e+00 2.045e-02 -3.148e-04 -2.248e-03 -4.016e-03
80 1 1.930e+00 -4.977e+00 1.821e-02 1.601e-04 3.478e-04 -4.748e-03
81 1 5.658e+00 7.965e-03 -1.748e+00 -1.696e-03 1.756e-03 2.762e-03
82 1 -5.548e+00 -4.427e-02 1.774e+00 -5.059e-03 -2.248e-03 -4.260e-05
83 1 -5.548e+00 -4.526e-02 -1.746e+00 -7.066e-03 1.760e-04 -1.770e-03
84 1 -5.553e+00 1.628e+00 1.539e-02 -7.594e-03 8.039e-04 -1.787e-03
85 1 -5.537e+00 -1.714e+00 1.336e-02 -6.857e-03 -5.985e-04 -2.991e-04
86 1 8.568e-02 -4.965e+00 -1.738e+00 -7.091e-03 -1.775e-02 -3.985e-03
87 1 4.008e-02 4.953e+00 -1.737e+00 -8.874e-03 1.738e-02 -4.776e-03
88 1 -1.827e+00 4.966e+00 1.854e-02 -4.498e-03 4.594e-03 -3.760e-03
89 1 -1.767e+00 -4.986e+00 1.998e-02 -4.221e-03 -2.039e-03 -2.741e-03
90 1 5.663e+00 1.665e+00 1.576e-02 -3.121e-03 1.537e-03 1.131e-03
91 1 5.653e+00 -1.652e+00 1.523e-02 -2.324e-03 -2.923e-03 -1.046e-03
92 1 3.784e+00 1.355e-02 -3.505e+00 8.505e-03 -1.467e-03 -6.901e-03
93 1 -3.694e+00 -2.710e-02 3.536e+00 -1.438e-03 1.239e-04 1.283e-03
94 1 -3.691e+00 -2.619e-02 -3.503e+00 -6.750e-03 -2.559e-04 -6.623e-03
95 1 -3.657e+00 -3.354e+00 1.757e-02 6.517e-03 1.155e-02 -6.964e-04
96 1 -3.700e+00 3.308e+00 1.552e-02 7.699e-03 -9.174e-03 -2.715e-03
97 1 3.523e-02 3.305e+00 -3.505e+00 2.891e-04 -2.872e-02 3.986e-02
98 1 6.893e-02 -3.308e+00 -3.502e+00 -1.590e-03 2.883e-02 3.743e-02
99 1 3.770e+00 -3.287e+00 2.870e-02 8.431e-03 -1.522e-02 -1.319e-02
100 1 3.766e+00 3.297e+00 2.815e-02 8.331e-03 1.482e-02 -1.530e-02
101 1 4.519e-02 3.293e+00 3.523e+00 -8.509e-03 -1.782e-02 -2.922e-02
102 1 7.477e-02 -3.296e+00 3.523e+00 -8.637e-03 1.713e-02 -2.769e-02
103 1 1.917e+00 -1.560e+00 3.463e+00 2.221e-03 -8.523e-02 7.165e-02
104 1 1.909e+00 1.570e+00 3.456e+00 3.283e-03 8.872e-02 7.481e-02
105 1 3.788e+00 1.633e+00 1.775e+00 7.395e-03 3.727e-02 -1.695e-03
106 1 3.785e+00 -1.615e+00 1.776e+00 5.560e-03 -3.413e-02 -4.475e-04
107 1 1.917e+00 -1.650e+00 -3.504e+00 3.421e-03 7.131e-03 -3.964e-05
108 1 1.907e+00 1.667e+00 -3.505e+00 4.703e-03 -1.020e-02 2.568e-03
109 1 -1.823e+00 -1.671e+00 3.538e+00 1.455e-02 8.354e-03 -4.170e-03
110 1 -1.844e+00 1.650e+00 3.537e+00 1.418e-02 -6.624e-03 -6.788e-03
111 1 -1.812e+00 -1.674e+00 -3.504e+00 3.612e-03 6.832e-03 8.725e-04
112 1 -1.832e+00 1.650e+00 -3.504e+00 2.118e-03 -5.705e-03 2.781e-03
113 1 3.780e+00 1.660e+00 -1.741e+00 1.497e-02 5.916e-03 -5.431e-03
114 1 3.782e+00 -1.642e+00 -1.741e+00 1.386e-02 -9.040e-03 -4.224e-03
115 1 -3.705e+00 1.643e+00 1.777e+00 -2.927e-03 -3.299e-03 2.124e-04
116 1 -3.683e+00 -1.695e+00 1.778e+00 -3.987e-03 4.085e-03 -4.210e-04
117 1 -3.699e+00 1.642e+00 -1.747e+00 -7.365e-03 -1.750e-03 5.692e-04
118 1 -3.677e+00 -1.692e+00 -1.745e+00 -8.842e-03 7.831e-04 -1.086e-03
119 1 -1.832e+00 3.308e+00 -1.743e+00 9.068e-03 -2.051e-02 9.534e-03
120 1 -1.790e+00 -3.329e+00 -1.744e+00 7.709e-03 1.937e-02 1.143e-02
121 1 1.922e+00 -3.273e+00 -1.704e+00 -8.228e-03 -1.913e-02 -2.765e-02
122 1 1.907e+00 3.276e+00 -1.702e+00 -8.983e-03 2.248e-02 -3.104e-02
123 1 -1.831e+00 3.302e+00 1.775e+00 7.258e-03 -1.612e-02 -1.379e-02
124 1 -1.789e+00 -3.324e+00 1.775e+00 6.384e-03 1.571e-02 -1.311e-02
125 1 1.906e+00 3.317e+00 1.774e+00 -8.707e-03 -2.118e-02 -1.546e-02
126 1 1.924e+00 -3.308e+00 1.776e+00 -9.531e-03 1.819e-02 -1.553e-02
127 1 1.911e+00 1.079e-02 -5.252e+00 5.117e-03 -5.130e-05 -1.140e-02
128 1 -1.833e+00 -1.127e-02 -5.260e+00 9.902e-03 2.486e-03 -6.532e-03
129 1 5.203e-02 -1.651e+00 -5.267e+00 1.346e-03 -7.890e-03 2.188e-04
130 1 3.407e-02 1.653e+00 -5.268e+00 3.119e-03 8.340e-03 1.835e-03
131 1 -6.435e-04 -3.172e-03 8.541e-04 1.956e+00 7.149e-03 1.791e+00
132 1 1.012e-03 -1.181e-03 3.552e+00 4.664e-02 1.378e-03 -8.969e-03
133 1 3.824e+00 1.193e-02 3.907e-04 -1.496e-02 -1.004e-03 1.616e-02
134 1 4.661e-02 -1.625e+00 1.777e+00 9.651e-03 5.807e-02 -7.563e-02
135 1 3.014e-02 1.624e+00 1.776e+00 1.089e-02 -5.769e-02 -7.880e-02
136 1 1.907e+00 1.571e+00 9.644e-02 8.756e-03 6.110e-02 -8.180e-02
137 1 1.914e+00 -1.559e+00 8.945e-02 1.086e-02 -5.681e-02 -7.543e-02
138 1 4.548e-02 3.291e+00 3.098e-02 -8.293e-03 2.146e-02 -1.566e-02
139 1 7.627e-02 -3.296e+00 2.779e-02 -8.377e-03 -1.928e-02 -1.550e-02
140 1 4.121e-02 1.017e-03 -3.504e+00 5.592e-03 1.916e-04 -1.050e-02
141 1 -3.694e+00 -2.609e-02 1.519e-02 -1.833e-02 -1.838e-03 -3.197e-04
142 1 -1.849e+00 -1.213e-02 1.777e+00 -1.513e-02 -5.691e-04 1.568e-02
143 1 1.910e+00 9.122e-03 -1.752e+00 4.653e-02 -1.429e-03 -7.617e-03
144 1 -1.834e+00 -1.146e-02 -1.749e+00 -2.789e-02 -4.262e-04 -1.138e-02
145 1 5.276e-02 -1.651e+00 -1.742e+00 9.726e-04 8.283e-02 7.159e-02
146 1 3.486e-02 1.652e+00 -1.740e+00 6.001e-03 -8.548e-02 7.383e-02
147 1 -1.845e+00 1.650e+00 1.571e-02 8.161e-03 -3.469e-02 -3.234e-04
148 1 -1.822e+00 -1.674e+00 1.308e-02 6.395e-03 3.463e-02 1.290e-03
ITEM: TIMESTEP
0
ITEM: NUMBER OF ATOMS
74
ITEM: BOX BOUNDS xy xz yz pp pp pp
                     0.00000000000000e+00 1.06200000000000e+01 0.00000000000000e+00
0.00000000000000e+00	1.06200000000000e+01	0.00000000000000e+00
0.00000000000000e+00	1.06200000000000e+01	0.00000000000000e+00
ITEM: ATOMS id type x y z DisplacementX DisplacementY DisplacementZ
149 1 -5.675e+00 -2.196e-02 1.775e+00 1.943e-02 -1.070e-04 -9.359e-05
150 1 -3.825e+00 -1.123e-02 3.552e+00 3.348e-02 1.268e-03 -1.342e-02
151 1 -4.669e-02 4.961e+00 1.778e+00 2.274e-03 1.498e-03 -3.465e-03
152 1 -4.724e-02 -4.985e+00 1.774e+00 1.656e-03 -2.057e-03 -3.025e-03
153 1 -1.919e+00 4.965e+00 2.129e-02 1.568e-03 -2.698e-03 -3.658e-03
154 1 -1.893e+00 -4.985e+00 1.946e-02 5.515e-04 1.063e-03 -5.655e-03
155 1 -5.657e+00 -2.030e-02 -1.747e+00 1.378e-03 3.691e-04 2.490e-03
156 1 5.557e+00 -2.256e-02 1.777e+00 3.166e-03 -4.463e-04 -2.780e-04
157 1 5.555e+00 -2.115e-02 -1.744e+00 8.100e-03 -1.759e-04 -2.096e-03
158 1 5.565e+00 1.641e+00 1.597e-02 8.520e-03 2.072e-03 -1.340e-03
159 1 5.544e+00 -1.685e+00 1.494e-02 7.292e-03 -1.110e-03 -1.204e-03
160 1 -5.374e-02 -4.970e+00 -1.737e+00 6.829e-03 -1.499e-02 -4.658e-03
161 1 -5.259e-02 4.944e+00 -1.736e+00 8.529e-03 1.976e-02 -5.911e-03
162 1 1.819e+00 4.957e+00 1.705e-02 6.822e-03 5.032e-03 -3.024e-03
163 1 1.795e+00 -4.981e+00 1.790e-02 4.535e-03 -3.223e-03 -4.889e-03
164 1 -5.668e+00 1.639e+00 1.491e-02 5.092e-03 2.672e-03 -1.232e-05
165 1 -5.646e+00 -1.684e+00 1.439e-02 3.280e-03 -4.037e-03 -3.827e-04
166 1 -3.782e+00 -1.191e-02 -3.503e+00 -9.662e-03 -2.769e-03 -5.451e-03
167 1 3.698e+00 -9.081e-03 3.539e+00 3.718e-03 4.335e-04 2.463e-03
168 1 3.694e+00 -1.070e-02 -3.504e+00 5.319e-03 3.461e-04 -4.936e-03
169 1 3.669e+00 -3.333e+00 1.387e-02 -5.219e-03 8.901e-03 -1.631e-03
170 1 3.701e+00 3.309e+00 1.481e-02 -6.475e-03 -1.108e-02 7.263e-04
171 1 -4.711e-02 3.298e+00 -3.505e+00 -1.013e-03 -3.202e-02 4.188e-02
172 1 -4.668e-02 -3.308e+00 -3.504e+00 1.933e-03 2.877e-02 3.696e-02
173 1 -3.747e+00 -3.308e+00 2.981e-02 -7.335e-03 -1.556e-02 -1.456e-02
174 1 -3.780e+00 3.284e+00 3.041e-02 -7.823e-03 1.625e-02 -1.444e-02
175 1 -5.400e-02 3.287e+00 3.523e+00 9.575e-03 -2.154e-02 -2.953e-02
176 1 -5.446e-02 -3.297e+00 3.522e+00 8.927e-03 1.608e-02 -2.591e-02
177 1 -1.908e+00 -1.571e+00 3.460e+00 -8.685e-04 -8.576e-02 6.950e-02
178 1 -1.914e+00 1.561e+00 3.456e+00 -1.668e-03 8.921e-02 7.743e-02
179 1 -3.795e+00 1.614e+00 1.773e+00 -7.983e-03 3.476e-02 -6.514e-04
180 1 -3.777e+00 -1.634e+00 1.775e+00 -6.180e-03 -3.535e-02 6.114e-05
181 1 -1.908e+00 -1.662e+00 -3.504e+00 -5.402e-04 7.687e-03 2.105e-03
182 1 -1.916e+00 1.659e+00 -3.506e+00 -1.630e-03 -9.054e-03 2.713e-03
183 1 1.832e+00 -1.662e+00 3.540e+00 -1.387e-02 6.869e-03 -4.746e-03
184 1 1.839e+00 1.654e+00 3.538e+00 -1.256e-02 -8.283e-03 -6.071e-03
185 1 1.818e+00 -1.661e+00 -3.503e+00 -3.155e-03 6.728e-03 1.633e-03
186 1 1.831e+00 1.653e+00 -3.502e+00 -2.083e-03 -7.236e-03 5.569e-03
187 1 -3.787e+00 1.641e+00 -1.741e+00 -1.191e-02 7.540e-03 -2.184e-03
188 1 -3.771e+00 -1.664e+00 -1.742e+00 -1.216e-02 -8.420e-03 -5.326e-03
189 1 3.705e+00 1.652e+00 1.775e+00 4.935e-03 -3.187e-03 -7.832e-05
190 1 3.689e+00 -1.672e+00 1.776e+00 4.537e-03 2.766e-03 -2.239e-04
191 1 3.700e+00 1.651e+00 -1.746e+00 8.888e-03 -9.923e-04 -1.675e-03
192 1 3.685e+00 -1.670e+00 -1.745e+00 6.794e-03 -2.527e-04 1.739e-03
193 1 1.826e+00 3.305e+00 -1.745e+00 -8.933e-03 -1.795e-02 1.195e-02
194 1 1.808e+00 -3.319e+00 -1.742e+00 -6.565e-03 1.930e-02 8.568e-03
195 1 -1.902e+00 -3.284e+00 -1.705e+00 9.663e-03 -1.762e-02 -2.918e-02
196 1 -1.918e+00 3.266e+00 -1.698e+00 1.051e-02 2.016e-02 -2.987e-02
197 1 1.823e+00 3.301e+00 1.776e+00 -7.457e-03 -1.383e-02 -1.310e-02
198 1 1.808e+00 -3.315e+00 1.776e+00 -6.314e-03 1.645e-02 -1.292e-02
199 1 -1.918e+00 3.308e+00 1.776e+00 9.771e-03 -2.060e-02 -1.605e-02
200 1 -1.901e+00 -3.320e+00 1.776e+00 8.586e-03 1.936e-02 -1.403e-02
201 1 -1.912e+00 -3.753e-05 -5.255e+00 -6.030e-03 6.576e-05 -9.384e-03
202 1 1.835e+00 -1.398e-03 -5.260e+00 -9.573e-03 2.010e-03 -6.167e-03
203 1 -4.344e-02 -1.651e+00 -5.268e+00 -3.030e-03 -7.151e-03 4.136e-03
204 1 -4.281e-02 1.652e+00 -5.267e+00 -2.218e-03 9.885e-03 9.832e-04
205 1 1.732e-03 -8.303e-04 8.314e-04 -1.955e+00 -1.834e-03 1.788e+00
206 1 2.122e-04 -2.335e-04 3.553e+00 -4.577e-02 6.676e-04 -1.041e-02
207 1 -3.824e+00 -9.841e-03 -1.213e-03 1.544e-02 7.592e-04 1.557e-02
208 1 -3.599e-02 -1.624e+00 1.776e+00 -9.277e-03 5.762e-02 -7.639e-02
209 1 -3.758e-02 1.623e+00 1.777e+00 -7.526e-03 -6.015e-02 -8.105e-02
210 1 -1.915e+00 1.559e+00 9.537e-02 -9.306e-03 6.138e-02 -8.154e-02
211 1 -1.905e+00 -1.570e+00 8.891e-02 -6.816e-03 -5.694e-02 -7.610e-02
212 1 -5.609e-02 3.287e+00 3.121e-02 8.258e-03 2.165e-02 -1.467e-02
213 1 -5.337e-02 -3.297e+00 2.799e-02 9.775e-03 -2.029e-02 -1.338e-02
214 1 -4.079e-02 9.157e-04 -3.504e+00 -4.532e-03 8.203e-04 -1.030e-02
215 1 3.698e+00 -8.968e-03 1.507e-02 2.034e-02 8.736e-04 3.987e-04
216 1 1.853e+00 -1.563e-03 1.774e+00 1.350e-02 1.736e-04 1.324e-02
217 1 -1.911e+00 -2.457e-04 -1.753e+00 -4.498e-02 -1.323e-03 -7.339e-03
218 1 1.835e+00 -1.509e-03 -1.750e+00 3.160e-02 2.452e-04 -1.181e-02
219 1 -4.303e-02 -1.651e+00 -1.742e+00 4.501e-04 8.421e-02 7.147e-02
220 1 -4.233e-02 1.651e+00 -1.741e+00 -3.430e-03 -8.725e-02 7.628e-02
221 1 1.840e+00 1.655e+00 1.624e-02 -7.473e-03 -3.335e-02 5.362e-04
222 1 1.832e+00 -1.661e+00 1.485e-02 -7.586e-03 3.422e-02 3.404e-04
ITEM: TIMESTEP
0
ITEM: NUMBER OF ATOMS
74
ITEM: BOX BOUNDS xy xz yz pp pp pp
                     0.00000000000000e+00 1.06200000000000e+01 0.00000000000000e+00
0.00000000000000e+00	1.06200000000000e+01	0.00000000000000e+00
0.00000000000000e+00	1.06200000000000e+01	0.00000000000000e+00
ITEM: ATOMS id type x y z DisplacementX DisplacementY DisplacementZ
223 1 1.451e-02 -4.879e+00 1.680e+00 -6.665e-04 2.670e-03 -3.552e-03
224 1 1.046e-02 -3.128e+00 3.366e+00 4.157e-05 -4.424e-02 3.233e-02
225 1 -5.610e+00 7.221e-02 1.680e+00 9.370e-04 -2.349e-04 2.476e-03
226 1 5.622e+00 9.127e-02 1.680e+00 1.599e-03 -2.040e-03 -7.062e-04
227 1 -5.604e+00 -1.599e+00 -8.269e-02 -1.566e-03 -1.305e-04 -1.469e-03
228 1 5.615e+00 -1.569e+00 -8.094e-02 -1.337e-03 -1.917e-03 1.101e-03
229 1 1.356e-02 -4.844e+00 -1.799e+00 -1.934e-04 -3.508e-02 -3.659e-02
230 1 -1.315e-03 5.057e+00 1.678e+00 -3.542e-04 1.730e-04 -4.247e-03
231 1 -8.605e-04 5.044e+00 -1.849e+00 -6.414e-04 1.458e-02 1.046e-02
232 1 -1.869e+00 5.057e+00 -8.343e-02 -9.502e-04 2.756e-03 2.074e-03
233 1 1.868e+00 5.051e+00 -8.133e-02 8.856e-04 2.585e-03 1.583e-03
234 1 5.615e+00 9.007e-02 -1.840e+00 4.828e-03 5.551e-05 -3.793e-03
235 1 -5.607e+00 7.109e-02 -1.843e+00 -4.664e-03 5.503e-04 -3.309e-03
236 1 -5.607e+00 1.738e+00 -7.879e-02 -9.949e-03 3.301e-03 8.453e-05
237 1 5.617e+00 1.747e+00 -8.074e-02 7.366e-03 2.856e-03 1.928e-03
238 1 -1.832e+00 -4.865e+00 -6.726e-02 -7.588e-03 -1.800e-02 -1.600e-02
239 1 1.861e+00 -4.858e+00 -6.841e-02 8.105e-03 -1.432e-02 -1.335e-02
240 1 9.361e-03 -3.220e+00 -3.600e+00 5.866e-05 4.652e-02 3.995e-02
241 1 -3.430e-03 3.401e+00 3.437e+00 -1.653e-04 -3.975e-02 -4.357e-02
242 1 -2.737e-03 3.360e+00 -3.599e+00 -1.166e-03 2.403e-03 4.195e-02
243 1 3.736e+00 3.395e+00 -7.860e-02 5.645e-03 2.570e-03 -2.924e-03
244 1 -3.735e+00 3.396e+00 -7.888e-02 -4.781e-03 2.378e-03 -4.059e-03
245 1 -3.742e+00 7.915e-02 -3.601e+00 -1.087e-02 -1.412e-04 -4.299e-03
246 1 3.745e+00 9.432e-02 -3.598e+00 1.099e-02 1.611e-03 -6.797e-03
247 1 3.746e+00 -3.222e+00 -7.910e-02 -1.685e-02 1.069e-02 3.480e-04
248 1 -3.730e+00 -3.243e+00 -7.981e-02 1.601e-02 1.200e-02 6.280e-04
249 1 -3.754e+00 8.088e-02 3.441e+00 -2.573e-04 2.447e-03 2.787e-03
250 1 3.757e+00 9.594e-02 3.440e+00 1.312e-05 3.041e-03 1.823e-03
251 1 1.916e+00 -1.561e+00 3.458e+00 -4.388e-02 9.199e-03 -2.195e-02
252 1 -1.908e+00 -1.570e+00 3.455e+00 4.118e-02 1.155e-02 -1.964e-02
253 1 -1.860e+00 -3.194e+00 1.681e+00 1.682e-02 -6.907e-03 -1.432e-02
254 1 1.879e+00 -3.183e+00 1.683e+00 -1.384e-02 -5.194e-03 -1.665e-02
255 1 1.876e+00 -1.560e+00 -3.601e+00 -1.869e-03 8.177e-03 5.818e-04
256 1 -1.866e+00 -1.568e+00 -3.599e+00 2.920e-03 6.648e-03 2.462e-03
257 1 1.860e+00 1.728e+00 3.426e+00 1.211e-02 1.864e-02 8.701e-03
258 1 -1.862e+00 1.725e+00 3.425e+00 -1.128e-02 1.894e-02 8.372e-03
259 1 1.870e+00 1.738e+00 -3.599e+00 4.167e-03 8.610e-03 3.932e-03
260 1 -1.872e+00 1.733e+00 -3.601e+00 -3.606e-03 8.183e-03 1.328e-03
261 1 -1.857e+00 -3.222e+00 -1.837e+00 1.017e-02 2.118e-02 1.007e-02
262 1 1.872e+00 -3.211e+00 -1.837e+00 -1.041e-02 1.931e-02 9.412e-03
263 1 -1.872e+00 3.401e+00 1.681e+00 8.824e-03 -1.681e-02 -1.716e-02
264 1 1.869e+00 3.399e+00 1.679e+00 -6.678e-03 -1.823e-02 -1.539e-02
265 1 -1.868e+00 3.383e+00 -1.833e+00 -9.200e-05 -2.934e-03 7.216e-03
266 1 1.862e+00 3.384e+00 -1.833e+00 -3.337e-04 -3.606e-03 7.093e-03
267 1 -3.739e+00 1.737e+00 -1.839e+00 -1.673e-02 7.100e-03 -3.693e-03
268 1 3.742e+00 1.746e+00 -1.838e+00 1.732e-02 6.674e-03 -5.649e-03
269 1 3.750e+00 -1.561e+00 -1.846e+00 3.242e-03 3.285e-03 1.469e-03
270 1 -3.742e+00 -1.583e+00 -1.844e+00 -4.335e-05 1.158e-03 2.011e-03
271 1 -3.739e+00 1.734e+00 1.680e+00 -1.796e-02 1.083e-02 -1.239e-03
272 1 3.741e+00 1.742e+00 1.679e+00 1.735e-02 1.064e-02 -6.538e-05
273 1 -3.759e+00 -1.581e+00 1.681e+00 1.517e-02 2.087e-03 -1.037e-03
274 1 3.767e+00 -1.563e+00 1.679e+00 -1.311e-02 1.494e-03 1.001e-03
275 1 4.123e-03 -1.561e+00 5.210e+00 1.530e-03 -2.208e-03 -9.758e-03
276 1 -1.434e-03 1.708e+00 5.158e+00 1.038e-03 5.023e-02 4.177e-02
277 1 1.873e+00 8.978e-02 5.198e+00 1.283e-03 1.088e-02 2.991e-03
278 1 -1.872e+00 8.168e-02 5.195e+00 -2.157e-03 8.706e-03 1.396e-03
279 1 3.278e-04 -4.165e-04 -9.842e-05 6.233e-03 -1.464e+00 1.600e+00
280 1 6.390e-04 -1.006e-03 3.360e+00 -1.555e-03 9.733e-02 8.597e-02
281 1 7.740e-03 -3.129e+00 -5.494e-03 -1.061e-03 -8.494e-02 -7.579e-02
282 1 1.880e+00 6.332e-02 1.679e+00 4.047e-02 3.547e-02 1.558e-02
283 1 -1.879e+00 5.467e-02 1.681e+00 -3.857e-02 3.741e-02 1.389e-02
284 1 -1.909e+00 -1.570e+00 -9.764e-02 3.499e-02 3.787e-02 1.392e-02
285 1 1.916e+00 -1.559e+00 -9.729e-02 -3.555e-02 3.897e-02 1.412e-02
286 1 -3.753e+00 8.019e-02 -8.155e-02 -1.648e-02 2.566e-03 -1.282e-03
287 1 3.756e+00 9.606e-02 -8.116e-02 1.631e-02 1.572e-03 -1.578e-03
288 1 -1.343e-04 9.714e-02 -3.600e+00 8.898e-04 -3.722e-04 -1.033e-02
289 1 -2.350e-03 3.402e+00 -7.671e-02 8.698e-04 -8.004e-04 -3.603e-03
290 1 -2.866e-03 1.748e+00 1.681e+00 7.277e-04 -9.419e-02 -8.230e-02
291 1 3.333e-03 -1.560e+00 -1.848e+00 1.542e-03 9.497e-02 8.612e-02
292 1 -3.561e-03 1.706e+00 -1.795e+00 2.449e-04 -5.122e-02 3.842e-02
293 1 1.874e+00 9.134e-02 -1.837e+00 4.442e-02 8.435e-03 -2.178e-02
294 1 -1.871e+00 8.194e-02 -1.836e+00 -4.442e-02 8.048e-03 -2.088e-02
295 1 -1.863e+00 1.722e+00 -6.626e-02 -1.772e-02 -1.022e-02 -1.628e-02
296 1 1.862e+00 1.726e+00 -6.776e-02 1.975e-02 -7.662e-03 -1.296e-02
ITEM: TIMESTEP
0
ITEM: NUMBER OF ATOMS
74
ITEM: BOX BOUNDS xy xz yz pp pp pp
                     0.00000000000000e+00 1.06200000000000e+01 0.00000000000000e+00
0.00000000000000e+00	1.06200000000000e+01	0.00000000000000e+00
0.00000000000000e+00	1.06200000000000e+01	0.00000000000000e+00
ITEM: ATOMS id type x y z DisplacementX DisplacementY DisplacementZ
297 1 1.856e+00 4.945e+00 -1.144e-03 -1.864e-03 -4.264e-03 -8.438e-04
298 1 5.627e+00 1.632e+00 3.662e-05 -1.945e-02 -3.002e-04 2.658e-03
299 1 3.741e+00 3.257e+00 7.297e-04 -1.310e-02 2.122e-02 2.660e-04
300 1 -5.568e+00 -1.758e+00 2.017e-03 -9.192e-03 -2.130e-03 2.550e-04
301 1 -1.800e+00 -5.033e+00 -2.583e-03 -4.063e-03 -1.311e-03 -6.163e-05
302 1 -5.585e+00 -9.104e-02 1.759e+00 -9.179e-03 -1.309e-03 4.769e-05
303 1 -5.586e+00 -9.148e-02 -1.761e+00 -1.040e-02 8.555e-04 -3.332e-04
304 1 4.517e-02 -5.026e+00 1.762e+00 -4.062e-03 -4.778e-03 -4.116e-03
305 1 4.683e-02 -5.027e+00 -1.762e+00 -4.242e-03 -4.065e-03 5.257e-03
306 1 1.888e+00 -5.027e+00 -2.757e-04 -3.472e-03 1.139e-03 7.585e-04
307 1 -5.597e+00 1.579e+00 7.114e-04 -8.687e-03 1.307e-03 5.380e-04
308 1 -1.879e+00 4.929e+00 2.467e-04 -2.820e-03 1.636e-03 -7.774e-04
309 1 5.584e+00 -1.681e+00 1.389e-03 1.251e-02 -1.442e-02 3.969e-04
310 1 -3.764e-03 4.917e+00 1.746e+00 -1.114e-02 1.803e-02 1.003e-02
311 1 -2.685e-03 4.917e+00 -1.746e+00 -1.213e-02 1.802e-02 -9.343e-03
312 1 5.606e+00 -2.834e-02 -1.760e+00 -6.342e-03 3.132e-04 2.413e-04
313 1 5.607e+00 -2.678e-02 1.760e+00 -6.311e-03 -6.625e-04 1.645e-03
314 1 -3.676e+00 -3.387e+00 -2.454e-03 -2.335e-03 4.381e-03 1.860e-03
315 1 -3.752e+00 3.267e+00 -1.158e-03 1.100e-02 -1.574e-02 1.026e-03
316 1 3.728e+00 -3.351e+00 1.252e-04 -2.071e-03 9.102e-04 -1.905e-04
317 1 -3.724e+00 -6.879e-02 3.520e+00 -1.072e-02 1.611e-03 2.160e-03
318 1 -3.725e+00 -6.891e-02 -3.523e+00 -8.330e-03 -2.617e-03 -2.145e-03
319 1 4.058e-02 -3.340e+00 3.512e+00 -1.049e-02 1.840e-02 -3.198e-02
320 1 3.975e-02 -3.341e+00 -3.515e+00 -9.835e-03 1.851e-02 3.077e-02
321 1 -1.157e-02 3.275e+00 3.517e+00 3.346e-03 -3.662e-02 -3.829e-02
322 1 -1.022e-02 3.277e+00 -3.515e+00 1.367e-04 -3.782e-02 3.838e-02
323 1 3.733e+00 -1.705e-02 3.517e+00 9.048e-03 -8.657e-03 7.173e-03
324 1 3.732e+00 -1.799e-02 -3.516e+00 1.046e-02 -8.793e-03 -6.347e-03
325 1 1.865e+00 3.194e+00 -1.680e+00 -9.122e-03 6.769e-02 -6.782e-02
326 1 1.862e+00 3.194e+00 1.680e+00 -1.123e-02 6.701e-02 6.691e-02
327 1 3.777e+00 1.633e+00 1.778e+00 -3.062e-02 -2.438e-03 -1.482e-02
328 1 3.777e+00 1.634e+00 -1.776e+00 -3.190e-02 -3.331e-04 1.539e-02
329 1 -3.703e+00 -1.731e+00 1.761e+00 -1.414e-02 -1.499e-04 1.050e-03
330 1 -3.706e+00 -1.730e+00 -1.762e+00 -1.337e-02 -1.182e-03 -1.591e-03
331 1 -1.815e+00 -3.362e+00 -1.759e+00 -1.009e-03 1.258e-02 9.025e-03
332 1 -1.814e+00 -3.364e+00 1.759e+00 -1.373e-04 1.104e-02 -1.161e-02
333 1 -3.742e+00 1.597e+00 1.761e+00 -7.828e-03 -2.288e-03 -1.985e-03
334 1 -3.743e+00 1.598e+00 -1.761e+00 -6.968e-03 -1.571e-03 3.752e-04
335 1 1.881e+00 -3.352e+00 -1.759e+00 -1.188e-02 1.736e-02 8.598e-03
336 1 1.884e+00 -3.350e+00 1.756e+00 -8.488e-03 1.811e-02 -9.749e-03
337 1 -1.891e+00 3.276e+00 -1.762e+00 2.069e-02 -2.709e-02 1.606e-02
338 1 -1.892e+00 3.275e+00 1.760e+00 2.372e-02 -2.593e-02 -1.393e-02
339 1 3.722e+00 -1.664e+00 1.747e+00 2.351e-02 -2.520e-02 1.395e-02
340 1 3.721e+00 -1.663e+00 -1.747e+00 2.171e-02 -2.685e-02 -1.550e-02
341 1 -1.838e+00 -1.703e+00 -3.517e+00 -5.475e-03 3.123e-04 -4.033e-04
342 1 -1.837e+00 -1.703e+00 3.518e+00 -4.318e-03 -6.054e-04 -1.785e-04
343 1 -1.880e+00 1.612e+00 -3.525e+00 9.319e-03 -8.110e-03 6.034e-03
344 1 -1.880e+00 1.612e+00 3.524e+00 8.012e-03 -8.724e-03 -9.699e-03
345 1 1.876e+00 -1.649e+00 3.482e+00 3.568e-04 -3.506e-02 3.531e-02
346 1 1.875e+00 -1.647e+00 -3.482e+00 -9.171e-04 -3.710e-02 -3.562e-02
347 1 1.864e+00 1.634e+00 -3.529e+00 1.734e-03 -1.054e-02 1.171e-02
348 1 1.865e+00 1.633e+00 3.527e+00 -5.797e-04 -9.891e-03 -1.214e-02
349 1 -3.861e-03 1.627e+00 5.280e+00 2.438e-03 -1.417e-03 2.520e-04
350 1 1.870e+00 -2.816e-02 5.280e+00 8.176e-04 -2.579e-03 8.254e-05
351 1 -1.862e+00 -4.759e-02 -5.280e+00 -1.548e-03 -1.529e-03 -1.948e-03
352 1 2.267e-02 -1.683e+00 5.279e+00 -2.598e-03 -1.433e-02 -1.721e-03
353 1 8.377e-04 -5.410e-04 1.666e-03 1.868e+00 1.596e+00 -5.498e-04
354 1 -1.696e-02 3.249e+00 -4.330e-04 5.237e-03 3.141e-02 4.500e-04
355 1 3.739e+00 9.485e-03 -2.416e-04 2.139e-02 -3.415e-02 1.311e-04
356 1 -4.630e-02 1.625e+00 1.776e+00 4.161e-02 -9.385e-02 -9.144e-02
357 1 -4.746e-02 1.625e+00 -1.775e+00 4.410e-02 -9.336e-02 9.187e-02
358 1 1.872e+00 6.519e-02 -1.684e+00 4.086e-02 -9.491e-02 -9.136e-02
359 1 1.869e+00 6.359e-02 1.687e+00 4.159e-02 -9.487e-02 9.042e-02
360 1 5.059e-03 -2.940e-02 3.517e+00 -6.001e-05 -7.323e-03 1.121e-02
361 1 7.002e-03 -2.855e-02 -3.517e+00 -1.241e-03 -8.738e-03 -1.056e-02
362 1 -3.730e+00 -6.953e-02 6.161e-04 -2.194e-02 1.507e-03 -7.538e-06
363 1 3.401e-02 -3.356e+00 3.448e-05 -3.488e-03 -2.327e-03 1.188e-03
364 1 -1.837e+00 -1.699e+00 -5.074e-05 -9.844e-03 2.331e-02 -3.355e-04
365 1 -1.870e+00 -4.862e-02 -1.762e+00 -3.102e-02 -3.183e-03 -1.740e-02
366 1 -1.873e+00 -4.894e-02 1.763e+00 -3.069e-02 -3.235e-04 1.481e-02
367 1 2.935e-02 -1.672e+00 1.747e+00 -1.274e-02 6.389e-02 -6.163e-02
368 1 2.908e-02 -1.671e+00 -1.748e+00 -1.191e-02 6.261e-02 5.962e-02
369 1 -1.896e+00 1.615e+00 -1.329e-03 2.051e-02 -3.634e-02 3.018e-03
370 1 1.877e+00 -1.685e+00 1.022e-04 3.523e-03 2.734e-02 -7.886e-04
ITEM: TIMESTEP
0
ITEM: NUMBER OF ATOMS
74
ITEM: BOX BOUNDS xy xz yz pp pp pp
                     0.00000000000000e+00 1.06200000000000e+01 0.00000000000000e+00
0.00000000000000e+00	1.06200000000000e+01	0.00000000000000e+00
0.00000000000000e+00	1.06200000000000e+01	0.00000000000000e+00
ITEM: ATOMS id type x y z DisplacementX DisplacementY DisplacementZ
371 1 -1.882e+00 4.932e+00 5.385e-04 4.493e-03 -4.929e-03 -2.419e-04
372 1 -5.636e+00 1.601e+00 2.143e-05 1.996e-02 1.552e-03 2.432e-04
373 1 -3.756e+00 3.237e+00 1.310e-05 1.340e-02 2.284e-02 8.224e-04
374 1 5.566e+00 -1.725e+00 -8.006e-04 8.825e-03 -2.078e-03 6.441e-04
375 1 1.832e+00 -5.035e+00 -2.923e-03 4.850e-03 -3.342e-04 -2.377e-03
376 1 5.580e+00 -6.173e-02 1.760e+00 8.694e-03 1.139e-03 3.161e-04
377 1 5.581e+00 -6.085e-02 -1.762e+00 8.332e-03 7.911e-04 -2.037e-03
378 1 -1.165e-02 -5.033e+00 1.762e+00 4.516e-03 -2.700e-03 -5.003e-03
379 1 -1.207e-02 -5.032e+00 -1.762e+00 5.616e-03 -3.746e-03 5.796e-03
380 1 -1.852e+00 -5.035e+00 2.438e-03 1.367e-03 2.359e-03 -2.380e-03
381 1 5.594e+00 1.602e+00 -3.765e-06 7.264e-03 -9.501e-06 -1.536e-03
382 1 1.861e+00 4.925e+00 -2.409e-04 1.283e-03 1.375e-03 -3.704e-04
383 1 -5.576e+00 -1.712e+00 -9.004e-04 -1.223e-02 -1.262e-02 2.062e-03
384 1 -1.779e-02 4.913e+00 1.748e+00 1.163e-02 1.806e-02 1.062e-02
385 1 -1.678e-02 4.911e+00 -1.747e+00 1.008e-02 1.826e-02 -9.330e-03
386 1 -5.610e+00 -6.023e-02 -1.760e+00 3.098e-03 -1.006e-03 3.216e-04
387 1 -5.609e+00 -5.866e-02 1.761e+00 7.272e-03 -6.903e-04 -1.079e-04
388 1 3.686e+00 -3.370e+00 3.790e-04 3.147e-03 4.546e-03 4.544e-04
389 1 3.743e+00 3.276e+00 -9.086e-04 -1.045e-02 -1.282e-02 -2.829e-03
390 1 -3.706e+00 -3.366e+00 1.125e-03 4.429e-03 1.624e-03 6.715e-04
391 1 3.721e+00 -4.640e-02 3.520e+00 9.304e-03 -4.975e-04 2.613e-03
392 1 3.721e+00 -4.712e-02 -3.521e+00 9.420e-03 9.541e-05 -5.176e-03
393 1 -1.585e-02 -3.345e+00 3.512e+00 9.981e-03 1.724e-02 -2.915e-02
394 1 -1.517e-02 -3.346e+00 -3.513e+00 9.103e-03 1.804e-02 2.632e-02
395 1 -3.628e-03 3.274e+00 3.515e+00 -2.605e-04 -3.796e-02 -3.806e-02
396 1 -6.211e-03 3.273e+00 -3.517e+00 3.007e-04 -3.777e-02 3.889e-02
397 1 -3.732e+00 -3.941e-02 3.517e+00 -1.014e-02 -8.712e-03 8.545e-03
398 1 -3.733e+00 -3.813e-02 -3.517e+00 -1.070e-02 -9.143e-03 -7.929e-03
399 1 -1.879e+00 3.183e+00 -1.680e+00 1.015e-02 6.737e-02 -6.760e-02
400 1 -1.879e+00 3.185e+00 1.679e+00 9.375e-03 6.749e-02 6.627e-02
401 1 -3.785e+00 1.613e+00 1.778e+00 3.343e-02 -3.937e-04 -1.441e-02
402 1 -3.786e+00 1.615e+00 -1.776e+00 3.361e-02 -1.941e-03 1.651e-02
403 1 3.708e+00 -1.709e+00 1.761e+00 1.391e-02 -1.671e-03 1.405e-03
404 1 3.708e+00 -1.707e+00 -1.760e+00 1.272e-02 -1.267e-03 -1.280e-03