ITEM: TIMESTEP
0
ITEM: NUMBER OF ATOMS
3999
ITEM: BOX BOUNDS pp pp pp
0.0 35.4000015
0.0 35.4000015
0.0 35.4000015
ITEM: ATOMS id type x y z
1 1 0.354 0.3539323 0.3540623
2 1 2.1240423 2.1239379 0.354065
3 1 2.1240542 0.3539229 2.1240568
4 1 0.354 2.1239424 2.1240528
5 1 3.8940964 0.3538998 0.3540842
6 1 5.6641007 2.1239035 0.3540842
7 1 5.6641445 0.3538556 2.124094
8 1 3.8940834 2.1239166 2.124063
9 1 7.4341517 0.3538373 0.3541314
10 1 9.2040997 2.1238809 0.3540997
11 1 9.2041655 0.3538067 2.1241341
12 1 7.4341116 2.1238823 2.1240792
13 1 10.9741336 0.3538067 0.3541652
14 1 12.7440567 2.1238966 0.3540911
15 1 12.7440996 0.3538424 2.1241312
16 1 10.9740734 2.1239026 2.124074
17 1 14.5140658 0.3538211 0.3541631
18 1 16.2840138 2.1239297 0.3540649
19 1 16.2840214 0.3539284 2.1240792
20 1 14.5140229 2.1239617 2.1240404
21 1 18.0540009 0.3538537 0.3541379
22 1 19.8239861 2.1239297 0.3540649
23 1 19.8239804 0.3539284 2.1240792
24 1 18.0540009 2.1239781 2.1240268
25 1 21.593935 0.3538211 0.3541631
26 1 23.3639431 2.1238966 0.3540911
27 1 23.3639012 0.3538424 2.1241312
28 1 21.5939789 2.1239617 2.1240404
29 1 25.1338654 0.3538067 0.3541652
30 1 26.9039002 2.1238809 0.3540997
31 1 26.9038334 0.3538067 2.1241341
32 1 25.1339264 2.1239026 2.124074
33 1 28.6738491 0.3538373 0.3541314
34 1 30.4438992 2.1239035 0.3540842
35 1 30.4438553 0.3538556 2.124094
36 1 28.6738892 2.1238823 2.1240792
37 1 32.2139015 0.3538998 0.3540842
38 1 33.9839592 2.1239379 0.354065
39 1 33.9839478 0.3539229 2.1240568
40 1 32.2139168 2.1239166 2.124063
41 1 0.354 3.8939682 0.3540605
42 1 2.124032 5.6640001 0.3540605
43 1 2.124037 3.893963 2.1240537
44 1 0.354 5.6640001 2.1240525
45 1 3.894062 3.893958 0.354065
46 1 5.6640678 5.6640001 0.3540623
47 1 5.6640773 3.893946 2.1240568
48 1 3.8940576 5.6640001 2.1240528
49 1 7.4340768 3.8939434 0.3540689
50 1 9.2040539 5.6640001 0.3540538
51 1 9.2040577 3.8939478 2.1240482
52 1 7.4340596 5.6640001 2.1240463
53 1 10.9740478 3.8939478 0.3540575
54 1 12.7440233 5.6640001 0.3540319
55 1 12.7440205 3.8939776 2.1240249
56 1 10.9740268 5.6640001 2.1240263
57 1 14.5140162 3.8939684 0.3540346
58 1 16.2840042 5.6640001 0.3540163
59 1 16.2840042 3.8939924 2.1240084
60 1 14.5140066 5.6640001 2.1240077
61 1 18.0540009 3.8939748 0.3540248
62 1 19.8239956 5.6640001 0.3540163
63 1 19.8239956 3.8939924 2.1240084
64 1 18.0540009 5.6640001 2.1239996
65 1 21.5939846 3.8939684 0.3540346
66 1 23.3639774 5.6640001 0.3540319
67 1 23.3639813 3.8939776 2.1240249
68 1 21.5939942 5.6640001 2.1240077
69 1 25.1339512 3.8939478 0.3540575
70 1 26.903946 5.6640001 0.3540538
71 1 26.903944 3.8939478 2.1240482
72 1 25.1339722 5.6640001 2.1240263
73 1 28.6739235 3.8939434 0.3540689
74 1 30.4439316 5.6640001 0.3540623
75 1 30.4439221 3.893946 2.1240568
76 1 28.6739407 5.6640001 2.1240463
77 1 32.2139359 3.893958 0.354065
78 1 33.9839668 5.6640001 0.3540605
79 1 33.983963 3.893963 2.1240537
80 1 32.2139435 5.6640001 2.1240528
81 1 0.354 7.434032 0.3540605
82 1 2.1240423 9.2040625 0.354065
83 1 2.124037 7.4340372 2.1240537
84 1 0.354 9.2040577 2.1240528
85 1 3.894062 7.4340425 0.354065
86 1 5.6641007 9.2040968 0.3540842
87 1 5.6640773 7.4340544 2.1240568
88 1 3.8940834 9.2040834 2.124063
89 1 7.4340768 7.4340563 0.3540689
90 1 9.2040997 9.2041187 0.3540997
91 1 9.2040577 7.434052 2.1240482
92 1 7.4341116 9.2041178 2.1240792
93 1 10.9740478 7.434052 0.3540575
94 1 12.7440567 9.2041035 0.3540911
95 1 12.7440205 7.4340225 2.1240249
96 1 10.9740734 9.2040978 2.124074
97 1 14.5140162 7.434032 0.3540346
98 1 16.2840138 9.2040701 0.3540649
99 1 16.2840042 7.4340077 2.1240084
100 1 14.5140229 9.2040386 2.1240404
101 1 18.0540009 7.4340258 0.3540248
102 1 19.8239861 9.2040701 0.3540649
103 1 19.8239956 7.4340077 2.1240084
104 1 18.0540009 9.2040215 2.1240268
105 1 21.5939846 7.434032 0.3540346
106 1 23.3639431 9.2041035 0.3540911
107 1 23.3639813 7.4340225 2.1240249
108 1 21.5939789 9.2040386 2.1240404
109 1 25.1339512 7.434052 0.3540575
110 1 26.9039002 9.2041187 0.3540997
111 1 26.903944 7.434052 2.1240482
112 1 25.1339264 9.2040978 2.124074
113 1 28.6739235 7.4340563 0.3540689
114 1 30.4438992 9.2040968 0.3540842
115 1 30.4439221 7.4340544 2.1240568
116 1 28.6738892 9.2041178 2.1240792
117 1 32.2139359 7.4340425 0.354065
118 1 33.9839592 9.2040625 0.354065
119 1 33.983963 7.4340372 2.1240537
120 1 32.2139168 9.2040834 2.124063
121 1 0.354 10.9740668 0.3540623
122 1 2.1240566 12.7440768 0.3540689
123 1 2.1240542 10.9740772 2.1240568
124 1 0.354 12.7440605 2.1240463
125 1 3.8940964 10.9741002 0.3540842
126 1 5.6641627 12.7441521 0.3541314
127 1 5.6641445 10.974144 2.124094
128 1 3.8941174 12.7441111 2.1240792
129 1 7.4341517 10.9741632 0.3541314
130 1 9.204216 12.7442436 0.3542157
131 1 9.2041655 10.9741936 2.1241341
132 1 7.4342261 12.7442265 2.124161
133 1 10.9741336 10.9741936 0.3541652
134 1 12.7441674 12.7442923 0.3542718
135 1 12.7440996 10.9741584 2.1241312
136 1 10.9742366 12.744298 2.1242364
137 1 14.5140658 10.9741784 0.3541631
138 1 16.2840595 12.7443075 0.3542932
139 1 16.2840214 10.9740716 2.1240792
140 1 14.5141239 12.7442675 2.1242428
141 1 18.0540009 10.9741468 0.3541379
142 1 19.8239403 12.7443075 0.3542932
143 1 19.8239804 10.9740716 2.1240792
144 1 18.0540009 12.7441702 2.1241751
145 1 21.593935 10.9741784 0.3541631
146 1 23.3638325 12.7442923 0.3542718
147 1 23.3639012 10.9741584 2.1241312
148 1 21.5938759 12.7442675 2.1242428
149 1 25.1338654 10.9741936 0.3541652
150 1 26.9037858 12.7442436 0.3542157
151 1 26.9038334 10.9741936 2.1241341
152 1 25.1337624 12.744298 2.1242364
153 1 28.6738491 10.9741632 0.3541314
154 1 30.4438381 12.7441521 0.3541314
155 1 30.4438553 10.974144 2.124094
156 1 28.6737747 12.7442265 2.124161
157 1 32.2139015 10.9741002 0.3540842
158 1 33.983944 12.7440768 0.3540689
159 1 33.9839478 10.9740772 2.1240568
160 1 32.2138825 12.7441111 2.1240792
161 1 0.354 14.5140534 0.3540538
162 1 2.1240521 16.2840481 0.3540575
163 1 2.1240521 14.5140572 2.1240482
164 1 0.354 16.2840271 2.1240263
165 1 3.894119 14.5140991 0.3540997
166 1 5.6641932 16.2841339 0.3541652
167 1 5.6641932 14.5141659 2.1241341
168 1 3.8940974 16.2840748 2.124074
169 1 7.4342432 14.5142155 0.3542157
170 1 9.2043362 16.2842808 0.3543357
171 1 9.2043362 14.5143357 2.1242817
172 1 7.434299 16.2842369 2.1242364
173 1 10.9742814 14.5143357 0.3543357
174 1 12.7443161 16.2844105 0.3544547
175 1 12.7443161 14.5144549 2.1244094
176 1 10.974473 16.2844734 2.1244733
177 1 14.5141773 14.5144129 0.3544122
178 1 16.2841225 16.2844639 0.3544902
179 1 16.2841225 14.5144892 2.1244652
180 1 14.5143643 16.2846642 2.1246646
181 1 18.0540009 14.5144921 0.3544917
182 1 19.8238774 16.2844639 0.3544902
183 1 19.8238774 14.5144892 2.1244652
184 1 18.0540009 16.2848969 2.1248956
185 1 21.5938225 14.5144129 0.3544122
186 1 23.3636837 16.2844105 0.3544547
187 1 23.3636837 14.5144549 2.1244094
188 1 21.5936356 16.2846642 2.1246646
189 1 25.1337185 14.5143357 0.3543357
190 1 26.9036656 16.2842808 0.3543357
191 1 26.9036656 14.5143357 2.1242817
192 1 25.1335278 16.2844734 2.1244733
193 1 28.6737557 14.5142155 0.3542157
194 1 30.4438076 16.2841339 0.3541652
195 1 30.4438076 14.5141659 2.1241341
196 1 28.6737023 16.2842369 2.1242364
197 1 32.2138786 14.5140991 0.3540997
198 1 33.9839478 16.2840481 0.3540575
199 1 33.9839478 14.5140572 2.1240482
200 1 32.2139015 16.2840748 2.124074
201 1 0.354 0.3539376 3.8940376
202 1 2.1240482 2.1239336 3.894043
203 1 2.1240571 0.3539274 5.6640268
204 1 0.354 2.1239431 5.6640268
205 1 3.8941098 0.3538896 3.8940552
206 1 5.6641102 2.1238902 3.8940552
207 1 5.6641608 0.3538393 5.6640501
208 1 3.8940916 2.1239085 5.6640325
209 1 7.434176 0.353814 3.8940916
210 1 9.2040911 2.1238966 3.8940566
211 1 9.2041636 0.3538211 5.6640659
212 1 7.4341073 2.1238854 5.6640377
213 1 10.9741316 0.3538424 3.8940992
214 1 12.7440281 2.1239739 3.8940284
215 1 12.7440453 0.3539778 5.6640315
216 1 10.97404 2.1239617 5.664022
217 1 14.5140314 0.3539778 3.8940454
218 1 16.2840042 2.1240099 3.894009
219 1 16.284008 0.3540484 5.6640096
220 1 14.5140057 2.1240203 5.6640058
221 1 18.0540009 0.3540095 3.8940266
222 1 19.8239956 2.1240099 3.894009
223 1 19.8239918 0.3540484 5.6640096
224 1 18.0540009 2.124038 5.6639982
225 1 21.5939694 0.3539778 3.8940454
226 1 23.3639698 2.1239739 3.8940284
227 1 23.3639546 0.3539778 5.6640315
228 1 21.5939942 2.1240203 5.6640058
229 1 25.1338673 0.3538424 3.8940992
230 1 26.9039078 2.1238966 3.8940566
231 1 26.9038354 0.3538211 5.6640659
232 1 25.1339588 2.1239617 5.664022
233 1 28.6738224 0.353814 3.8940916
234 1 30.4438877 2.1238902 3.8940552
235 1 30.4438401 0.3538393 5.6640501
236 1 28.6738911 2.1238854 5.6640377
237 1 32.2138901 0.3538896 3.8940552
238 1 33.9839516 2.1239336 3.894043
239 1 33.983944 0.3539274 5.6640268
240 1 32.2139092 2.1239085 5.6640325
241 1 0.354 3.893965 3.8940416
242 1 2.1240349 5.6640001 3.8940416
243 1 2.1240404 3.8939598 5.6640282
244 1 0.354 5.6640001 5.6640287
245 1 3.8940666 3.8939518 3.894043
246 1 5.664062 5.6640001 3.8940376
247 1 5.664073 3.8939432 5.6640268
248 1 3.894057 5.6640001 5.6640268
249 1 7.4340668 3.893945 3.8940384
250 1 9.204032 5.6640001 3.8940228
251 1 9.2040348 3.8939684 5.6640167
252 1 7.4340415 5.6640001 5.6640182
253 1 10.9740248 3.8939776 3.8940206
254 1 12.7440062 5.6640001 3.8940066
255 1 12.7440043 3.8940016 5.6640039
256 1 10.9740086 5.6640001 5.6640072
257 1 14.5140047 3.8940016 3.8940036
258 1 16.2840004 5.6640001 3.8939946
259 1 16.2839985 3.8940172 5.6639948
260 1 14.5139971 5.6640001 5.6639967
261 1 18.0540009 3.894009 3.8939958
262 1 19.8239994 5.6640001 3.8939946
263 1 19.8240013 3.8940172 5.6639948
264 1 18.0540009 5.6640001 5.6639924
265 1 21.5939961 3.8940016 3.8940036
266 1 23.3639927 5.6640001 3.8940066
267 1 23.3639965 3.8940016 5.6640039
268 1 21.5940037 5.6640001 5.6639967
269 1 25.133976 3.8939776 3.8940206
270 1 26.9039688 5.6640001 3.8940228
271 1 26.903967 3.8939684 5.6640167
272 1 25.1339932 5.6640001 5.6640072
273 1 28.6739331 3.893945 3.8940384
274 1 30.4439373 5.6640001 3.8940376
275 1 30.4439278 3.8939432 5.6640268
276 1 28.6739578 5.6640001 5.6640182
277 1 32.2139359 3.8939518 3.894043
278 1 33.983963 5.6640001 3.8940416
279 1 33.9839592 3.8939598 5.6640282
280 1 32.2139435 5.6640001 5.6640268
281 1 0.354 7.4340344 3.8940416
282 1 2.1240482 9.2040663 3.894043
283 1 2.1240404 7.4340406 5.6640282
284 1 0.354 9.2040567 5.6640268
285 1 3.8940666 7.4340487 3.894043
286 1 5.6641102 9.2041092 3.8940552
287 1 5.664073 7.4340568 5.6640268
288 1 3.8940916 9.2040911 5.6640325
289 1 7.4340668 7.4340549 3.8940384
290 1 9.2040911 9.2041035 3.8940566
291 1 9.2040348 7.434032 5.6640167
292 1 7.4341073 9.2041149 5.6640377
293 1 10.9740248 7.4340225 3.8940206
294 1 12.7440281 9.2040262 3.8940284
295 1 12.7440043 7.4339986 5.6640039
296 1 10.97404 9.2040386 5.664022
297 1 14.5140047 7.4339986 3.8940036
298 1 16.2840042 9.20399 3.894009
299 1 16.2839985 7.4339829 5.6639948
300 1 14.5140057 9.2039795 5.6640058
301 1 18.0540009 7.433991 3.8939958
302 1 19.8239956 9.20399 3.894009
303 1 19.8240013 7.4339829 5.6639948
304 1 18.0540009 9.2039623 5.6639982
305 1 21.5939961 7.4339986 3.8940036
306 1 23.3639698 9.2040262 3.8940284
307 1 23.3639965 7.4339986 5.6640039
308 1 21.5939942 9.2039795 5.6640058
309 1 25.133976 7.4340225 3.8940206
310 1 26.9039078 9.2041035 3.8940566
311 1 26.903967 7.434032 5.6640167
312 1 25.1339588 9.2040386 5.664022
313 1 28.6739331 7.4340549 3.8940384
314 1 30.4438877 9.2041092 3.8940552
315 1 30.4439278 7.4340568 5.6640268
316 1 28.6738911 9.2041149 5.6640377
317 1 32.2139359 7.4340487 3.894043
318 1 33.9839516 9.2040663 3.894043
319 1 33.9839592 7.4340406 5.6640282
320 1 32.2139092 9.2040911 5.6640325
321 1 0.354 10.974062 3.8940376
322 1 2.1240552 12.7440663 3.8940384
323 1 2.1240571 10.9740726 5.6640268
324 1 0.354 12.7440424 5.6640182
325 1 3.8941098 10.9741106 3.8940552
326 1 5.6641865 12.7441769 3.8940916
327 1 5.6641608 10.9741602 5.6640501
328 1 3.8941146 12.7441073 5.6640377
329 1 7.434176 10.974186 3.8940916
330 1 9.2042723 12.7442923 3.894168
331 1 9.2041636 10.9741784 5.6640659
332 1 7.4342599 12.7442599 5.6640911
333 1 10.9741316 10.9741584 3.8940992
334 1 12.7441845 12.7442436 3.8941844
335 1 12.7440453 10.974023 5.6640315
336 1 10.9742422 12.7442675 5.6641236
337 1 14.5140314 10.974023 3.8940454
338 1 16.2840252 12.744031 3.8940776
339 1 16.284008 10.9739524 5.6640096
340 1 14.5140391 12.7439766 5.6640392
341 1 18.0540009 10.9739904 3.8940266
342 1 19.8239746 12.744031 3.8940776
343 1 19.8239918 10.9739524 5.6640096
344 1 18.0540009 12.7439232 5.6640172
345 1 21.5939694 10.974023 3.8940454
346 1 23.3638172 12.7442436 3.8941844
347 1 23.3639546 10.974023 5.6640315
348 1 21.5939617 12.7439766 5.6640392
349 1 25.1338673 10.9741584 3.8940992
350 1 26.9037286 12.7442923 3.894168
351 1 26.9038354 10.9741784 5.6640659
352 1 25.1337566 12.7442675 5.6641236
353 1 28.6738224 10.974186 3.8940916
354 1 30.4438153 12.7441769 3.8940916
355 1 30.4438401 10.9741602 5.6640501
356 1 28.6737404 12.7442599 5.6640911
357 1 32.2138901 10.9741106 3.8940552
358 1 33.983944 12.7440663 3.8940384
359 1 33.983944 10.9740726 5.6640268
360 1 32.2138863 12.7441073 5.6640377
361 1 0.354 14.5140314 3.8940228
362 1 2.1240225 16.2840252 3.8940206
363 1 2.1240318 14.5140352 5.6640167
364 1 0.354 16.284008 5.6640072
365 1 3.8941034 14.5140915 3.8940566
366 1 5.6641574 16.284132 3.8940992
367 1 5.6641794 14.514163 5.6640659
368 1 3.8940384 16.2840405 5.664022
369 1 7.4342923 14.5142718 3.894168
370 1 9.2044554 16.2844105 3.894316
371 1 9.2044125 14.5144129 5.6641774
372 1 7.4342675 16.2842426 5.6641236
373 1 10.9744092 14.5144549 3.894316
374 1 12.7445975 16.2847138 3.894598
375 1 12.7443581 14.5144167 5.6642452
376 1 10.9746648 16.2846642 5.6643644
377 1 14.5142451 14.5144167 3.8943592
378 1 16.2842789 16.2848225 3.8947598
379 1 16.2840119 14.513896 5.6640339
380 1 14.5145293 16.2847252 5.6645289
381 1 18.0540009 14.514122 3.8941722
382 1 19.823721 16.2848225 3.8947598
383 1 19.823988 14.513896 5.6640339
384 1 18.0540009 16.2838116 5.6640172
385 1 21.5937538 14.5144167 3.8943592
386 1 23.3634014 16.2847138 3.894598
387 1 23.3636398 14.5144167 5.6642452
388 1 21.5934716 16.2847252 5.6645289
389 1 25.1335907 14.5144549 3.894316
390 1 26.9035436 16.2844105 3.894316
391 1 26.9035874 14.5144129 5.6641774
392 1 25.1333351 16.2846642 5.6643644
393 1 28.673708 14.5142718 3.894168
394 1 30.443842 16.284132 3.8940992
395 1 30.4438229 14.514163 5.6640659
396 1 28.6737328 16.2842426 5.6641236
397 1 32.2138939 14.5140915 3.8940566
398 1 33.9839784 16.2840252 3.8940206
399 1 33.9839706 14.5140352 5.6640167
400 1 32.2139626 16.2840405 5.664022
401 1 0.354 0.3539471 7.434011
402 1 2.1240523 2.1239324 7.4340139
403 1 2.1240552 0.3539322 9.2040005
404 1 0.354 2.1239452 9.2040005
405 1 3.894116 0.3538859 7.4340182
406 1 5.664114 2.1238842 7.4340182
407 1 5.6641722 0.3538276 9.2040005
408 1 3.8940964 2.1239035 9.2040005
409 1 7.4341855 0.3538053 7.4340306
410 1 9.2040644 2.1239297 7.4340134
411 1 9.2041378 0.3538537 9.2040005
412 1 7.4340973 2.1238954 9.2040005
413 1 10.9740792 0.3539284 7.4340201
414 1 12.744009 2.1240099 7.4340053
415 1 12.7440272 0.3540095 9.2040005
416 1 10.9740268 2.1239781 9.2040005
417 1 14.5140095 0.3540484 7.4340072
418 1 16.2839985 2.1240468 7.4339986
419 1 16.2840004 0.3540809 9.2040005
420 1 14.5139981 2.124038 9.2040005
421 1 18.0540009 0.3540809 7.4340005
422 1 19.8240013 2.1240468 7.4339986
423 1 19.8239994 0.3540809 9.2040005
424 1 18.0540009 2.1240552 9.2040005
425 1 21.5939884 0.3540484 7.4340072
426 1 23.3639908 2.1240099 7.4340053
427 1 23.3639736 0.3540095 9.2040005
428 1 21.5940018 2.124038 9.2040005
429 1 25.1339207 0.3539284 7.4340201
430 1 26.9039364 2.1239297 7.4340134
431 1 26.903862 0.3538537 9.2040005
432 1 25.1339722 2.1239781 9.2040005
433 1 28.6738148 0.3538053 7.4340306
434 1 30.4438858 2.1238842 7.4340182
435 1 30.4438267 0.3538276 9.2040005
436 1 28.6739025 2.1238954 9.2040005
437 1 32.2138863 0.3538859 7.4340182
438 1 33.9839478 2.1239324 7.4340139
439 1 33.983944 0.3539322 9.2040005
440 1 32.2139015 2.1239035 9.2040005
441 1 0.354 3.8939638 7.4340139
442 1 2.1240361 5.6640001 7.4340139
443 1 2.1240423 3.893958 9.2040005
444 1 0.354 5.6640001 9.2040005
445 1 3.8940676 3.8939476 7.4340139
446 1 5.664053 5.6640001 7.434011
447 1 5.6640678 3.893945 9.2040005
448 1 3.8940552 5.6640001 9.2040005
449 1 7.4340511 3.8939546 7.4340101
450 1 9.2040167 5.6640001 7.4340053
451 1 9.2040253 3.8939748 9.2040005
452 1 7.4340339 5.6640001 9.2040005
453 1 10.9740086 3.8939924 7.4340039
454 1 12.7439947 5.6640001 7.434
455 1 12.7439966 3.894009 9.2040005
456 1 10.973999 5.6640001 9.2040005
457 1 14.5139952 3.8940172 7.4339981
458 1 16.2839966 5.6640001 7.4339957
459 1 16.2839966 3.8940246 9.2040005
460 1 14.5139914 5.6640001 9.2040005
461 1 18.0540009 3.8940246 7.4339957
462 1 19.8240032 5.6640001 7.4339957
463 1 19.8240032 3.8940246 9.2040005
464 1 18.0540009 5.6640001 9.2040005
465 1 21.5940037 3.8940172 7.4339981
466 1 23.3640061 5.6640001 7.434
467 1 23.3640041 3.894009 9.2040005
468 1 21.5940075 5.6640001 9.2040005
469 1 25.1339932 3.8939924 7.4340039
470 1 26.9039842 5.6640001 7.4340053
471 1 26.9039746 3.8939748 9.2040005
472 1 25.1340008 5.6640001 9.2040005
473 1 28.6739483 3.8939546 7.4340101
474 1 30.4439469 5.6640001 7.434011
475 1 30.4439316 3.893945 9.2040005
476 1 28.6739655 5.6640001 9.2040005
477 1 32.213932 3.8939476 7.4340139
478 1 33.983963 5.6640001 7.4340139
479 1 33.9839592 3.893958 9.2040005
480 1 32.2139435 5.6640001 9.2040005
481 1 0.354 7.4340358 7.4340139
482 1 2.1240523 9.2040682 7.4340139
483 1 2.1240423 7.4340425 9.2040005
484 1 0.354 9.2040548 9.2040005
485 1 3.8940676 7.4340525 7.4340139
486 1 5.664114 9.2041159 7.4340182
487 1 5.6640678 7.4340549 9.2040005
488 1 3.8940964 9.2040968 9.2040005
489 1 7.4340511 7.4340453 7.4340101
490 1 9.2040644 9.2040701 7.4340134
491 1 9.2040253 7.4340258 9.2040005
492 1 7.4340973 9.2041044 9.2040005
493 1 10.9740086 7.4340077 7.4340039
494 1 12.744009 9.20399 7.4340053
495 1 12.7439966 7.433991 9.2040005
496 1 10.9740268 9.2040215 9.2040005
497 1 14.5139952 7.4339829 7.4339981
498 1 16.2839985 9.2039537 7.4339986
499 1 16.2839966 7.4339752 9.2040005
500 1 14.5139981 9.2039623 9.2040005
501 1 18.0540009 7.4339752 7.4339957
502 1 19.8240013 9.2039537 7.4339986
503 1 19.8240032 7.4339752 9.2040005
504 1 18.0540009 9.2039452 9.2040005
505 1 21.5940037 7.4339829 7.4339981
506 1 23.3639908 9.20399 7.4340053
507 1 23.3640041 7.433991 9.2040005
508 1 21.5940018 9.2039623 9.2040005
509 1 25.1339932 7.4340077 7.4340039
510 1 26.9039364 9.2040701 7.4340134
511 1 26.9039746 7.4340258 9.2040005
512 1 25.1339722 9.2040215 9.2040005
513 1 28.6739483 7.4340453 7.4340101
514 1 30.4438858 9.2041159 7.4340182
515 1 30.4439316 7.4340549 9.2040005
516 1 28.6739025 9.2041044 9.2040005
517 1 32.213932 7.4340525 7.4340139
518 1 33.9839478 9.2040682 7.4340139
519 1 33.9839592 7.4340425 9.2040005
520 1 32.2139015 9.2040968 9.2040005
521 1 0.354 10.9740534 7.434011
522 1 2.1240456 12.744051 7.4340101
523 1 2.1240552 10.9740686 9.2040005
524 1 0.354 12.7440348 9.2040005
525 1 3.894116 10.9741144 7.4340182
526 1 5.6641946 12.7441855 7.4340306
527 1 5.6641722 10.9741726 9.2040005
528 1 3.8941048 12.7440977 9.2040005
529 1 7.4341855 10.9741956 7.4340306
530 1 9.2042933 12.7443075 7.4340587
531 1 9.2041378 10.9741468 9.2040005
532 1 7.4342885 12.7442894 9.2040005
533 1 10.9740792 10.9740716 7.4340201
534 1 12.7440777 12.744031 7.4340248
535 1 12.7440272 10.9739904 9.2040005
536 1 10.9741746 12.7441702 9.2040005
537 1 14.5140095 10.9739524 7.4340072
538 1 16.284008 12.7438927 7.4340077
539 1 16.2840004 10.973919 9.2040005
540 1 14.5140171 12.7439232 9.2040005
541 1 18.0540009 10.973919 7.4340005
542 1 19.8239918 12.7438927 7.4340077
543 1 19.8239994 10.973919 9.2040005
544 1 18.0540009 12.7438669 9.2040005
545 1 21.5939884 10.9739524 7.4340072
546 1 23.3639221 12.744031 7.4340248
547 1 23.3639736 10.9739904 9.2040005
548 1 21.5939808 12.7439232 9.2040005
549 1 25.1339207 10.9740716 7.4340201
550 1 26.9037056 12.7443075 7.4340587
551 1 26.903862 10.9741468 9.2040005
552 1 25.1338234 12.7441702 9.2040005
553 1 28.6738148 10.9741956 7.4340306
554 1 30.4438038 12.7441855 7.4340306
555 1 30.4438267 10.9741726 9.2040005
556 1 28.6737099 12.7442894 9.2040005
557 1 32.2138863 10.9741144 7.4340182
558 1 33.9839554 12.744051 7.4340101
559 1 33.983944 10.9740686 9.2040005
560 1 32.2138939 12.7440977 9.2040005
561 1 0.354 14.5140162 7.4340053
562 1 2.1240079 16.284008 7.4340039
563 1 2.1240254 14.5140248 9.2040005
564 1 0.354 16.2840004 9.2040005
565 1 3.8940704 14.5140648 7.4340134
566 1 5.6640716 16.2840786 7.4340201
567 1 5.6641464 14.5141373 9.2040005
568 1 3.8940218 16.2840271 9.2040005
569 1 7.4343071 14.5142937 7.4340587
570 1 9.2044907 16.2844639 7.4341221
571 1 9.2044916 14.5144921 9.2040005
572 1 7.4341698 16.2841759 9.2040005
573 1 10.9744654 14.5144892 7.4341221
574 1 12.7447605 16.2848225 7.4342785
575 1 12.7441712 14.514122 9.2040005
576 1 10.9748956 16.2848969 9.2040005
577 1 14.5140343 14.513896 7.4340115
578 1 16.2839165 16.2835541 7.4339175
579 1 16.2840023 14.513814 9.2040005
580 1 14.5140171 16.2838116 9.2040005
581 1 18.0540009 14.513814 7.4340019
582 1 19.8240834 16.2835541 7.4339175
583 1 19.8239975 14.513814 9.2040005
584 1 18.0540009 16.2836762 9.2040005
585 1 21.5939656 14.513896 7.4340115
586 1 23.3632412 16.2848225 7.4342785
587 1 23.3638268 14.514122 9.2040005
588 1 21.5939808 16.2838116 9.2040005
589 1 25.1335354 14.5144892 7.4341221
590 1 26.903511 16.2844639 7.4341221
591 1 26.9035092 14.5144921 9.2040005
592 1 25.1331043 16.2848969 9.2040005
593 1 28.6736927 14.5142937 7.4340587
594 1 30.4439297 16.2840786 7.4340201
595 1 30.4438534 14.5141373 9.2040005
596 1 28.6738301 16.2841759 9.2040005
597 1 32.2139282 14.5140648 7.4340134
598 1 33.9839936 16.284008 7.4340039
599 1 33.9839746 14.5140248 9.2040005
600 1 32.2139778 16.2840271 9.2040005
601 1 0.354 0.3539471 10.9739896
602 1 2.1240523 2.1239324 10.9739858
603 1 2.1240571 0.3539274 12.7439728
604 1 0.354 2.1239431 12.7439728
605 1 3.894116 0.3538859 10.973982
606 1 5.664114 2.1238842 10.973982
607 1 5.6641608 0.3538393 12.7439499
608 1 3.8940916 2.1239085 12.743968
609 1 7.4341855 0.3538053 10.9739686
610 1 9.2040644 2.1239297 10.9739866
611 1 9.2041636 0.3538211 12.7439347
612 1 7.4341073 2.1238854 12.7439633
613 1 10.9740792 0.3539284 10.97398
614 1 12.744009 2.1240099 10.9739944
615 1 12.7440453 0.3539778 12.743968
616 1 10.97404 2.1239617 12.7439785
617 1 14.5140095 0.3540484 10.9739934
618 1 16.2839985 2.1240468 10.974002
619 1 16.284008 0.3540484 12.74399
620 1 14.5140057 2.1240203 12.7439938
621 1 18.0540009 0.3540809 10.973999
622 1 19.8240013 2.1240468 10.974002
623 1 19.8239918 0.3540484 12.74399
624 1 18.0540009 2.124038 12.7440024
625 1 21.5939884 0.3540484 10.9739934
626 1 23.3639908 2.1240099 10.9739944
627 1 23.3639546 0.3539778 12.743968
628 1 21.5939942 2.1240203 12.7439938
629 1 25.1339207 0.3539284 10.97398
630 1 26.9039364 2.1239297 10.9739866
631 1 26.9038354 0.3538211 12.7439347
632 1 25.1339588 2.1239617 12.7439785
633 1 28.6738148 0.3538053 10.9739686
634 1 30.4438858 2.1238842 10.973982
635 1 30.4438401 0.3538393 12.7439499
636 1 28.6738911 2.1238854 12.7439633
637 1 32.2138863 0.3538859 10.973982
638 1 33.9839478 2.1239324 10.9739858
639 1 33.983944 0.3539274 12.7439728
640 1 32.2139092 2.1239085 12.743968
641 1 0.354 3.8939638 10.9739858
642 1 2.1240361 5.6640001 10.9739858
643 1 2.1240404 3.8939598 12.7439718
644 1 0.354 5.6640001 12.7439718
645 1 3.8940676 3.8939476 10.9739858
646 1 5.664053 5.6640001 10.9739896
647 1 5.664073 3.8939432 12.7439728
648 1 3.894057 5.6640001 12.7439728
649 1 7.4340511 3.8939546 10.9739896
650 1 9.2040167 5.6640001 10.9739944
651 1 9.2040348 3.8939684 12.7439833
652 1 7.4340415 5.6640001 12.7439823
653 1 10.9740086 3.8939924 10.9739952
654 1 12.7439947 5.6640001 10.974001
655 1 12.7440043 3.8940016 12.7439966
656 1 10.9740086 5.6640001 12.7439938
657 1 14.5139952 3.8940172 10.974002
658 1 16.2839966 5.6640001 10.9740048
659 1 16.2839985 3.8940172 12.7440052
660 1 14.5139971 5.6640001 12.7440043
661 1 18.0540009 3.8940246 10.9740048
662 1 19.8240032 5.6640001 10.9740048
663 1 19.8240013 3.8940172 12.7440052
664 1 18.0540009 5.6640001 12.7440081
665 1 21.5940037 3.8940172 10.974002
666 1 23.3640061 5.6640001 10.974001
667 1 23.3639965 3.8940016 12.7439966
668 1 21.5940037 5.6640001 12.7440043
669 1 25.1339932 3.8939924 10.9739952
670 1 26.9039842 5.6640001 10.9739944
671 1 26.903967 3.8939684 12.7439833
672 1 25.1339932 5.6640001 12.7439938
673 1 28.6739483 3.8939546 10.9739896
674 1 30.4439469 5.6640001 10.9739896
675 1 30.4439278 3.8939432 12.7439728
676 1 28.6739578 5.6640001 12.7439823
677 1 32.213932 3.8939476 10.9739858
678 1 33.983963 5.6640001 10.9739858
679 1 33.9839592 3.8939598 12.7439718
680 1 32.2139435 5.6640001 12.7439728
681 1 0.354 7.4340358 10.9739858
682 1 2.1240523 9.2040682 10.9739858
683 1 2.1240404 7.4340406 12.7439718
684 1 0.354 9.2040567 12.7439728
685 1 3.8940676 7.4340525 10.9739858
686 1 5.664114 9.2041159 10.973982
687 1 5.664073 7.4340568 12.7439728
688 1 3.8940916 9.2040911 12.743968
689 1 7.4340511 7.4340453 10.9739896
690 1 9.2040644 9.2040701 10.9739866
691 1 9.2040348 7.434032 12.7439833
692 1 7.4341073 9.2041149 12.7439633
693 1 10.9740086 7.4340077 10.9739952
694 1 12.744009 9.20399 10.9739944
695 1 12.7440043 7.4339986 12.7439966
696 1 10.97404 9.2040386 12.7439785
697 1 14.5139952 7.4339829 10.974002
698 1 16.2839985 9.2039537 10.974002
699 1 16.2839985 7.4339829 12.7440052
700 1 14.5140057 9.2039795 12.7439938
701 1 18.0540009 7.4339752 10.9740048
702 1 19.8240013 9.2039537 10.974002
703 1 19.8240013 7.4339829 12.7440052
704 1 18.0540009 9.2039623 12.7440024
705 1 21.5940037 7.4339829 10.974002
706 1 23.3639908 9.20399 10.9739944
707 1 23.3639965 7.4339986 12.7439966
708 1 21.5939942 9.2039795 12.7439938
709 1 25.1339932 7.4340077 10.9739952
710 1 26.9039364 9.2040701 10.9739866
711 1 26.903967 7.434032 12.7439833
712 1 25.1339588 9.2040386 12.7439785
713 1 28.6739483 7.4340453 10.9739896
714 1 30.4438858 9.2041159 10.973982
715 1 30.4439278 7.4340568 12.7439728
716 1 28.6738911 9.2041149 12.7439633
717 1 32.213932 7.4340525 10.9739858
718 1 33.9839478 9.2040682 10.9739858
719 1 33.9839592 7.4340406 12.7439718
720 1 32.2139092 9.2040911 12.743968
721 1 0.354 10.9740534 10.9739896
722 1 2.1240456 12.744051 10.9739896
723 1 2.1240571 10.9740726 12.7439728
724 1 0.354 12.7440424 12.7439823
725 1 3.894116 10.9741144 10.973982
726 1 5.6641946 12.7441855 10.9739686
727 1 5.6641608 10.9741602 12.7439499
728 1 3.8941146 12.7441073 12.7439633
729 1 7.4341855 10.9741956 10.9739686
730 1 9.2042933 12.7443075 10.9739408
731 1 9.2041636 10.9741784 12.7439347
732 1 7.4342599 12.7442599 12.7439089
733 1 10.9740792 10.9740716 10.97398
734 1 12.7440777 12.744031 10.9739752
735 1 12.7440453 10.974023 12.743968
736 1 10.9742422 12.7442675 12.7438755
737 1 14.5140095 10.9739524 10.9739934
738 1 16.284008 12.7438927 10.9739934
739 1 16.284008 10.9739524 12.74399
740 1 14.5140391 12.7439766 12.7439614
741 1 18.0540009 10.973919 10.973999
742 1 19.8239918 12.7438927 10.9739934
743 1 19.8239918 10.9739524 12.74399
744 1 18.0540009 12.7439232 12.7439823
745 1 21.5939884 10.9739524 10.9739934
746 1 23.3639221 12.744031 10.9739752
747 1 23.3639546 10.974023 12.743968
748 1 21.5939617 12.7439766 12.7439614
749 1 25.1339207 10.9740716 10.97398
750 1 26.9037056 12.7443075 10.9739408
751 1 26.9038354 10.9741784 12.7439347
752 1 25.1337566 12.7442675 12.7438755
753 1 28.6738148 10.9741956 10.9739686
754 1 30.4438038 12.7441855 10.9739686
755 1 30.4438401 10.9741602 12.7439499
756 1 28.6737404 12.7442599 12.7439089
757 1 32.2138863 10.9741144 10.973982
758 1 33.9839554 12.744051 10.9739896
759 1 33.983944 10.9740726 12.7439728
760 1 32.2138863 12.7441073 12.7439633
761 1 0.354 14.5140162 10.9739944
762 1 2.1240079 16.284008 10.9739952
763 1 2.1240318 14.5140352 12.7439833
764 1 0.354 16.284008 12.7439938
765 1 3.8940704 14.5140648 10.9739866
766 1 5.6640716 16.2840786 10.97398
767 1 5.6641794 14.514163 12.7439347
768 1 3.8940384 16.2840405 12.7439785
769 1 7.4343071 14.5142937 10.9739408
770 1 9.2044907 16.2844639 10.973878
771 1 9.2044125 14.5144129 12.7438221
772 1 7.4342675 16.2842426 12.7438755
773 1 10.9744654 14.5144892 10.973878
774 1 12.7447605 16.2848225 10.9737216
775 1 12.7443581 14.5144167 12.7437544
776 1 10.9746648 16.2846642 12.7436362
777 1 14.5140343 14.513896 10.9739876
778 1 16.2839165 16.2835541 10.974083
779 1 16.2840119 14.513896 12.7439671
780 1 14.5145293 16.2847252 12.7434712
781 1 18.0540009 14.513814 10.9739982
782 1 19.8240834 16.2835541 10.974083
783 1 19.823988 14.513896 12.7439671
784 1 18.0540009 16.2838116 12.7439823
785 1 21.5939656 14.513896 10.9739876
786 1 23.3632412 16.2848225 10.9737216
787 1 23.3636398 14.5144167 12.7437544
788 1 21.5934716 16.2847252 12.7434712
789 1 25.1335354 14.5144892 10.973878
790 1 26.903511 16.2844639 10.973878
791 1 26.9035874 14.5144129 12.7438221
792 1 25.1333351 16.2846642 12.7436362
793 1 28.6736927 14.5142937 10.9739408
794 1 30.4439297 16.2840786 10.97398
795 1 30.4438229 14.514163 12.7439347
796 1 28.6737328 16.2842426 12.7438755
797 1 32.2139282 14.5140648 10.9739866
798 1 33.9839936 16.284008 10.9739952
799 1 33.9839706 14.5140352 12.7439833
800 1 32.2139626 16.2840405 12.7439785
801 1 0.354 0.3539376 14.5139618
802 1 2.1240482 2.1239336 14.513957
803 1 2.1240542 0.3539229 16.2839432
804 1 0.354 2.1239424 16.283947
805 1 3.8941098 0.3538896 14.5139447
806 1 5.6641102 2.1238902 14.5139447
807 1 5.6641445 0.3538556 16.2839069
808 1 3.8940834 2.1239166 16.2839375
809 1 7.434176 0.353814 14.5139084
810 1 9.2040911 2.1238966 14.5139427
811 1 9.2041655 0.3538067 16.283865
812 1 7.4341116 2.1238823 16.2839203
813 1 10.9741316 0.3538424 14.5139008
814 1 12.7440281 2.1239739 14.5139714
815 1 12.7440996 0.3538424 16.2838688