         941
Lattice="  38.7200   0.0000   0.0000   0.0000  38.7200   0.0000   0.0000   0.0000   7.0400 " Time=0.000E+00  Step=0  Energy=-4167.832  Barrier=0.000
Ni     0.88484497    0.88432223    2.64000000       1
Ni     2.64780275    0.88568873    0.87999506       2
Ni     4.40993910    0.88742097    2.64000000       3
Ni     6.16932163    0.88746054    0.88000493       4
Ni     7.92609535    0.88424883    2.64000000       5
Ni     9.68499618    0.88439178    0.87757473       6
Ni    11.44363898    0.88352643    2.64000000       7
Ni    13.19975865    0.88645349    0.88005861       8
Ni    16.71824108    0.88466888    0.88000198       9
Ni    14.95787560    0.88636723    2.64000000      10
Ni    18.47871896    0.88348938    2.64000000      11
Ni     0.88494986    2.64578891    0.87991023      12
Ni     0.88536722    4.40651762    2.64000000      13
Ni     4.41143925    2.64972009    0.88000303      14
Ni     2.64849208    4.40796999    0.87953668      15
Ni     2.64780046    2.64696492    2.64000000      16
Ni     4.41018511    4.40934210    2.64000000      17
Ni     6.17627823    4.41454725    0.88081198      18
Ni     6.17439266    2.65343292    2.64000000      19
Ni     7.93157689    2.65213720    0.88069590      20
Ni     7.94214310    4.42172709    2.64000000      21
Ni    11.44131468    2.65112611    0.88092896      22
Ni     9.68963605    4.42193776    0.89312656      23
Ni     9.68659296    2.63779049    2.64000000      24
Ni    11.43469323    4.42213423    2.64000000      25
Ni    13.19948901    4.41261715    0.88112426      26
Ni    13.19689711    2.65187505    2.64000000      27
Ni    14.95826624    2.64763662    0.88005515      28
Ni    16.72026840    4.40645868    0.87949908      29
Ni    14.96253381    4.40718092    2.64000000      30
Ni    16.71944538    2.64517224    2.64000000      31
Ni    18.47907755    2.64455854    0.87990036      32
Ni    18.47915062    4.40592582    2.64000000      33
Ni     0.88522772    6.16629626    0.88022282      34
Ni     4.41231503    6.17043783    0.87740680      35
Ni     2.64985344    6.16799040    2.64000000      36
Ni     6.16488435    6.17281575    2.64000000      37
Ni     7.94838349    6.17495548    0.89506231      38
Ni    11.43790583    6.17536130    0.89587632      39
NiV   13.23309157   18.48000000    4.40000000      40
Ni    13.21727643    6.17285940    2.64000000      41
Ni    14.96375335    6.16999940    0.87724449      42
Ni    16.72038473    6.16824475    2.64000000      43
Ni    18.47967694    6.16758278    0.88025417      44
Ni     0.88554953    7.92526462    2.64000000      45
Ni     2.64934290    7.92698966    0.87951159      46
Ni     4.41242601    7.93019604    2.64000000      47
Ni     6.18116594    7.93004901    0.88116866      48
Ni     7.95156260    7.92536949    2.64000000      49
Ni     9.69937697    7.92986907    0.89325353      50
Ni    11.44719771    7.93147348    2.64000000      51
Ni    13.20857555    7.93512666    0.88082414      52
Ni    16.72239447    7.93070408    0.87950415      53
Ni    14.96772019    7.93462610    2.64000000      54
Ni    18.47942469    7.92962234    2.64000000      55
Ni     0.88518606    9.68377961    0.87990076      56
Ni     0.88496299   11.44210381    2.64000000      57
Ni     4.41527929    9.68624680    0.88006449      58
Ni     2.64894525   11.44238300    0.88000385      59
Ni     2.64905934    9.68512391    2.64000000      60
Ni     4.41371879   11.44342906    2.64000000      61
Ni     6.17753922   11.44786252    0.88009875      62
Ni     6.18264177    9.68704673    2.64000000      63
Ni     7.94420122    9.69401054    0.88109907      64
Ni     7.94069179   11.45730462    2.64000000      65
Ni    11.46131088    9.70264524    0.88056387      66
Ni     9.70653799   11.46388832    0.87745857      67
Ni     9.70411073    9.71331437    2.64000000      68
Ni    11.47093172   11.47080574    2.64000000      69
Ni    13.22942441   11.47208127    0.87996923      70
Ni    13.21656192    9.70169290    2.64000000      71
Ni    14.97158668    9.70042642    0.88000478      72
Ni    16.73243346   11.46505710    0.87998777      73
Ni    14.98462562   11.47274216    2.64000000      74
Ni    16.72459329    9.69496101    2.64000000      75
Ni    18.47970308    9.69142678    0.87988251      76
NiV   18.48000000   11.45140102    2.64000000      77
Ni     0.88472232   13.20058576    0.88000164      78
Ni     4.41015815   13.20242980    0.88001647      79
Ni     2.64756936   13.20073204    2.64000000      80
Ni     6.17301678   13.20661977    2.64000000      81
Ni     7.93857044   13.21236045    0.87951127      82
Ni    11.47410597   13.23047762    0.87956732      83
Ni     9.70645129   13.22009742    2.64000000      84
Ni    13.23936849   13.23897820    2.64000000      85
NiV   14.99952054   13.24395097    0.88000000      86
NiV   16.75454134   13.24254051    2.64000000      87
NiV   18.48000000   13.23309157    0.88000000      88
Ni     0.88331589   16.71957830    0.88000150      89
Ni     0.88408026   14.95979827    2.64000000      90
Ni     2.64582548   14.96020980    0.88000463      91
Ni     4.40606438   16.72066962    0.87997776      92
Ni     4.40747065   14.96161071    2.64000000      93
Ni     2.64461170   16.71996734    2.64000000      94
Ni     6.16991484   14.96370696    0.87990032      95
Ni     6.16795187   16.72155715    2.64000000      96
Ni     7.93049117   16.72289694    0.88008547      97
Ni     7.93415574   14.96686125    2.64000000      98
Ni     9.70207658   14.97385376    0.88024331      99
Ni    11.46552262   16.73340653    0.88008454     100
Ni    11.47435127   14.98610459    2.64000000     101
Ni     9.69481765   16.72517370    2.64000000     102
NiV   13.24395097   14.99952054    0.88000000     103
NiV   13.24254051   16.75454134    2.64000000     104
NiV   16.75857422   14.99837258    0.88000000     105
NiV   14.99837258   16.75857422    0.88000000     106
NiV   15.00767448   15.00767448    2.64000000     107
Ni     0.88276288   18.47949956    2.64000000     108
Ni     2.64401998   18.47965276    0.87999438     109
Ni     4.40546541   18.47983472    2.64000000     110
Ni     6.16723136   18.48002895    0.88002466     111
Ni     7.92937617   18.48015009    2.64000000     112
Ni     9.69125718   18.48012112    0.87998774     113
NiV   11.45140102   18.48000000    2.64000000     114
NiV   13.23309157   18.48000000    0.88000000     115
Ni     0.88505408    0.88449612    6.16000000     116
Ni     2.64780275    0.88568873    4.40000494     117
Ni     4.40943364    0.88690694    6.16000000     118
Ni     6.16932163    0.88746054    4.39999507     119
Ni     7.92779758    0.88737838    6.16000000     120
Ni     9.68499618    0.88439178    4.40242527     121
Ni    11.44200338    0.88680102    6.16000000     122
Ni    13.19975865    0.88645349    4.39994139     123
Ni    16.71824108    0.88466888    4.39999802     124
Ni    14.95846483    0.88576269    6.16000000     125
Ni    18.47848345    0.88368083    6.16000000     126
Ni     0.88494986    2.64578891    4.40008977     127
Ni     0.88477861    4.40638382    6.16000000     128
Ni     4.41143925    2.64972009    4.39999697     129
Ni     2.64849208    4.40796999    4.40046332     130
Ni     2.64858385    2.64754617    6.16000000     131
Ni     4.41353545    4.41112925    6.16000000     132
Ni     6.17627823    4.41454725    4.39918802     133
Ni     6.17283375    2.65187748    6.16000000     134
Ni     7.93157689    2.65213720    4.39930410     135
Ni     7.93699793    4.41724548    6.16000000     136
Ni    11.44131468    2.65112611    4.39907104     137
Ni     9.68963605    4.42193776    4.38687344     138
Ni     9.68680760    2.65655577    6.16000000     139
Ni    11.44161388    4.41608044    6.16000000     140
Ni    13.19948901    4.41261715    4.39887574     141
Ni    13.19882682    2.64995924    6.16000000     142
Ni    14.95826624    2.64763662    4.39994485     143
Ni    16.72026840    4.40645868    4.40050092     144
Ni    14.95891275    4.40897678    6.16000000     145
Ni    16.71857421    2.64579146    6.16000000     146
Ni    18.47907755    2.64455854    4.40009964     147
Ni    18.47980186    4.40576255    6.16000000     148
Ni     0.88522772    6.16629626    4.39977718     149
Ni     4.41231503    6.17043783    4.40259320     150
Ni     2.64813067    6.16800954    6.16000000     151
Ni     6.18477586    6.17314130    6.16000000     152
Ni     7.94838349    6.17495548    4.38493769     153
Ni    11.43790583    6.17536130    4.38412368     154
Ni     9.69434615    6.17603908    6.16000000     155
Ni    13.19676680    6.17271020    6.16000000     156
Ni    14.96375335    6.16999940    4.40275551     157
Ni    16.72228259    6.16819758    6.16000000     158
Ni    18.47967694    6.16758278    4.39974583     159
Ni     0.88494161    7.92541131    6.16000000     160
Ni     2.64934290    7.92698966    4.40048841     161
Ni     4.41603655    7.92848340    6.16000000     162
Ni     6.18116594    7.93004901    4.39883134     163
Ni     7.94413135    7.93206108    6.16000000     164
Ni     9.69937697    7.92986907    4.38674647     165
Ni    11.45193868    7.93531828    6.16000000     166
Ni    13.20857555    7.93512666    4.39917586     167
Ni    16.72239447    7.93070408    4.40049585     168
Ni    14.96432379    7.93277269    6.16000000     169
Ni    18.48006396    7.92975297    6.16000000     170
Ni     0.88518606    9.68377961    4.40009924     171
Ni     0.88519955   11.44191723    6.16000000     172
Ni     4.41527929    9.68624680    4.39993551     173
Ni     2.64894525   11.44238300    4.39999615     174
Ni     2.64993698    9.68452560    6.16000000     175
Ni     4.41310347   11.44406749    6.16000000     176
Ni     6.17753922   11.44786252    4.39990125     177
Ni     6.18058387    9.68910468    6.16000000     178
Ni     7.94420122    9.69401054    4.39890093     179
Ni     7.94233241   11.45390179    6.16000000     180
Ni    11.46131088    9.70264524    4.39943613     181
Ni     9.70653799   11.46388832    4.40254143     182
Ni     9.70361370    9.69429310    6.16000000     183
Ni    11.46924100   11.46779862    6.16000000     184
Ni    13.22942441   11.47208127    4.40003077     185
Ni    13.21801803    9.70307345    6.16000000     186
Ni    14.97158668    9.70042642    4.39999522     187
Ni    16.73243346   11.46505710    4.40001223     188
Ni    14.98504088   11.47317985    6.16000000     189
Ni    16.72383562    9.69441400    6.16000000     190
Ni    18.47970308    9.69142678    4.40011749     191
NiV   18.48000000   11.45140102    6.16000000     192
Ni     0.88472232   13.20058576    4.39999836     193
Ni     4.41015815   13.20242980    4.39998353     194
Ni     2.64737168   13.20093651    6.16000000     195
Ni     6.17359352   13.20577777    6.16000000     196
Ni     7.93857044   13.21236045    4.40048873     197
Ni    11.47410597   13.23047762    4.40043268     198
Ni     9.70644033   13.22186743    6.16000000     199
Ni    13.23890070   13.23839744    6.16000000     200
NiV   14.99952054   13.24395097    4.40000000     201
NiV   16.75454134   13.24254051    6.16000000     202
NiV   18.48000000   13.23309157    4.40000000     203
Ni     0.88331589   16.71957830    4.39999850     204
Ni     0.88401653   14.95986363    6.16000000     205
Ni     2.64582548   14.96020980    4.39999537     206
Ni     4.40606438   16.72066962    4.40002224     207
Ni     2.64466792   16.71989839    6.16000000     208
Ni     4.40765138   14.96137772    6.16000000     209
Ni     6.16991484   14.96370696    4.40009968     210
Ni     6.16787446   16.72174513    6.16000000     211
Ni     7.93049117   16.72289694    4.39991453     212
Ni     7.93400417   14.96747695    6.16000000     213
Ni     9.70207658   14.97385376    4.39975669     214
Ni     9.69484024   16.72508904    6.16000000     215
Ni    11.46552262   16.73340653    4.39991546     216
Ni    11.47449973   14.98664954    6.16000000     217
NiV   13.24254051   16.75454134    6.16000000     218
NiV   13.24395097   14.99952054    4.40000000     219
NiV   16.75857422   14.99837258    4.40000000     220
NiV   14.99837258   16.75857422    4.40000000     221
NiV   15.00767448   15.00767448    6.16000000     222
Ni     0.88278044   18.47947842    6.16000000     223
Ni     2.64401998   18.47965276    4.40000562     224
Ni     4.40543577   18.47989165    6.16000000     225
Ni     6.16723136   18.48002895    4.39997534     226
Ni     7.92939136   18.48007971    6.16000000     227
NiV   11.45140102   18.48000000    6.16000000     228
Ni     9.69125718   18.48012112    4.40001226     229
Ni     0.88249923   20.23933763    0.87999850     230
Ni     4.40554887   20.23893076    0.88000670     231
Ni     2.64390305   20.23922168    2.64000000     232
Ni     6.16761458   20.23835868    2.64000000     233
Ni     7.93033974   20.23731582    0.87999063     234
Ni    11.46547478   20.22674868    0.87999960     235
Ni     9.69476629   20.23510885    2.64000000     236
NiV   13.24254051   20.20545866    2.64000000     237
NiV   14.99837258   20.20142578    0.88000000     238
Ni     0.88274149   23.75844096    0.88000041     239
Ni     0.88249810   21.99900650    2.64000000     240
Ni     2.64422112   21.99857040    0.88000192     241
Ni     4.40780079   23.75590807    0.87999885     242
Ni     4.40633664   21.99767661    2.64000000     243
Ni     2.64495930   23.75758808    2.64000000     244
Ni     6.16921644   21.99605322    0.87999615     245
Ni     6.17184169   23.75292034    2.64000000     246
Ni     7.93790487   23.74769543    0.88000088     247
Ni     7.93372928   21.99299206    2.64000000     248
Ni     9.70186543   21.98644963    0.88000025     249
Ni    11.47385387   23.72988328    0.88000007     250
Ni    11.47427999   21.97387819    2.64000000     251
Ni     9.70605478   23.73945308    2.64000000     252
NiV   13.24395097   21.96047946    0.88000000     253
Ni    13.23915929   23.72120211    2.64000000     254
NiV   16.75857422   21.96162742    0.88000000     255
NiV   14.99952054   23.71604903    0.88000000     256
NiV   15.00767448   21.95232552    2.64000000     257
NiV   16.75454134   23.71745949    2.64000000     258
NiV   18.48000000   23.72690843    0.88000000     259
Ni     0.88319190   25.51762627    2.64000000     260
Ni     2.64600213   25.51628830    0.87999920     261
Ni     4.40957667   25.51378082    2.64000000     262
Ni     6.17431082   25.50970556    0.88000085     263
Ni     7.94014414   25.50385632    2.64000000     264
Ni     9.70593811   25.49702298    0.88000033     265
Ni    11.47005591   25.49076279    2.64000000     266
Ni    13.23075982   25.48677914    0.88000032     267
Ni    16.73343061   25.49475585    0.87999965     268
Ni    14.98654608   25.48611166    2.64000000     269
NiV   18.48000000   25.50859898    2.64000000     270
Ni     0.88374384   27.27667479    0.88000035     271
Ni     4.41094190   27.27189749    0.87999902     272
Ni     2.64704228   27.27491867    2.64000000     273
Ni     6.17539369   27.26764628    2.64000000     274
Ni     7.93978111   27.26268128    0.88000033     275
Ni    11.46393876   27.25502701    0.88000036     276
Ni     9.70303626   27.25805007    2.64000000     277
Ni    13.22136631   27.25478023    2.64000000     278
Ni    14.97418944   27.25883874    0.87999892     279
Ni    16.72533074   27.26581230    2.64000000     280
Ni    18.48008436   27.26925885    0.88000034     281
Ni     0.88450684   30.79557428    0.87999864     282
Ni     0.88422847   29.03586487    2.64000000     283
Ni     2.64769056   29.03394016    0.88000176     284
Ni     4.41069450   30.79129552    0.88000601     285
Ni     4.41132780   29.03094970    2.64000000     286
Ni     2.64774388   30.79380495    2.64000000     287
Ni     6.17481239   29.02734090    0.87999659     288
Ni     6.17299063   30.78866571    2.64000000     289
Ni     7.93413208   30.78667016    0.87999225     290
Ni     7.93747824   29.02385376    2.64000000     291
Ni     9.69851647   29.02142731    0.87999872     292
Ni    11.45142628   30.78695465    0.87999236     293
Ni    11.45720913   29.02096320    2.64000000     294
Ni     9.69365776   30.78595059    2.64000000     295
Ni    13.21321699   29.02312153    0.87999679     296
Ni    13.20801325   30.78938683    2.64000000     297
Ni    16.72315644   29.03062513    0.88000165     298
Ni    14.96461723   30.79206793    0.88000608     299
Ni    14.96772914   29.02724042    2.64000000     300
Ni    16.72197669   30.79380078    2.64000000     301
Ni    18.47988366   30.79438442    0.87999857     302
Ni    18.48004103   29.03166274    2.64000000     303
Ni     0.88458495   32.55613278    2.64000000     304
Ni     2.64731570   32.55473936    0.87999503     305
Ni     4.40943193   32.55291949    2.64000000     306
Ni     6.17063038   32.55123637    0.88002181     307
Ni     7.93068073   32.55031471    2.64000000     308
Ni     9.68950375   32.55057720    0.87999407     309
Ni    11.44738566   32.55185755    2.64000000     310
Ni    13.20496364   32.55371146    0.88002228     311
Ni    16.72106952   32.55641641    0.87999471     312
Ni    14.96280387   32.55537132    2.64000000     313
Ni    18.47959806   32.55683495    2.64000000     314
Ni     0.88462889   34.31767421    0.88000100     315
Ni     0.88477530   36.07996621    2.64000000     316
Ni     4.40810430   34.31554120    0.87998081     317
Ni     2.64666552   36.07970317    0.88000127     318
Ni     2.64678023   34.31674891    2.64000000     319
Ni     4.40732680   36.07890816    2.64000000     320
Ni     6.16712549   36.07827070    0.87991571     321
Ni     6.16849190   34.31462510    2.64000000     322
Ni     7.92789443   34.31422557    0.88007662     323
Ni     7.92625912   36.07826642    2.64000000     324
Ni    11.44486242   34.31571275    0.88007792     325
Ni     9.68490763   36.07824746    0.88021125     326
Ni     9.68657446   34.31466050    2.64000000     327
Ni    11.44339778   36.07912698    2.64000000     328
Ni    13.20197720   36.07967750    0.87990962     329
Ni    13.20309975   34.31700499    2.64000000     330
Ni    14.96157036   34.31801474    0.87997922     331
Ni    16.71934559   36.08106766    0.88000352     332
Ni    14.96060052   36.08044721    2.64000000     333
Ni    16.72025426   34.31875494    2.64000000     334
Ni    18.47916180   34.31905171    0.88000142     335
Ni    18.47865865   36.08101843    2.64000000     336
Ni     0.88490297   37.84237647    0.88000019     337
Ni     4.40792168   37.84309532    0.87999800     338
Ni     2.64719808   37.84305704    2.64000000     339
Ni     6.16690053   37.84206642    2.64000000     340
Ni     7.92578542   37.84167245    0.87957254     341
Ni    11.44290656   37.84174092    0.87955664     342
Ni     9.68438780   37.84228050    2.64000000     343
Ni    13.20135706   37.84219201    2.64000000     344
Ni    14.95935396   37.84330936    0.88000904     345
Ni    16.71841491   37.84326891    2.64000000     346
Ni    18.47842363   37.84250799    0.88000105     347
Ni     0.88249923   20.23933763    4.40000150     348
Ni     4.40554887   20.23893076    4.39999330     349
Ni     2.64389258   20.23923924    6.16000000     350
Ni     6.16762442   20.23832955    6.16000000     351
Ni     7.93033974   20.23731582    4.40000937     352
Ni    11.46547478   20.22674868    4.40000040     353
Ni     9.69476218   20.23511213    6.16000000     354
NiV   13.24254051   20.20545866    6.16000000     355
NiV   14.99837258   20.20142578    4.40000000     356
Ni     0.88274149   23.75844096    4.39999959     357
Ni     0.88249443   21.99901180    6.16000000     358
Ni     2.64422112   21.99857040    4.39999808     359
Ni     4.40780079   23.75590807    4.40000115     360
Ni     4.40634117   21.99766630    6.16000000     361
Ni     2.64496089   23.75758404    6.16000000     362
Ni     6.16921644   21.99605322    4.40000385     363
Ni     6.17184052   23.75292418    6.16000000     364
Ni     7.93790487   23.74769543    4.39999912     365
Ni     7.93372719   21.99299859    6.16000000     366
Ni     9.70186543   21.98644963    4.39999975     367
Ni    11.47385387   23.72988328    4.39999993     368
Ni    11.47427966   21.97387824    6.16000000     369
Ni     9.70605500   23.73945356    6.16000000     370
NiV   13.24395097   21.96047946    4.40000000     371
Ni    13.23915913   23.72120216    6.16000000     372
NiV   16.75857422   21.96162742    4.40000000     373
NiV   14.99952054   23.71604903    4.40000000     374
NiV   15.00767448   21.95232552    6.16000000     375
NiV   16.75454134   23.71745949    6.16000000     376
NiV   18.48000000   23.72690843    4.40000000     377
Ni     0.88319309   25.51762610    6.16000000     378
Ni     2.64600213   25.51628830    4.40000080     379
Ni     4.40957570   25.51378118    6.16000000     380
Ni     6.17431082   25.50970556    4.39999915     381
Ni     7.94014430   25.50385576    6.16000000     382
Ni     9.70593811   25.49702298    4.39999967     383
Ni    11.47005598   25.49076269    6.16000000     384
Ni    13.23075982   25.48677914    4.39999968     385
Ni    16.73343061   25.49475585    4.40000035     386
Ni    14.98654630   25.48611070    6.16000000     387
NiV   18.48000000   25.50859898    6.16000000     388
Ni     0.88374384   27.27667479    4.39999965     389
Ni     4.41094190   27.27189749    4.40000098     390
Ni     2.64704344   27.27492230    6.16000000     391
Ni     6.17539325   27.26764335    6.16000000     392
Ni     7.93978111   27.26268128    4.39999967     393
Ni    11.46393876   27.25502701    4.39999964     394
Ni     9.70303630   27.25804833    6.16000000     395
Ni    13.22136691   27.25477791    6.16000000     396
Ni    14.97418944   27.25883874    4.40000108     397
Ni    16.72532948   27.26581507    6.16000000     398
Ni    18.48008436   27.26925885    4.39999966     399
Ni     0.88450684   30.79557428    4.40000136     400
Ni     0.88422534   29.03586034    6.16000000     401
Ni     2.64769056   29.03394016    4.39999824     402
Ni     4.41069450   30.79129552    4.39999399     403
Ni     4.41133134   29.03095840    6.16000000     404
Ni     2.64773506   30.79378967    6.16000000     405
Ni     6.17481239   29.02734090    4.40000341     406
Ni     6.17299782   30.78869028    6.16000000     407
Ni     7.93413208   30.78667016    4.40000775     408
Ni     7.93747793   29.02385068    6.16000000     409
Ni     9.69851647   29.02142731    4.40000128     410
Ni    11.45142628   30.78695465    4.40000764     411
Ni    11.45720965   29.02096025    6.16000000     412
Ni     9.69365787   30.78595784    6.16000000     413
Ni    13.21321699   29.02312153    4.40000321     414
Ni    13.20800569   30.78941143    6.16000000     415
Ni    16.72315644   29.03062513    4.39999835     416
Ni    14.96461723   30.79206793    4.39999392     417
Ni    14.96772563   29.02724923    6.16000000     418
Ni    16.72198607   30.79378482    6.16000000     419
Ni    18.47988366   30.79438442    4.40000143     420
Ni    18.48004426   29.03165783    6.16000000     421
Ni     0.88460035   32.55615118    6.16000000     422
Ni     2.64731570   32.55473936    4.40000497     423
Ni     4.40940711   32.55286986    6.16000000     424
Ni     6.17063038   32.55123637    4.39997819     425
Ni     7.93069072   32.55037193    6.16000000     426
Ni     9.68950375   32.55057720    4.40000593     427
Ni    11.44737474   32.55191512    6.16000000     428
Ni    13.20496364   32.55371146    4.39997772     429
Ni    16.72106952   32.55641641    4.40000529     430
Ni    14.96283023   32.55531930    6.16000000     431
Ni    18.47958151   32.55685508    6.16000000     432
Ni     0.88462889   34.31767421    4.39999900     433
Ni     0.88471983   36.07990996    6.16000000     434
Ni     4.40810430   34.31554120    4.40001919     435
Ni     2.64666552   36.07970317    4.39999873     436
Ni     2.64683050   34.31680894    6.16000000     437
Ni     4.40749405   36.07911132    6.16000000     438
Ni     6.16712549   36.07827070    4.40008429     439
Ni     6.16842831   34.31445926    6.16000000     440
Ni     7.92789443   34.31422557    4.39992338     441
Ni     7.92613236   36.07771635    6.16000000     442
Ni    11.44486242   34.31571275    4.39992208     443
Ni     9.68490763   36.07824746    4.39978875     444
Ni     9.68657401   34.31472145    6.16000000     445
Ni    11.44353686   36.07856380    6.16000000     446
Ni    13.20197720   36.07967750    4.40009038     447
Ni    13.20316775   34.31683254    6.16000000     448
Ni    14.96157036   34.31801474    4.40002078     449
Ni    16.71934559   36.08106766    4.39999648     450
Ni    14.96042646   36.08066770    6.16000000     451
Ni    16.72020092   34.31882035    6.16000000     452
Ni    18.47916180   34.31905171    4.39999858     453
Ni    18.47872059   36.08095467    6.16000000     454
Ni     0.88490297   37.84237647    4.39999981     455
Ni     4.40792168   37.84309532    4.40000200     456
Ni     2.64702890   37.84288503    6.16000000     457
Ni     6.16745511   37.84281345    6.16000000     458
Ni     7.92578542   37.84167245    4.40042746     459
Ni     9.68440999   37.84064767    6.16000000     460
Ni    11.44290656   37.84174092    4.40044336     461
Ni    13.20079696   37.84299322    6.16000000     462
Ni    16.71860597   37.84307163    6.16000000     463
Ni    14.95935396   37.84330936    4.39999096     464
Ni    18.47842363   37.84250799    4.39999895     465
Ni    20.23867868    0.88303472    0.87997778     466
Ni    23.75791044    0.88298751    0.88000708     467
Ni    21.99841271    0.88288590    2.64000000     468
Ni    25.51711297    0.88330703    2.64000000     469
Ni    27.27614784    0.88371764    0.87999878     470
Ni    30.79493698    0.88410920    0.87999897     471
Ni    29.03529945    0.88403467    2.64000000     472
Ni    32.55538325    0.88393216    2.64000000     473
Ni    34.31679331    0.88365736    0.88000623     474
Ni    36.07908521    0.88352088    2.64000000     475
Ni    37.84190102    0.88370477    0.87998028     476
Ni    20.23855282    4.40590118    0.88009296     477
Ni    20.23865113    2.64435041    2.64000000     478
Ni    21.99812498    2.64453667    0.88002629     479
Ni    23.75558580    4.40797640    0.87999028     480
Ni    21.99735332    4.40660689    2.64000000     481
Ni    23.75717841    2.64516647    2.64000000     482
Ni    25.51588023    2.64609775    0.87999591     483
Ni    25.51347959    4.40964847    2.64000000     484
Ni    27.27160314    4.41090769    0.88000057     485
Ni    27.27450918    2.64701320    2.64000000     486
Ni    29.03350335    2.64751792    0.88000082     487
Ni    30.79094261    4.41040344    0.88000043     488
Ni    29.03064352    4.41117868    2.64000000     489
Ni    30.79329653    2.64739102    2.64000000     490
Ni    32.55411133    2.64672697    0.87999640     491
Ni    32.55245906    4.40894261    2.64000000     492
Ni    36.07855911    2.64521730    0.88002321     493
Ni    34.31493498    4.40734735    0.87999168     494
Ni    34.31592060    2.64585987    2.64000000     495
Ni    36.07802509    4.40616659    2.64000000     496
Ni    37.84152052    4.40582024    0.88008240     497
Ni    37.84176265    2.64516494    2.64000000     498
Ni    20.23806006    6.16793175    2.64000000     499
Ni    21.99578208    6.16943951    0.87999175     500
Ni    23.75270425    6.17197156    2.64000000     501
Ni    25.50950905    6.17435691    0.87999842     502
Ni    27.26745322    6.17535444    2.64000000     503
Ni    29.02714210    6.17467860    0.88000059     504
Ni    30.78845857    6.17274759    2.64000000     505
Ni    32.55097643    6.17024186    0.87999856     506
Ni    36.07776866    6.16623846    0.87999414     507
Ni    34.31420421    6.16787861    2.64000000     508
Ni    37.84142968    6.16567243    2.64000000     509
Ni    20.23704209    7.93057458    0.88009067     510
Ni    23.74756771    7.93798724    0.87998954     511
Ni    21.99285579    7.93387860    2.64000000     512
Ni    25.50374509    7.94016782    2.64000000     513
Ni    27.26257727    7.93973939    0.88000050     514
Ni    30.78655682    7.93391566    0.88000044     515
Ni    29.02374576    7.93735755    2.64000000     516
Ni    32.55022150    7.93035100    2.64000000     517
Ni    34.31409032    7.92741134    0.87999175     518
Ni    36.07781423    7.92552432    2.64000000     519
Ni    37.84149588    7.92482185    0.88008421     520
Ni    20.22670738   11.46547806    0.88000676     521
Ni    20.23484567    9.69480614    2.64000000     522
Ni    21.98636384    9.70193220    0.88002855     523
Ni    23.72986944   11.47387398    0.88000408     524
Ni    21.97382521   11.47428323    2.64000000     525
Ni    23.73941411    9.70610325    2.64000000     526
Ni    25.49697982    9.70594781    0.87999489     527
Ni    25.49076836   11.47006028    2.64000000     528
Ni    27.25503762   11.46390279    0.87999893     529
Ni    27.25801012    9.70299499    2.64000000     530
Ni    29.02139324    9.69840820    0.88000092     531
Ni    30.78697840   11.45125818    0.87999899     532
Ni    29.02097952   11.45711550    2.64000000     533
Ni    30.78592412    9.69346408    2.64000000     534
Ni    32.55055108    9.68920463    0.87999642     535
Ni    32.55191237   11.44712060    2.64000000     536
Ni    36.07828101    9.68430207    0.88002433     537
Ni    34.31575850   11.44448235    0.88000662     538
Ni    34.31466686    9.68614620    2.64000000     539
Ni    36.07895540   11.44291658    2.64000000     540
Ni    37.84188364   11.44216787    0.87997769     541
Ni    37.84173521    9.68351765    2.64000000     542
NiV   20.20545866   13.24254051    2.64000000     543
NiV   21.96047946   13.24395097    0.88000000     544
Ni    23.72120534   13.23916156    2.64000000     545
Ni    25.48680358   13.23076134    0.88000083     546
Ni    27.25482053   13.22134082    2.64000000     547
Ni    29.02316957   13.21314648    0.87999932     548
Ni    30.78944352   13.20788295    2.64000000     549
Ni    32.55374474   13.20476874    0.88000188     550
Ni    36.07957286   13.20167065    0.87999445     551
Ni    34.31692720   13.20286156    2.64000000     552