         941
Lattice="  38.7200   0.0000   0.0000   0.0000  38.7200   0.0000   0.0000   0.0000   7.0400 " Time=0.000E+00  Step=0  Energy=-4167.831  Barrier=0.000
Ni     2.63918504    0.87886996    0.88087152       1
Ni     6.16440503    0.88289384    0.87953661       2
Ni     9.68346753    0.88280062    0.88008563       3
Ni    13.20165485    0.88194927    0.87999086       4
Ni    16.72044194    0.88142563    0.88000053       5
Ni     0.87886996    2.63918504    0.88087152       6
Ni     4.40301293    2.64310225    0.88002340       7
Ni     2.64310225    4.40301293    0.88002340       8
Ni     7.92571912    2.64610786    0.87990915       9
Ni     6.16704009    4.40751137    0.87999969      10
Ni    11.44374407    2.64507413    0.88002401      11
Ni     9.68765974    4.40945751    0.87997978      12
Ni    14.96145273    2.64340313    0.87999618      13
Ni    13.20407134    4.40691091    0.88000644      14
Ni    18.48000000    2.64281744    0.88000082      15
Ni    16.72106115    4.40472897    0.87999890      16
Ni     0.88289384    6.16440503    0.87953661      17
Ni     4.40751137    6.16704009    0.87999969      18
Ni     2.64610786    7.92571912    0.87990915      19
Ni     7.93139311    6.17229486    0.88000132      20
Ni     6.17229486    7.93139311    0.88000132      21
Ni    11.44986650    6.17295828    0.87999490      22
Ni     9.69632526    7.93771462    0.88000094      23
Ni    14.96392800    6.16839539    0.88000184      24
Ni    13.21193766    7.93671129    0.87999862      25
Ni    18.48000000    6.16641500    0.87999918      26
Ni    16.72271220    7.92961589    0.88000038      27
Ni     0.88280062    9.68346753    0.88008563      28
Ni     4.40945751    9.68765974    0.87997978      29
Ni     2.64507413   11.44374407    0.88002401      30
Ni     7.93771462    9.69632526    0.88000094      31
Ni     6.17295828   11.44986650    0.87999490      32
Ni    11.46214336    9.70420189    0.88000041      33
Ni     9.70420189   11.46214336    0.88000041      34
Ni    14.97324681    9.70086880    0.87999954      35
Ni    13.22930452   11.47239113    0.88000012      36
Ni    18.48000000    9.69062481    0.88000030      37
Ni    16.73298674   11.46472834    0.87999994      38
Ni     0.88194927   13.20165485    0.87999086      39
Ni     4.40691091   13.20407134    0.88000644      40
Ni     2.64340313   14.96145273    0.87999618      41
Ni     7.93671129   13.21193766    0.87999862      42
Ni     6.16839539   14.96392800    0.88000184      43
Ni    11.47239113   13.22930452    0.88000012      44
Ni     9.70086880   14.97324681    0.87999954      45
NiV   14.99847405   13.24277821    0.88000009      46
NiV   13.24277821   14.99847405    0.88000009      47
NiV   18.48000000   13.23254306    0.87999968      48
NiV   16.75738998   14.99714448    0.88000005      49
Ni     0.88142563   16.72044194    0.88000053      50
Ni     4.40472897   16.72106115    0.87999890      51
Ni     2.64281744   18.48000000    0.88000082      52
Ni     7.92961589   16.72271220    0.88000038      53
Ni     6.16641500   18.48000000    0.87999918      54
Ni    11.46472834   16.73298674    0.87999994      55
Ni     9.69062481   18.48000000    0.88000030      56
NiV   14.99714448   16.75738998    0.88000005      57
NiV   13.23254306   18.48000000    0.87999968      58
NiV   13.24154882   16.75392239    6.16000000      59
NiV   11.45085595   18.48000000    6.16000000      60
Ni     0.87104247    0.87104247    2.64000000      61
Ni     4.40492910    0.88296141    2.64000000      62
Ni     2.63918504    0.87886996    4.39912848      63
Ni     7.92393269    0.88296484    2.64000000      64
Ni     6.16440503    0.88289384    4.40046339      65
Ni    11.44255269    0.88238324    2.64000000      66
Ni     9.68346753    0.88280062    4.39991437      67
Ni    14.96096756    0.88162180    2.64000000      68
Ni    13.20165485    0.88194927    4.40000914      69
Ni    18.48000000    0.88136072    2.64000000      70
Ni    16.72044194    0.88142563    4.39999947      71
Ni     0.88296141    4.40492910    2.64000000      72
Ni     0.87886996    2.63918504    4.39912848      73
Ni     2.63886147    2.63886147    2.64000000      74
Ni     4.40460259    4.40460259    2.64000000      75
Ni     4.40301293    2.64310225    4.39997660      76
Ni     2.64310225    4.40301293    4.39997660      77
Ni     6.16566906    2.64562474    2.64000000      78
Ni     7.92822922    4.40929744    2.64000000      79
Ni     7.92571912    2.64610786    4.40009085      80
Ni     6.16704009    4.40751137    4.40000031      81
Ni     9.68490267    2.64584560    2.64000000      82
Ni    11.44602516    4.40845479    2.64000000      83
Ni    11.44374407    2.64507413    4.39997599      84
Ni     9.68765974    4.40945751    4.40002022      85
Ni    13.20249478    2.64414630    2.64000000      86
Ni    14.96236243    4.40554542    2.64000000      87
Ni    14.96145273    2.64340313    4.40000382      88
Ni    13.20407134    4.40691091    4.39999356      89
Ni    16.72066036    2.64296161    2.64000000      90
Ni    18.48000000    4.40446926    2.64000000      91
Ni    18.48000000    2.64281744    4.39999918      92
Ni    16.72106115    4.40472897    4.40000110      93
Ni     0.88296484    7.92393269    2.64000000      94
Ni     0.88289384    6.16440503    4.40046339      95
Ni     2.64562474    6.16566906    2.64000000      96
Ni     4.40929744    7.92822922    2.64000000      97
Ni     4.40751137    6.16704009    4.40000031      98
Ni     2.64610786    7.92571912    4.40009085      99
Ni     6.16965138    6.16965138    2.64000000     100
Ni     7.93493311    7.93493311    2.64000000     101
Ni     7.93139311    6.17229486    4.39999868     102
Ni     6.17229486    7.93139311    4.39999868     103
Ni     9.69158229    6.17357638    2.64000000     104
Ni    11.45547764    7.93855558    2.64000000     105
Ni    11.44986650    6.17295828    4.40000510     106
Ni     9.69632526    7.93771462    4.39999906     107
Ni    13.20689951    6.17081649    2.64000000     108
Ni    14.96687570    7.93283393    2.64000000     109
Ni    14.96392800    6.16839539    4.39999816     110
Ni    13.21193766    7.93671129    4.40000138     111
Ni    16.72169922    6.16686924    2.64000000     112
Ni    18.48000000    7.92867253    2.64000000     113
Ni    18.48000000    6.16641500    4.40000082     114
Ni    16.72271220    7.92961589    4.39999962     115
Ni     0.88238324   11.44255269    2.64000000     116
Ni     0.88280062    9.68346753    4.39991437     117
Ni     2.64584560    9.68490267    2.64000000     118
Ni     4.40845479   11.44602516    2.64000000     119
Ni     4.40945751    9.68765974    4.40002022     120
Ni     2.64507413   11.44374407    4.39997599     121
Ni     6.17357638    9.69158229    2.64000000     122
Ni     7.93855558   11.45547764    2.64000000     123
Ni     7.93771462    9.69632526    4.39999906     124
Ni     6.17295828   11.44986650    4.40000510     125
Ni     9.70098611    9.70098611    2.64000000     126
Ni    11.46835904   11.46835904    2.64000000     127
Ni    11.46214336    9.70420189    4.39999959     128
Ni     9.70420189   11.46214336    4.39999959     129
Ni    13.21996277    9.70469025    2.64000000     130
Ni    14.98553285   11.47316300    2.64000000     131
Ni    14.97324681    9.70086880    4.40000046     132
Ni    13.22930452   11.47239113    4.39999988     133
Ni    16.72482446    9.69404025    2.64000000     134
NiV   18.48000000   11.45085532    2.64000000     135
Ni    18.48000000    9.69062481    4.39999970     136
Ni    16.73298674   11.46472834    4.40000006     137
Ni     0.88162180   14.96096756    2.64000000     138
Ni     0.88194927   13.20165485    4.40000914     139
Ni     2.64414630   13.20249478    2.64000000     140
Ni     4.40554542   14.96236243    2.64000000     141
Ni     4.40691091   13.20407134    4.39999356     142
Ni     2.64340313   14.96145273    4.40000382     143
Ni     6.17081649   13.20689951    2.64000000     144
Ni     7.93283393   14.96687570    2.64000000     145
Ni     7.93671129   13.21193766    4.40000138     146
Ni     6.16839539   14.96392800    4.39999816     147
Ni     9.70469025   13.21996277    2.64000000     148
Ni    11.47316300   14.98553285    2.64000000     149
Ni    11.47239113   13.22930452    4.39999988     150
Ni     9.70086880   14.97324681    4.40000046     151
Ni    13.23779108   13.23779108    2.64000000     152
NiV   15.00647043   15.00647043    2.64000000     153
NiV   14.99847405   13.24277821    4.39999991     154
NiV   13.24277821   14.99847405    4.39999991     155
NiV   16.75392342   13.24154935    2.64000000     156
Ni     9.69404112   16.72482640    6.16000000     157
NiV   18.48000000   13.23254306    4.40000032     158
NiV   16.75738998   14.99714448    4.39999995     159
Ni     0.88136072   18.48000000    2.64000000     160
Ni     0.88142563   16.72044194    4.39999947     161
Ni     2.64296161   16.72066036    2.64000000     162
Ni     4.40446926   18.48000000    2.64000000     163
Ni     4.40472897   16.72106115    4.40000110     164
Ni     2.64281744   18.48000000    4.39999918     165
Ni     6.16686924   16.72169922    2.64000000     166
Ni     7.92867253   18.48000000    2.64000000     167
Ni     7.92961589   16.72271220    4.39999962     168
Ni     6.16641500   18.48000000    4.40000082     169
Ni     9.69404025   16.72482446    2.64000000     170
NiV   11.45085532   18.48000000    2.64000000     171
Ni    11.46472834   16.73298674    4.40000006     172
Ni     9.69062481   18.48000000    4.39999970     173
NiV   13.24154935   16.75392342    2.64000000     174
Ni     7.92867135   18.48000000    6.16000000     175
NiV   14.99714448   16.75738998    4.39999995     176
NiV   13.23254306   18.48000000    4.40000032     177
Ni     6.16686785   16.72169537    6.16000000     178
Ni     4.40447014   18.48000000    6.16000000     179
Ni     2.64296228   16.72066356    6.16000000     180
Ni     0.88136073   18.48000000    6.16000000     181
Ni     0.87641660    0.87641660    6.16000000     182
Ni     4.40161236    0.88122977    6.16000000     183
Ni     7.92453238    0.88310855    6.16000000     184
Ni    11.44248653    0.88237109    6.16000000     185
Ni    14.96097164    0.88162234    6.16000000     186
Ni    18.48000000    0.88136073    6.16000000     187
Ni     0.88122977    4.40161236    6.16000000     188
Ni     2.64052865    2.64052865    6.16000000     189
Ni     4.40513508    4.40513508    6.16000000     190
Ni     6.16488420    2.64504984    6.16000000     191
Ni     7.92801859    4.40912374    6.16000000     192
Ni     9.68508204    2.64591634    6.16000000     193
Ni    11.44607821    4.40848197    6.16000000     194
Ni    13.20246711    2.64413785    6.16000000     195
Ni    14.96235275    4.40554142    6.16000000     196
Ni    16.72066356    2.64296228    6.16000000     197
Ni    18.48000000    4.40447014    6.16000000     198
Ni     0.88310855    7.92453238    6.16000000     199
Ni     2.64504984    6.16488420    6.16000000     200
Ni     4.40912374    7.92801859    6.16000000     201
Ni     6.16982680    6.16982680    6.16000000     202
Ni     7.93498978    7.93498978    6.16000000     203
Ni     9.69152089    6.17352449    6.16000000     204
Ni    11.45545904    7.93853982    6.16000000     205
Ni    13.20691566    6.17082601    6.16000000     206
Ni    14.96688052    7.93283726    6.16000000     207
Ni    16.72169537    6.16686785    6.16000000     208
Ni    18.48000000    7.92867135    6.16000000     209
Ni     0.88237109   11.44248653    6.16000000     210
Ni     2.64591634    9.68508204    6.16000000     211
Ni     4.40848197   11.44607821    6.16000000     212
Ni     6.17352449    9.69152089    6.16000000     213
Ni     7.93853982   11.45545904    6.16000000     214
Ni     9.70100403    9.70100403    6.16000000     215
Ni    11.46836462   11.46836462    6.16000000     216
Ni    13.21995694    9.70468540    6.16000000     217
Ni    14.98553113   11.47316137    6.16000000     218
Ni    16.72482640    9.69404112    6.16000000     219
NiV   18.48000000   11.45085595    6.16000000     220
Ni     0.88162234   14.96097164    6.16000000     221
Ni     2.64413785   13.20246711    6.16000000     222
Ni     4.40554142   14.96235275    6.16000000     223
Ni     6.17082601   13.20691566    6.16000000     224
Ni     7.93283726   14.96688052    6.16000000     225
Ni     9.70468540   13.21995694    6.16000000     226
Ni    11.47316137   14.98553113    6.16000000     227
Ni    13.23779288   13.23779288    6.16000000     228
NiV   15.00647110   15.00647110    6.16000000     229
NiV   16.75392239   13.24154882    6.16000000     230
Ni     0.88142563   20.23955806    0.88000053     231
Ni     4.40472897   20.23893885    0.87999890     232
Ni     2.64340313   21.99854727    0.87999618     233
Ni     7.92961589   20.23728780    0.88000038     234
Ni     6.16839539   21.99607200    0.88000184     235
Ni    11.46472834   20.22701326    0.87999994     236
Ni     9.70086880   21.98675319    0.87999954     237
NiV   14.99714448   20.20261002    0.88000005     238
NiV   13.24277821   21.96152595    0.88000009     239
Ni    16.72037270   37.84000000    6.16000000     240
NiV   16.75738998   21.96285552    0.88000005     241
Ni     0.88194927   23.75834515    0.87999086     242
Ni     4.40691091   23.75592866    0.88000644     243
Ni     2.64507413   25.51625593    0.88002401     244
Ni     7.93671129   23.74806234    0.87999862     245
Ni     6.17295828   25.51013350    0.87999490     246
Ni    11.47239113   23.73069548    0.88000012     247
Ni     9.70420189   25.49785664    0.88000041     248
NiV   14.99847405   23.71722179    0.88000009     249
Ni    13.22930452   25.48760887    0.88000012     250
NiV   18.48000000   23.72745694    0.87999968     251
Ni    16.73298674   25.49527166    0.87999994     252
Ni     0.88280062   27.27653247    0.88008563     253
Ni     4.40945751   27.27234026    0.87997978     254
Ni     2.64610786   29.03428088    0.87990915     255
Ni     7.93771462   27.26367474    0.88000094     256
Ni     6.17229486   29.02860689    0.88000132     257
Ni    11.46214336   27.25579811    0.88000041     258
Ni     9.69632526   29.02228538    0.88000094     259
Ni    14.97324681   27.25913120    0.87999954     260
Ni    13.21193766   29.02328871    0.87999862     261
Ni    18.48000000   27.26937519    0.88000030     262
Ni    16.72271220   29.03038411    0.88000038     263
Ni     0.88289384   30.79559497    0.87953661     264
Ni     4.40751137   30.79295991    0.87999969     265
Ni     2.64310225   32.55698707    0.88002340     266
Ni     7.93139311   30.78770514    0.88000132     267
Ni     6.16704009   32.55248863    0.87999969     268
Ni    11.44986650   30.78704172    0.87999490     269
Ni     9.68765974   32.55054249    0.87997978     270
Ni    14.96392800   30.79160461    0.88000184     271
Ni    13.20407134   32.55308909    0.88000644     272
Ni    18.48000000   30.79358500    0.87999918     273
Ni    16.72106115   32.55527103    0.87999890     274
Ni     0.87886996   34.32081496    0.88087152     275
Ni     4.40301293   34.31689775    0.88002340     276
Ni     2.63918504   36.08113004    0.88087152     277
Ni     7.92571912   34.31389214    0.87990915     278
Ni     6.16440503   36.07710616    0.87953661     279
Ni    11.44374407   34.31492587    0.88002401     280
Ni     9.68346753   36.07719938    0.88008563     281
Ni    14.96145273   34.31659687    0.87999618     282
Ni    13.20165485   36.07805073    0.87999086     283
Ni    18.48000000   34.31718256    0.88000082     284
Ni    16.72044194   36.07857437    0.88000053     285
Ni     0.87002633   37.84000000    0.89432559     286
Ni     4.40395899   37.84000000    0.87741675     287
Ni     7.92371166   37.84000000    0.88023574     288
Ni    11.44213571   37.84000000    0.87999205     289
Ni    14.96081685   37.84000000    0.87999864     290
Ni    18.48000000   37.84000000    0.88000060     291
Ni     0.88162180   21.99903244    2.64000000     292
Ni     0.88142563   20.23955806    4.39999947     293
Ni     2.64296161   20.23933964    2.64000000     294
Ni     4.40554542   21.99763757    2.64000000     295
Ni     4.40472897   20.23893885    4.40000110     296
Ni     2.64340313   21.99854727    4.40000382     297
Ni     6.16686924   20.23830078    2.64000000     298
Ni     7.93283393   21.99312430    2.64000000     299
Ni     7.92961589   20.23728780    4.39999962     300
Ni     6.16839539   21.99607200    4.39999816     301
Ni     9.69404025   20.23517554    2.64000000     302
Ni    11.47316300   21.97446715    2.64000000     303
Ni    11.46472834   20.22701326    4.40000006     304
Ni     9.70086880   21.98675319    4.40000046     305
NiV   13.24154935   20.20607658    2.64000000     306
NiV   15.00647043   21.95352957    2.64000000     307
NiV   14.99714448   20.20261002    4.39999995     308
NiV   13.24277821   21.96152595    4.39999991     309
Ni    13.20139327   37.84000000    6.16000000     310
Ni     9.68293434   37.84000000    6.16000000     311
Ni     6.16494958   37.84000000    6.16000000     312
NiV   16.75738998   21.96285552    4.39999995     313
Ni     0.88238324   25.51744731    2.64000000     314
Ni     0.88194927   23.75834515    4.40000914     315
Ni     2.64414630   23.75750522    2.64000000     316
Ni     4.40845479   25.51397484    2.64000000     317
Ni     4.40691091   23.75592866    4.39999356     318
Ni     2.64507413   25.51625593    4.39997599     319
Ni     6.17081649   23.75310049    2.64000000     320
Ni     7.93855558   25.50452236    2.64000000     321
Ni     7.93671129   23.74806234    4.40000138     322
Ni     6.17295828   25.51013350    4.40000510     323
Ni     9.70469025   23.74003723    2.64000000     324
Ni    11.46835904   25.49164096    2.64000000     325
Ni    11.47239113   23.73069548    4.39999988     326
Ni     9.70420189   25.49785664    4.39999959     327
Ni    13.23779108   23.72220892    2.64000000     328
Ni    14.98553285   25.48683700    2.64000000     329
NiV   14.99847405   23.71722179    4.39999991     330
Ni    13.22930452   25.48760887    4.39999988     331
NiV   16.75392342   23.71845065    2.64000000     332
NiV   18.48000000   25.50914468    2.64000000     333
NiV   18.48000000   23.72745694    4.40000032     334
Ni    16.73298674   25.49527166    4.40000006     335
Ni     0.88296484   29.03606731    2.64000000     336
Ni     0.88280062   27.27653247    4.39991437     337
Ni     2.64584560   27.27509733    2.64000000     338
Ni     4.40929744   29.03177078    2.64000000     339
Ni     4.40945751   27.27234026    4.40002022     340
Ni     2.64610786   29.03428088    4.40009085     341
Ni     6.17357638   27.26841771    2.64000000     342
Ni     7.93493311   29.02506689    2.64000000     343
Ni     7.93771462   27.26367474    4.39999906     344
Ni     6.17229486   29.02860689    4.39999868     345
Ni     9.70098611   27.25901389    2.64000000     346
Ni    11.45547764   29.02144442    2.64000000     347
Ni    11.46214336   27.25579811    4.39999959     348
Ni     9.69632526   29.02228538    4.39999906     349
Ni    13.21996277   27.25530975    2.64000000     350
Ni    14.96687570   29.02716607    2.64000000     351
Ni    14.97324681   27.25913120    4.40000046     352
Ni    13.21193766   29.02328871    4.40000138     353
Ni    16.72482446   27.26595975    2.64000000     354
Ni    18.48000000   29.03132747    2.64000000     355
Ni    18.48000000   27.26937519    4.39999970     356
Ni    16.72271220   29.03038411    4.39999962     357
Ni     0.88296141   32.55507090    2.64000000     358
Ni     0.88289384   30.79559497    4.40046339     359
Ni     2.64562474   30.79433094    2.64000000     360
Ni     4.40460259   32.55539741    2.64000000     361
Ni     4.40751137   30.79295991    4.40000031     362
Ni     2.64310225   32.55698707    4.39997660     363
Ni     6.16965138   30.79034862    2.64000000     364
Ni     7.92822922   32.55070256    2.64000000     365
Ni     7.93139311   30.78770514    4.39999868     366
Ni     6.16704009   32.55248863    4.40000031     367
Ni     9.69158229   30.78642362    2.64000000     368
Ni    11.44602516   32.55154521    2.64000000     369
Ni    11.44986650   30.78704172    4.40000510     370
Ni     9.68765974   32.55054249    4.40002022     371
Ni    13.20689951   30.78918351    2.64000000     372
Ni    14.96236243   32.55445458    2.64000000     373
Ni    14.96392800   30.79160461    4.39999816     374
Ni    13.20407134   32.55308909    4.39999356     375
Ni    16.72169922   30.79313076    2.64000000     376
Ni    18.48000000   32.55553074    2.64000000     377
Ni    18.48000000   30.79358500    4.40000082     378
Ni    16.72106115   32.55527103    4.40000110     379
Ni     0.87104247   36.08895753    2.64000000     380
Ni     0.87886996   34.32081496    4.39912848     381
Ni     2.63886147   34.32113853    2.64000000     382
Ni     4.40492910   36.07703859    2.64000000     383
Ni     4.40301293   34.31689775    4.39997660     384
Ni     2.63918504   36.08113004    4.39912848     385
Ni     6.16566906   34.31437526    2.64000000     386
Ni     7.92393269   36.07703516    2.64000000     387
Ni     7.92571912   34.31389214    4.40009085     388
Ni     6.16440503   36.07710616    4.40046339     389
Ni     9.68490267   34.31415440    2.64000000     390
Ni    11.44255269   36.07761676    2.64000000     391
Ni    11.44374407   34.31492587    4.39997599     392
Ni     9.68346753   36.07719938    4.39991437     393
Ni    13.20249478   34.31585370    2.64000000     394
Ni    14.96096756   36.07837820    2.64000000     395
Ni    14.96145273   34.31659687    4.40000382     396
Ni    13.20165485   36.07805073    4.40000914     397
Ni    16.72066036   34.31703839    2.64000000     398
Ni    18.48000000   36.07863928    2.64000000     399
Ni    18.48000000   34.31718256    4.39999918     400
Ni    16.72044194   36.07857437    4.39999947     401
Ni     0.87002633   37.84000000    4.38567441     402
Ni     2.65305431   37.84000000    2.64000000     403
Ni     4.40395899   37.84000000    4.40258325     404
Ni     6.16317587   37.84000000    2.64000000     405
Ni     7.92371166   37.84000000    4.39976426     406
Ni     9.68301015   37.84000000    2.64000000     407
Ni    11.44213571   37.84000000    4.40000795     408
Ni    13.20140047   37.84000000    2.64000000     409
Ni    14.96081685   37.84000000    4.40000136     410
Ni    16.72037058   37.84000000    2.64000000     411
Ni    18.48000000   37.84000000    4.39999940     412
Ni     0.88162234   21.99902836    6.16000000     413
Ni     2.64296228   20.23933644    6.16000000     414
Ni     4.40554142   21.99764725    6.16000000     415
Ni     6.16686785   20.23830463    6.16000000     416
Ni     7.93283726   21.99311948    6.16000000     417
Ni     9.69404112   20.23517360    6.16000000     418
Ni    11.47316137   21.97446887    6.16000000     419
NiV   13.24154882   20.20607761    6.16000000     420
NiV   15.00647110   21.95352890    6.16000000     421
Ni     2.63351403   37.84000000    6.16000000     422
Ni    18.48000000   36.07863927    6.16000000     423
Ni     0.88237109   25.51751347    6.16000000     424
Ni     2.64413785   23.75753289    6.16000000     425
Ni     4.40848197   25.51392179    6.16000000     426
Ni     6.17082601   23.75308434    6.16000000     427
Ni     7.93853982   25.50454096    6.16000000     428
Ni     9.70468540   23.74004306    6.16000000     429
Ni    11.46836462   25.49163538    6.16000000     430
Ni    13.23779288   23.72220712    6.16000000     431
Ni    14.98553113   25.48683863    6.16000000     432
NiV   16.75392239   23.71845118    6.16000000     433
NiV   18.48000000   25.50914405    6.16000000     434
Ni     0.88310855   29.03546762    6.16000000     435
Ni     2.64591634   27.27491796    6.16000000     436
Ni     4.40912374   29.03198141    6.16000000     437
Ni     6.17352449   27.26847911    6.16000000     438
Ni     7.93498978   29.02501022    6.16000000     439
Ni     9.70100403   27.25899597    6.16000000     440
Ni    11.45545904   29.02146018    6.16000000     441
Ni    13.21995694   27.25531460    6.16000000     442
Ni    14.96688052   29.02716274    6.16000000     443
Ni    16.72482640   27.26595888    6.16000000     444
Ni    18.48000000   29.03132865    6.16000000     445
Ni     0.88122977   32.55838764    6.16000000     446
Ni     2.64504984   30.79511580    6.16000000     447
Ni     4.40513508   32.55486492    6.16000000     448
Ni     6.16982680   30.79017320    6.16000000     449
Ni     7.92801859   32.55087626    6.16000000     450
Ni     9.69152089   30.78647551    6.16000000     451
Ni    11.44607821   32.55151803    6.16000000     452
Ni    13.20691566   30.78917399    6.16000000     453
Ni    14.96235275   32.55445858    6.16000000     454
Ni    16.72169537   30.79313215    6.16000000     455
Ni    18.48000000   32.55552986    6.16000000     456
Ni     0.87641660   36.08358340    6.16000000     457
Ni     2.64052865   34.31947135    6.16000000     458
Ni     4.40161236   36.07877023    6.16000000     459
Ni     6.16488420   34.31495016    6.16000000     460
Ni     7.92453238   36.07689145    6.16000000     461
Ni     9.68508204   34.31408366    6.16000000     462
Ni    11.44248653   36.07762891    6.16000000     463
Ni    13.20246711   34.31586215    6.16000000     464
Ni    14.96097164   36.07837766    6.16000000     465
Ni    16.72066356   34.31703772    6.16000000     466
Ni    20.23955806    0.88142563    0.88000053     467
Ni    23.75834515    0.88194927    0.87999086     468
Ni    27.27653247    0.88280062    0.88008563     469
Ni    30.79559497    0.88289384    0.87953661     470
Ni    34.32081496    0.87886996    0.88087152     471
Ni    37.84000000    0.87002633    0.89432559     472
Ni    21.99854727    2.64340313    0.87999618     473
Ni    20.23893885    4.40472897    0.87999890     474
Ni    25.51625593    2.64507413    0.88002401     475
Ni    23.75592866    4.40691091    0.88000644     476
Ni    29.03428088    2.64610786    0.87990915     477
Ni    27.27234026    4.40945751    0.87997978     478
Ni    32.55698707    2.64310225    0.88002340     479
Ni    30.79295991    4.40751137    0.87999969     480
Ni    36.08113004    2.63918504    0.88087152     481
Ni    34.31689775    4.40301293    0.88002340     482
Ni    37.84000000    4.40395899    0.87741675     483
Ni    21.99607200    6.16839539    0.88000184     484
Ni    20.23728780    7.92961589    0.88000038     485
Ni    25.51013350    6.17295828    0.87999490     486
Ni    23.74806234    7.93671129    0.87999862     487
Ni    29.02860689    6.17229486    0.88000132     488
Ni    27.26367474    7.93771462    0.88000094     489
Ni    32.55248863    6.16704009    0.87999969     490
Ni    30.78770514    7.93139311    0.88000132     491
Ni    36.07710616    6.16440503    0.87953661     492
Ni    34.31389214    7.92571912    0.87990915     493
Ni    37.84000000    7.92371166    0.88023574     494
Ni    21.98675319    9.70086880    0.87999954     495
Ni    20.22701326   11.46472834    0.87999994     496
Ni    25.49785664    9.70420189    0.88000041     497
Ni    23.73069548   11.47239113    0.88000012     498
Ni    29.02228538    9.69632526    0.88000094     499
Ni    27.25579811   11.46214336    0.88000041     500
Ni    32.55054249    9.68765974    0.87997978     501
Ni    30.78704172   11.44986650    0.87999490     502
Ni    36.07719938    9.68346753    0.88008563     503
Ni    34.31492587   11.44374407    0.88002401     504
Ni    37.84000000   11.44213571    0.87999205     505
NiV   21.96152595   13.24277821    0.88000009     506
NiV   20.20261002   14.99714448    0.88000005     507
Ni    25.48760887   13.22930452    0.88000012     508
NiV   23.71722179   14.99847405    0.88000009     509
Ni    29.02328871   13.21193766    0.87999862     510
Ni    27.25913120   14.97324681    0.87999954     511
Ni    32.55308909   13.20407134    0.88000644     512
Ni    30.79160461   14.96392800    0.88000184     513
Ni    36.07805073   13.20165485    0.87999086     514
Ni    34.31659687   14.96145273    0.87999618     515
Ni    37.84000000   14.96081685    0.87999864     516
NiV   21.96285552   16.75738998    0.88000005     517
Ni    37.84000000   16.72037270    6.16000000     518
Ni    25.49527166   16.73298674    0.87999994     519
NiV   23.72745694   18.48000000    0.87999968     520
Ni    29.03038411   16.72271220    0.88000038     521
Ni    27.26937519   18.48000000    0.88000030     522
Ni    32.55527103   16.72106115    0.87999890     523
Ni    30.79358500   18.48000000    0.87999918     524
Ni    36.07857437   16.72044194    0.88000053     525
Ni    34.31718256   18.48000000    0.88000082     526
Ni    37.84000000   18.48000000    0.88000060     527
Ni    21.99903244    0.88162180    2.64000000     528
Ni    20.23955806    0.88142563    4.39999947     529
Ni    25.51744731    0.88238324    2.64000000     530
Ni    23.75834515    0.88194927    4.40000914     531
Ni    29.03606731    0.88296484    2.64000000     532
Ni    27.27653247    0.88280062    4.39991437     533
Ni    32.55507090    0.88296141    2.64000000     534
Ni    30.79559497    0.88289384    4.40046339     535
Ni    36.08895753    0.87104247    2.64000000     536
Ni    34.32081496    0.87886996    4.39912848     537
Ni    37.84000000    0.87002633    4.38567441     538
Ni    20.23933964    2.64296161    2.64000000     539
Ni    21.99763757    4.40554542    2.64000000     540
Ni    21.99854727    2.64340313    4.40000382     541
Ni    20.23893885    4.40472897    4.40000110     542
Ni    23.75750522    2.64414630    2.64000000     543
Ni    25.51397484    4.40845479    2.64000000     544
Ni    25.51625593    2.64507413    4.39997599     545
Ni    23.75592866    4.40691091    4.39999356     546
Ni    27.27509733    2.64584560    2.64000000     547
Ni    29.03177078    4.40929744    2.64000000     548
Ni    29.03428088    2.64610786    4.40009085     549
Ni    27.27234026    4.40945751    4.40002022     550
Ni    30.79433094    2.64562474    2.64000000     551
Ni    32.55539741    4.40460259    2.64000000     552