ITEM: TIMESTEP
0
ITEM: NUMBER OF ATOMS
9360
ITEM: BOX BOUNDS pp pp pp
6.0118675527508207e-02 4.2383662621015901e+01
6.5134774436051993e-02 4.5920012048998899e+01
7.5153554065668288e-02 5.2983251083654501e+01
ITEM: ATOMS id type x y z vx vy vz
1488 1 3.61775 5.35623 3.23892 2.37316 -2.01224 2.71892
1439 1 1.79148 3.56065 3.24714 2.50464 -1.3107 -5.12574
1440 1 3.56955 1.83336 3.40686 1.2744 -0.0201755 -2.98953
1438 1 3.69369 3.46967 1.47478 -3.07806 0.604315 1.19001
1485 1 1.80625 5.35225 1.57142 -0.126114 -1.85018 3.29091
1437 1 1.90468 1.75535 1.50305 -2.61935 -0.959021 -0.587359
1441 1 5.27994 5.2572 1.53784 1.43326 0.140669 2.77823
1484 1 0.0716372 5.32792 3.2787 1.71393 2.03825 2.69727
1436 1 0.130881 1.76979 3.27964 2.80288 0.253754 2.02524
1386 1 0.0665561 0.117723 1.53584 -0.297382 3.43262 0.188381
767 1 5.36916 3.57606 3.31918 5.11052 -0.116033 -0.680195
1393 1 5.36226 1.84279 1.4888 -1.56495 1.49538 0.884412
1399 1 8.86933 3.69254 3.19024 0.679496 -0.392695 -1.74124
1444 1 7.06649 5.39235 3.30562 0.163034 -3.59717 4.89334
1396 1 7.18079 1.79588 3.3413 0.356211 3.96618 2.54615
1394 1 6.99834 3.5597 1.50203 1.85378 1.22423 3.62625
1397 1 8.82864 1.82489 1.62983 -0.745068 3.22146 -3.70769
1445 1 8.85414 5.34932 1.508 2.75768 0.0748048 -2.40528
1448 1 10.5014 5.3019 3.3281 -3.07582 1.55395 1.07161
1398 1 10.5959 3.67425 1.52939 0.603157 -3.98535 -1.92884
1400 1 10.6624 1.92534 3.23989 -0.672343 2.26347 1.59419
1401 1 12.3576 1.79482 1.49284 1.31505 -3.4816 1.38158
1452 1 14.1838 5.27969 3.23151 -0.840586 1.30368 -2.06879
2022 1 12.3306 3.60058 3.20869 2.21322 -2.66141 0.132344
1403 1 14.065 1.80915 3.17755 -3.75283 0.0409694 0.7762
1402 1 14.0392 3.50958 1.5095 1.68155 0.12812 0.0406849
1449 1 12.3796 5.3117 1.49306 2.86855 3.14598 0.798029
1407 1 15.8847 3.41431 3.17824 0.653344 -2.79819 -2.83525
1359 1 15.8777 0.101353 3.33804 -1.05361 0.484914 -2.85187
724 1 10.7762 0.129232 1.58364 -0.864566 4.38907 -1.63796
1453 1 15.9878 5.26349 1.55201 -1.56309 -0.938772 0.673931
1405 1 15.9594 1.88565 1.45494 1.68372 1.76072 2.23793
1410 1 21.2034 3.52058 1.37005 0.267989 -2.53355 0.508484
1404 2 19.5325 3.56055 3.21694 -1.42263 3.10778 0.338979
1456 1 17.7481 5.39502 3.25058 -1.73051 0.50532 4.03541
2033 1 17.7209 1.73743 3.2991 2.1721 -1.70653 0.837648
1408 1 19.4092 1.7215 1.45377 -1.82695 -1.19204 -0.169876
787 1 19.5556 5.33185 1.52064 -0.168456 1.84146 1.78392
1411 1 17.807 3.64336 1.52579 0.783145 4.45077 0.841895
1460 1 21.1492 5.41118 3.25144 1.41615 1.79652 0.881682
1986 1 21.1941 1.7583 3.26243 -3.01444 -0.382498 0.878382
1533 1 1.73967 8.88111 1.49669 0.254964 0.370949 2.106
1487 1 1.81367 7.26449 3.29829 0.340111 0.893265 1.15265
1532 1 1.8112 10.6718 3.22735 -3.21329 0.707 0.497778
1536 1 3.69086 8.91725 3.29224 0.486503 1.00022 0.522968
1486 1 3.58347 7.12733 1.46546 -0.854057 3.35814 3.42751
1534 1 3.6011 10.6658 1.52188 1.30097 -0.0564617 0.267189
1443 1 5.29433 7.10586 3.17317 4.19054 1.85009 -2.53534
1489 1 5.29932 8.75236 1.42281 -1.34079 0.0968634 0.118637
1491 1 5.44419 10.7233 3.1014 0.362992 2.53035 -0.962013
911 1 7.22858 10.7434 1.50689 -3.6711 0.100757 -0.737893
1442 1 7.16341 7.1721 1.46418 -0.879781 -2.30419 -3.382
1447 1 8.94913 7.19867 3.26369 0.87434 2.77085 -3.91297
1495 1 8.85354 10.5738 3.15405 0.716142 0.364651 1.30242
1492 1 7.05312 8.86103 3.21337 4.60354 -6.0992 -3.91782
1493 1 8.82774 8.8903 1.53524 0.632895 -0.048247 -0.143604
1494 1 10.6853 10.5933 1.41884 2.00258 -1.54728 2.07622
1446 1 10.7395 7.19525 1.37478 -0.352384 -0.415843 2.7086
1496 1 10.7153 8.85327 3.15628 1.28329 -0.003302 -1.04746
1451 1 12.3671 7.11565 3.25368 3.89888 0.0438457 -1.2109
1500 1 14.2482 8.86898 3.27404 -1.36606 -0.432033 -0.693745
1499 1 12.466 10.7233 3.17851 1.54616 2.44799 0.667904
1498 1 14.2661 10.7154 1.43723 -2.02789 -0.0170728 -2.37142
1450 1 14.2565 7.07432 1.61622 0.721906 -3.37675 -2.91985
1497 1 12.5375 8.83506 1.4367 1.3397 3.92997 1.52819
1455 1 15.9874 7.05302 3.33053 -2.16338 -1.06615 0.264039
1503 1 16.0424 10.6021 3.23275 -3.40036 -0.5542 -0.419503
1501 1 15.9875 8.86861 1.46846 -1.89739 -1.94939 -3.0792
1505 1 19.5854 8.80947 1.39224 0.930925 3.94535 0.919251
1502 1 17.7649 10.5215 1.58153 1.76335 -0.169169 1.56479
1459 1 19.4567 7.03768 3.30966 -0.178727 -1.58143 -2.10271
1504 1 17.7934 8.71451 3.12586 1.66036 3.14128 -0.765497
1507 1 19.531 10.5592 3.24888 2.53942 0.573674 -1.28656
1454 1 17.8632 7.02564 1.39084 -0.317406 -2.03936 -0.652077
1458 1 21.1841 7.08329 1.43746 -2.03773 -1.30547 0.841561
1506 1 21.1512 10.5957 1.32776 1.40386 0.822404 -1.5035
2109 1 1.81368 5.35063 5.0545 -5.17133 1.28081 0.633435
2062 1 3.55991 3.66373 4.97188 3.73385 1.09743 -1.17434
2061 1 1.74771 1.81301 5.09809 -0.872223 -2.27977 -0.315939
2064 1 3.50818 1.76742 6.77606 -0.0754012 -1.57666 0.325087
2063 1 1.91894 3.55362 6.77183 1.82228 0.880741 -0.320719
2112 1 3.73901 5.34529 6.83344 -0.120548 -0.131001 0.51605
2733 1 1.80364 5.38233 8.53382 2.12177 0.927288 -1.14258
2686 1 3.53906 3.61683 8.6321 -0.027813 -0.907976 -3.61436
2685 1 1.73975 1.91508 8.60919 -5.61738 1.16151 -1.03372
2017 1 5.24136 1.67134 4.98849 -0.993673 -0.946052 -3.9584
2689 1 5.33487 5.4577 8.57856 3.7858 -1.5881 1.99543
2641 1 5.29846 1.84028 8.57809 -0.929677 -2.67178 -1.29517
2019 1 5.20019 3.51704 6.71395 -0.5943 -1.8895 -1.72182
2638 1 3.50455 0.0745291 8.60782 -2.45409 -0.121205 -0.0363756
1971 1 5.21207 0.0798693 6.81513 0.0768892 3.20206 1.72313
2065 1 5.37411 5.39319 5.03776 -3.26382 -0.324208 -1.56324
2021 1 8.90635 1.86401 4.99882 -2.454 -0.822767 -2.08958
1395 1 7.12743 3.66534 4.97582 -2.01882 -6.95303 3.11032
2069 1 8.76947 5.53392 5.01258 0.491799 2.76115 2.03388
2068 1 7.04411 5.41579 6.81711 0.393127 4.46625 -5.13005
2020 1 7.06805 1.84008 6.70796 0.991739 3.08328 -0.41112
2018 1 8.80509 3.71967 6.6963 2.00748 1.43157 2.60551
2642 1 6.97964 3.68863 8.4484 0.583494 3.76503 3.90664
2693 1 8.88744 5.30006 8.55882 -1.29464 -2.65851 -0.837529
2645 1 8.64883 1.91293 8.45196 -3.33023 1.3505 1.02435
2023 1 10.5676 3.60738 5.12781 2.69764 -3.72249 -3.32762
2072 1 10.6398 5.39021 6.72337 3.01245 1.91588 -2.27323
2024 1 10.6405 1.75294 6.75325 -1.61616 1.33393 1.79118
1975 1 8.81453 0.0954765 6.82598 -2.30297 0.545654 -1.64561
2646 1 10.6477 3.53895 8.5631 1.44635 3.3174 -1.85577
1974 1 12.417 1.90157 5.03364 2.53494 -0.701988 -2.49365
2073 1 12.3911 5.27935 5.00126 -0.68548 -1.0194 1.43879
2026 1 14.2215 3.55194 5.02774 0.63549 2.7554 2.92317
2028 1 14.0837 1.83457 6.76914 -0.332936 1.41746 2.29156
2076 1 14.2917 5.37628 6.70854 -1.76252 1.3488 0.318644
2027 1 12.3771 3.54296 6.71014 3.37755 1.4451 0.353886
2697 1 12.3125 5.39773 8.46177 0.602322 0.996133 1.64667
2701 1 14.1223 3.61289 8.47996 1.32701 -1.76204 -1.77034
2649 1 12.4074 1.79753 8.55894 0.6592 0.826474 -1.20033
2080 1 15.9175 5.33746 8.47233 1.465 2.90481 2.58392
2032 1 15.8794 1.7896 5.10653 -1.16067 -0.989291 -2.12139
2077 1 15.8844 5.32847 5.06376 -0.619617 -0.177497 0.86353
1979 1 12.4942 0.0695201 6.72938 -0.056214 -0.529303 -3.25803
2029 1 15.8697 0.0727425 6.84916 0.658858 -1.76779 1.08992
2650 1 15.9791 1.81619 8.58672 1.8905 -1.57828 2.40926
2031 1 16.0237 3.44895 6.84075 -0.0444925 -0.244836 -0.241784
2084 1 21.208 5.30725 6.73216 0.488557 -1.59164 2.86233
2081 1 19.4848 5.32403 5.07938 2.42498 1.00079 -2.39267
1978 1 17.7052 3.50942 4.91358 -0.966973 -0.308282 -0.295284
1987 1 19.411 1.78946 5.07162 -2.39445 -6.92049 2.1636
2606 1 17.8176 1.7823 6.7281 -2.06802 2.1307 -0.344771
2035 1 19.5691 3.56954 6.85107 0.314745 0.618272 -1.36481
2030 1 17.7377 5.17844 6.78851 0.67887 1.42876 3.17689
2654 1 17.7177 3.4414 8.5872 3.38523 -2.18038 -2.68114
2705 1 19.5592 5.29324 8.61548 -2.65116 2.68275 -0.683402
2657 1 19.5267 1.71836 8.62922 2.36994 2.42983 -3.34416
2658 1 21.1829 3.49045 8.62247 2.51388 -0.243894 -6.86045
2034 1 21.1719 3.53677 5.1029 -2.24166 -1.04001 0.821479
2115 1 3.52011 10.5387 4.99593 -0.555254 -2.1244 0.749532
2110 1 3.5448 7.20473 4.98775 1.31421 -2.31984 0.399028
2157 1 1.69534 8.75074 5.05593 1.93244 -0.0293484 2.88678
2111 1 1.90745 7.10281 6.81791 3.01616 3.69992 -1.11959
2734 1 3.61913 7.17796 8.66739 -0.320399 -0.808 -0.903412
2159 1 1.76993 10.6432 6.8584 -1.99932 2.68374 -0.952324
2160 1 3.59506 8.81456 6.65691 5.12092 -2.52763 -2.22181
2781 1 1.71354 8.87568 8.44722 -1.84788 -0.889354 0.268391
2782 1 3.56247 10.6641 8.53451 0.11813 0.732224 -4.12018
2785 1 5.31184 10.6874 6.75823 0.969777 -6.07621 -1.16898
2737 1 5.28395 8.91948 8.4951 2.80002 -0.875205 -4.75052
2067 1 5.39177 7.19135 6.73211 -2.86576 -2.73843 -1.09456
2113 1 5.39732 8.90037 5.00944 0.752524 -1.05509 2.88371
2117 1 8.88066 8.75302 4.94857 1.92583 2.73213 1.73153
2066 1 7.0394 7.02402 4.95977 0.389668 -3.05585 -1.44058
2114 1 7.14744 10.6175 5.00132 -4.55103 -0.781205 -2.05347
2071 1 8.76815 7.14802 6.83291 -0.317442 1.94801 -2.95501
2690 1 7.00102 7.11832 8.54297 0.761523 -2.65771 -0.969434
2116 1 7.10242 8.85746 6.78531 -1.41305 2.49076 -1.18606
2119 1 8.91875 10.6872 6.80687 -0.309174 0.961053 -1.09806
2741 1 8.90564 8.92402 8.50088 -1.5028 -2.24798 -1.59446
2738 1 7.13046 10.5823 8.49952 -1.7193 0.571878 0.0633866
2694 1 10.5667 7.11342 8.44925 -1.59107 2.39146 0.768036
2118 1 10.6273 10.6005 4.99576 -0.685009 5.9292 2.24581
2120 1 10.6356 8.86752 6.77817 2.24288 -1.97289 3.31327
2070 1 10.7097 7.13407 4.97266 1.86645 -0.52998 0.814147
2742 1 10.7388 10.6036 8.48274 0.920208 -0.940415 -3.40813
2074 1 14.2091 7.16523 5.04513 1.23084 -0.371122 0.64045
2121 1 12.4303 8.98106 4.97315 1.35135 -3.34986 -0.0399893
2122 1 14.1717 10.6673 5.0098 2.94734 3.22328 -2.82388
2698 1 14.1743 7.12609 8.50239 -2.85861 2.4702 1.77613
2075 1 12.4849 7.1483 6.64941 0.523813 -2.3296 -1.7523
2123 1 12.3297 10.5909 6.7241 0.957137 0.890729 -0.649125
2124 1 14.1895 8.87047 6.75831 0.0259602 -2.2145 0.117621
2745 1 12.401 8.72101 8.61308 -0.464585 -1.24223 -1.32618
2746 1 14.1783 10.4516 8.64986 1.18969 0.773397 2.70745
2127 1 15.9156 10.6176 6.84439 -3.86895 2.09998 -1.25323
2749 1 15.9689 8.90384 8.54691 -2.51186 0.384062 0.757743
2079 1 15.9911 7.08809 6.82592 1.53238 0.233865 -3.80384
2125 1 16.05 8.85071 5.00691 -0.473851 0.973191 -2.60016
2754 1 21.1884 10.6563 8.6941 -0.482869 1.84179 -2.59887
835 1 19.5559 8.81173 5.04982 -2.3038 -0.782877 3.46991
2078 1 17.7211 7.10354 5.18369 -1.04205 -0.188862 2.63696
2126 1 17.7629 10.5397 5.02026 -3.90755 0.149816 -1.66713
2702 1 17.7249 7.08967 8.47936 -2.0571 1.77474 -0.927051
2083 1 19.5056 7.05089 6.82727 0.484406 0.163274 -2.79051
2128 1 17.7211 8.81369 6.85301 -1.7705 1.62075 -1.11648
2131 1 19.4983 10.5003 6.84176 1.39137 2.02274 -1.45991
2750 1 17.8051 10.5951 8.69345 0.0134029 -1.07126 -0.166567
2129 1 19.5001 8.85678 8.76079 2.53776 -0.630342 -0.330317
2130 1 21.1347 10.6054 4.99296 0.429498 -1.85327 2.41527
2132 1 21.191 8.80677 6.85995 -2.60239 -1.01729 3.29755
2688 1 3.44593 1.71528 10.3481 2.80471 -0.572872 2.25785
2687 1 1.77538 3.65249 10.4586 0.898085 -1.26344 2.49404
2736 1 3.4607 5.38684 10.3322 -1.63266 -0.873449 0.398124
3937 1 1.72732 5.52882 12.0602 -5.46619 -0.807418 0.527026
3310 1 3.54066 3.53832 12.011 3.43615 -0.175653 -1.88051
3309 1 1.69309 1.7627 12.0466 1.58928 -2.58135 -3.89435
3262 1 5.25234 1.83982 11.9808 -0.285001 -3.06879 0.266949
3313 1 5.3413 5.31716 12.0793 -2.09401 1.74382 -2.34692
3312 1 3.48446 0.0715325 12.0785 -0.705834 -0.925251 0.649539
2684 1 0.0819561 1.8912 10.3784 -3.14357 -1.17012 -4.53898
3306 1 0.0664561 5.39306 10.2934 0.53844 -2.70814 3.20915
2595 1 5.37778 3.61603 10.1689 2.53875 1.08067 -0.279251
2647 1 8.7627 3.58649 10.2483 -1.34219 -1.87865 0.436845
2692 1 7.1581 5.37308 10.2394 -3.08396 -0.226034 -0.57007
2644 1 7.07653 1.83704 10.2439 2.33051 -2.21739 -0.305171
2594 2 8.84718 1.77687 11.9204 1.45048 -0.319806 -3.47426
3317 1 8.85591 5.29539 11.9761 1.96153 -0.0843966 1.18638
3266 1 7.06754 3.49547 12.0382 0.398021 -0.895648 2.55488
2696 1 10.5625 5.31241 10.2951 2.60583 -2.15896 -2.5864
3270 1 10.5449 3.48001 12.0662 1.92766 -0.320695 -1.54296
2648 1 10.5352 1.77864 10.1591 3.49746 -1.95724 0.718589
2652 1 14.113 1.87656 10.2396 -1.08187 -3.15373 3.69371
2651 1 12.4295 3.66371 10.4644 -3.29343 1.03365 -1.17142
2700 1 14.1531 5.39666 10.152 5.2211 -0.230131 -1.12666
3274 1 14.1284 3.55255 12.1289 0.044612 -1.76421 -0.473149
3325 1 12.4027 5.32232 12.1734 0.944802 -2.61145 -0.57956
3273 1 12.2777 1.74335 12.0335 -3.07781 1.34408 -0.192498
3324 1 15.8714 5.32189 12.0404 4.10805 3.10787 3.17546
1977 1 15.8854 1.90108 12.1265 -1.60732 0.420233 -0.731047
3231 1 14.1164 0.161992 12.0153 3.03638 -2.87608 2.45152
3282 1 21.1427 3.46916 12.0303 -2.17096 -2.62917 -1.28868
2660 1 21.141 1.61512 10.4335 -1.97135 -1.64477 2.53838
2655 1 15.9546 3.5035 10.3026 -3.35305 -1.17318 0.531421
2708 1 21.1639 5.32647 10.4049 0.600225 3.62887 -1.97588
2653 1 17.6805 1.77906 10.4063 3.03702 0.479151 -0.667022
2704 1 17.6825 5.37036 10.1669 3.6435 1.82232 -4.17133
2659 1 19.4743 3.51534 10.3254 0.337874 -0.787025 -1.83906
3329 1 19.3437 5.37319 12.1144 2.02709 -5.47024 2.62354
3278 1 17.5831 3.52798 12.0274 1.99759 -1.70491 -1.12614
3281 1 19.3683 1.64087 12.1406 -0.247697 -2.46704 -0.988751
2784 1 3.54088 8.94585 10.1858 -2.86362 1.04549 -2.07208
2735 1 1.75719 7.17944 10.1502 2.30927 -0.214242 -2.499
2783 1 1.81484 10.7288 10.2131 -1.24431 0.592437 0.638424
3361 1 3.60194 7.10987 11.825 -0.844713 -1.55172 -0.176409
3406 1 3.53432 10.6554 12.0677 -3.50163 -0.598317 -0.861701
3408 1 1.78323 8.83229 12.0286 3.01666 0.104925 -0.632206
2739 1 5.31966 8.87624 11.9285 3.1031 -3.52643 -0.227362
3402 1 0.127756 10.6941 11.9484 -1.20865 -2.81002 -0.178371
2691 1 5.37355 10.6254 10.2805 0.054133 0.583837 0.688169
3365 1 8.90345 8.85478 11.9958 -1.66796 -2.28759 4.87399
2743 1 8.94215 10.6117 10.1879 0.968684 -0.378222 0.921045
2740 1 7.15929 8.90498 10.248 0.665493 1.24004 1.50128
2695 1 8.89249 7.15579 10.2965 1.00939 0.534883 -1.41054
3943 1 7.00985 7.1162 11.8614 -1.15767 0.737622 0.910697
3362 1 7.04093 10.6589 11.9701 -1.69698 -2.49424 2.5588
2792 1 10.5954 10.6601 12.0029 4.2841 -1.36005 1.34353
2747 1 12.3844 10.7178 10.3461 -2.56282 -1.24436 0.226859
2703 1 15.8427 7.10323 10.2737 5.07029 -1.06746 3.28315
2699 1 12.4038 7.01489 10.2711 -2.64223 1.31175 5.55293
3318 1 10.6477 7.02602 12.1184 0.0396725 -3.40613 1.64418
2744 1 10.6808 8.7826 10.353 0.195655 1.89843 1.89045
3322 1 14.1906 7.05623 12.0661 -0.32422 -2.54336 3.35427
2751 1 15.7751 10.6237 10.4025 -0.873075 3.41734 -0.372379
3373 1 15.8072 8.89404 12.0591 -1.8055 -0.812201 0.108896
3370 1 13.9835 10.653 12.1443 0.407766 0.857928 1.78471
3369 1 12.4056 8.74727 12.0343 2.57691 1.41665 -2.74226
2748 1 14.1635 8.77779 10.3314 0.853068 0.76353 0.0749729
2752 1 17.6158 8.88133 10.2024 0.154732 2.94264 -1.34134
2753 1 19.5065 10.6062 10.4916 -2.58319 3.27198 1.48286
3377 1 19.3355 8.90006 12.0578 -0.536669 -4.306 1.52637
2707 1 19.3553 7.1863 10.4092 -1.95202 1.22465 0.205444
3330 1 21.2165 7.09162 12.2425 0.965352 -4.74058 -1.35082
3378 1 21.1962 10.6021 12.1864 -1.04202 1.51028 0.813938
3374 1 17.5777 10.6163 12.1112 -2.79132 -0.338805 0.50436
3326 1 17.6434 7.13669 12.0229 0.547155 -2.67451 0.485055
4606 1 3.3886 5.32485 17.2763 -1.31724 -1.06101 2.20539
3357 1 1.65975 3.51013 17.4082 0.923203 -0.387656 0.187536
3936 1 3.27978 1.76855 17.2574 1.56008 1.78879 -2.79848
3933 1 1.62791 1.82678 15.4744 -0.43451 -1.78718 -0.226664
3981 1 1.72967 5.28057 15.5638 0.560765 1.9015 1.43452
3934 1 3.3319 3.61214 15.5054 4.64166 -0.37725 0.934221
3311 1 1.70594 3.65679 13.7055 0.688577 4.37673 0.148479
3358 1 3.53627 5.33781 13.6361 -4.87119 -4.49408 -1.3338
3267 1 3.44184 1.81901 13.8718 -1.14162 -2.0466 -0.0078395
3891 1 5.22997 3.58804 17.289 -1.70105 -4.19793 -4.45739
3890 1 5.19652 3.58688 13.7409 -0.345532 2.305 -3.19194
3889 1 5.14662 1.8323 15.4856 -1.34281 -3.13047 3.80148
3360 1 5.21765 5.39773 15.5605 -0.74588 0.383259 -3.55285
3263 1 1.71664 0.0655227 13.8664 -1.80416 -0.7596 2.81124
3271 1 7.00255 1.75111 13.765 1.48365 -2.02319 2.45625
3893 1 8.78925 1.80457 15.5011 -4.34721 -2.69625 -0.596024
3315 1 6.94742 5.3777 17.2782 -0.925715 1.51665 0.928274
3895 1 8.66675 3.50105 17.3534 -1.76982 0.941701 -0.774127
3892 1 7.00296 1.77765 17.3083 2.80125 0.29937 -1.60537
4569 1 8.71251 5.2319 15.5835 3.05173 -2.49039 3.70896
3941 1 6.84962 3.57374 15.573 -1.44845 1.01843 -0.162733
3272 1 10.5753 1.73867 13.7636 2.40869 1.86442 -4.87175
3314 1 8.70756 3.46695 13.7407 -3.77614 -4.54182 -0.253412
3316 1 7.04058 5.39654 13.6773 -0.127638 4.17178 2.40047
3945 1 10.4208 5.2485 17.2754 0.0281209 3.57734 -1.58627
3894 1 10.5432 3.49138 15.5519 -3.19537 -3.11416 -0.277654
3896 1 10.4144 1.76803 17.316 0.81837 1.25892 -0.409371
3321 1 10.4256 5.24844 13.849 2.05181 0.25342 0.341122
3842 1 6.9136 0.140423 15.5195 -0.815146 -0.776596 -0.860608
3320 1 14.1106 5.34883 13.7859 1.63815 3.41269 -1.2648
3900 1 13.9705 1.70858 17.3592 -1.14743 -2.25046 -0.712524
3897 1 12.292 1.78935 15.4651 1.10081 -0.739648 -4.3378
3903 1 15.7832 3.5869 17.2259 3.36969 3.13547 1.70874
3948 1 13.9899 5.28627 17.3421 0.750433 1.38352 0.248381
3899 1 12.3174 3.42091 17.3057 -4.51656 -0.687014 1.55864
3898 1 14.1008 3.55791 15.5475 -1.84085 2.34366 0.864366
3942 1 12.2474 5.18275 15.4393 1.90216 -2.7124 0.88363
3276 1 14.0936 1.78979 13.8169 -0.608347 0.0241662 -0.37189
3275 1 12.3431 3.44554 13.7036 -0.660097 -0.755013 -2.80648
3901 1 15.7637 1.73624 15.6076 -0.0246217 -0.259472 -0.348351
3279 1 15.8856 3.52904 13.8454 -1.3199 0.574442 2.86783
3949 1 15.8275 5.31967 15.5998 1.3273 -1.40098 -0.122764
3328 1 17.6619 5.27007 13.8392 -0.128607 -0.223982 0.673543
3904 1 17.5261 1.73551 17.331 -1.1661 -2.49677 -1.11505
3902 1 17.6222 3.58916 15.5338 -1.08443 4.32814 -1.29795
3907 1 19.2617 3.38285 17.3527 1.34073 0.0827346 2.98761
3952 1 17.609 5.18348 17.3449 3.99786 2.80468 -1.14896
3953 1 19.3357 5.30284 15.6125 1.19201 0.0576069 0.756973
3905 1 19.2854 1.70372 15.6246 -0.0409018 -2.15043 -2.40935
3277 1 17.562 1.70067 13.8622 1.07711 2.01264 -4.66584
3283 1 19.2892 3.40486 13.8555 -2.27441 2.72886 2.29224
3956 1 21.0217 5.26277 17.4075 -1.56728 -4.63823 1.953
3906 1 21.1181 3.49196 15.7032 0.0562559 2.35045 0.370121
3284 1 21.0585 1.75608 13.899 -1.17658 -2.09024 -1.33886
3332 1 21.0539 5.25871 13.8617 -2.32799 4.75631 -1.91163
3908 1 21.0903 1.70892 17.3433 3.79541 -0.773542 0.0003664
3359 1 1.81434 7.17682 13.8677 0.204941 1.21117 -0.174825
4029 1 3.42837 8.91302 13.7757 0.549326 -2.3677 -1.87097
3982 1 3.45821 7.14913 15.4884 3.78857 -2.75121 -2.67613
3983 1 1.56368 7.11422 17.2287 0.180092 1.33955 -6.11623
4032 1 3.45187 8.83389 17.2972 -0.375675 -0.229101 1.29147
4031 1 1.7524 10.6026 17.3879 3.52954 -0.652651 -2.58856
4030 1 3.57571 10.5908 15.555 -1.17136 -0.628571 -2.89266
4028 1 1.71074 8.95868 15.6202 0.720746 -3.10109 1.11167
3407 1 1.72174 10.654 13.8103 3.66153 1.89893 -2.40067
2732 2 5.22054 10.5378 13.8129 0.588213 2.89898 -0.992337
3987 1 5.17615 10.6501 17.3396 -0.311958 -1.775 -1.88288
3988 1 5.22882 7.15354 13.8129 -1.92518 -1.89227 1.60718
3939 1 5.2114 7.05625 17.3174 -0.626057 -1.85064 -0.510317
3985 1 5.38985 8.82075 15.653 0.778786 1.12935 -1.66112
3944 1 8.67758 7.17041 13.7317 -2.79809 -0.746523 5.2378
3367 1 8.85152 10.6335 13.7848 -2.65837 2.6607 -1.19293
4568 1 8.74407 7.01487 17.2536 3.19538 3.48103 0.830631
3991 1 7.07049 8.81186 17.3738 1.52061 -0.48757 4.22773
3989 1 8.7857 10.7221 17.3421 0.925466 -1.00105 0.900745
3986 1 6.97381 10.6223 15.7074 -1.42455 -3.17297 2.12251
3364 1 8.8165 8.82838 15.5777 1.64829 0.443619 4.76292
2643 2 7.00552 8.8255 13.7417 0.260073 0.929578 1.28671
4566 1 10.5478 8.79935 17.2303 -1.23629 3.28102 -0.240186
3319 1 10.448 6.91725 15.5421 0.157709 -4.71823 0.180516
3990 1 10.4772 10.6726 15.4841 0.483999 1.57684 -4.10501
3368 1 10.5856 8.6945 13.8597 -0.450396 -2.53783 0.0356689
3366 1 12.2149 10.6046 13.8041 0.824212 0.0258793 -1.03154
3997 1 14.141 8.7846 13.7881 -0.826234 -4.68713 -0.437991
3946 1 13.9777 7.14008 15.6302 2.09335 -0.933792 1.19107
3947 1 12.1419 7.0638 17.2045 0.763184 -1.315 1.52299
3993 1 12.2412 8.93652 15.594 2.86137 -1.792 0.173717
3996 1 13.9975 8.78934 17.2814 -2.10495 1.16835 3.28692
3995 1 12.2851 10.6304 17.3438 -0.751327 1.57279 4.64816
3371 1 14.101 10.5722 15.585 -3.21189 3.77184 2.3014
3323 1 12.3657 6.97441 13.8857 -3.15808 -0.0028263 3.74209
3951 1 15.8751 7.0161 17.2368 -2.15106 0.660624 -1.34139
4045 1 15.8916 10.5552 17.3276 -0.109178 0.0437014 -3.50014
3375 1 15.9015 10.7066 13.7862 0.11857 -1.80321 0.689048
3994 1 15.9733 8.85211 15.5849 -2.2715 4.50674 -1.68892
3327 1 15.9778 7.1048 13.8236 0.515172 0.368977 2.85265
3379 1 19.3973 10.5438 13.8473 1.70434 -0.878064 2.50167
3376 1 17.6934 8.86605 13.887 0.464416 -0.719989 -0.581395
3331 1 19.4328 7.11018 13.7917 -2.35047 2.46813 -3.93336
3950 1 17.6723 7.0105 15.6624 1.65716 0.007736 0.622537
3955 1 19.4586 7.06041 17.3987 -1.30286 -4.85009 -1.19547
3423 1 19.4734 10.6601 17.3511 -1.17007 1.37544 -2.0972
4000 1 17.6413 8.8312 17.4566 -1.70356 2.43492 0.0131953
3998 1 17.6828 10.6945 15.6172 2.98864 -0.980032 -0.610274
4001 1 19.4232 8.737 15.7428 -1.78649 1.56177 2.40237
4004 1 21.1768 8.89248 17.4988 3.08011 1.18618 0.233019
3954 1 21.1936 7.00372 15.5979 -2.56889 0.842697 -0.206932
3380 1 21.1294 8.87294 13.9544 0.729432 -0.013872 -0.415564
4002 1 21.2064 10.5145 15.7933 -0.871293 0.367017 -1.82134
4558 1 3.51618 3.57916 19.026 0.993984 -2.87083 1.96387
4557 1 1.595 1.74527 19.0465 0.344253 1.39593 5.51836
4605 1 1.74817 5.26018 19.0444 -0.978072 -2.23225 -4.53642
4608 1 3.45247 5.32686 20.7844 -2.51103 -0.704176 -0.851769
4559 1 1.69172 3.54661 20.8405 1.60365 5.91244 -1.83864
4510 1 3.40703 1.70221 20.8191 2.60661 -1.08039 -1.12618
4560 1 5.14181 3.54443 20.8102 -0.247238 -1.722 0.975594
4513 1 5.16224 1.86658 19.0119 -1.21276 0.564844 -2.39379
3940 1 5.26131 5.33506 19.0636 2.75909 0.955732 0.252486
4514 1 6.93951 3.5648 19.122 -2.45107 0.440706 0.484368
4565 1 8.72335 5.40259 19.1573 0.0215738 0.289229 2.05511
4517 1 8.67504 1.58295 19.0754 -3.36768 -2.25149 1.97083
4516 1 6.84957 1.61951 20.7288 5.17873 1.23722 -1.70042
5189 1 10.5039 5.26058 20.801 3.04991 1.197 -1.14699
4515 1 6.93032 5.34674 20.8737 -1.49981 1.54987 0.677755
4519 1 8.74771 3.48369 20.7121 1.71902 -2.91591 -2.10791
4520 1 10.3818 1.59589 20.8508 7.1275 -2.49956 -0.531078
4518 1 10.4422 3.53333 19.0654 2.38869 3.03286 1.22927
4522 1 14.0075 3.47091 19.0594 -0.228373 -2.11384 1.66985
4521 1 12.2144 1.7068 19.0283 1.3433 0.789548 1.43219
4572 1 12.186 5.24359 18.9776 -0.209005 -4.08835 0.0916076
4575 1 13.8801 5.22023 20.7367 1.76137 -2.18642 -0.983958
4523 1 12.1139 3.38881 20.7898 -0.223616 -1.34243 0.194493
4527 1 15.7118 3.36218 20.8388 1.40026 -0.108075 -2.65036
4524 1 13.9601 1.67439 20.6329 0.407988 3.15271 3.34101
4525 1 15.8341 1.76303 19.0137 -2.20097 -0.592974 -4.03205
4573 1 15.7428 5.28599 18.9608 3.2476 -1.04551 -2.63496
4580 1 21.0641 5.12949 20.7443 -2.98997 1.62298 -2.63249
4577 1 19.279 5.15319 19.0363 -0.0869718 -0.219621 1.90411
4526 1 17.515 3.405 19.1807 2.08972 -1.07929 -0.990147
4529 1 19.3329 1.61662 19.0079 -1.57577 -0.0457893 -0.778382
4531 1 19.3444 3.54644 20.7642 -2.66273 -1.84768 -1.61354
4576 1 17.3956 5.17885 20.8324 -0.640123 0.56531 2.58404
4528 1 17.524 1.58909 20.6578 -1.57525 -0.554 2.57013
4530 1 21.0637 3.3867 19.0588 0.361829 -1.42791 -0.99157
4532 1 20.9884 1.55356 20.7781 -0.320213 -0.882244 1.73272
4563 1 3.42632 7.11942 19.1762 0.597922 -1.70238 -2.45458
4654 1 3.53386 10.5968 19.1183 -0.0297412 -4.41467 -2.54967
4653 1 1.69232 8.88419 19.0904 1.38351 -2.49332 0.989114
4607 1 1.7089 7.06183 20.9289 -0.320005 -3.11181 -0.115528
4656 1 3.58627 8.87651 20.9366 0.565399 -0.730736 1.1383
4655 1 1.80059 10.6487 20.9027 -1.50279 1.03015 2.02402
5186 1 5.22474 7.09598 20.8553 0.937292 -4.42593 -0.730368
4609 1 5.28276 8.90555 19.0937 2.82754 1.76827 -3.41484
4611 1 5.23927 10.6998 20.857 1.26546 1.02655 -1.07062
4562 1 6.97384 7.07726 19.0864 0.63847 1.79453 -1.77475
4610 1 7.05589 10.656 18.9772 0.125035 0.674526 2.52701
4613 1 8.84471 8.81554 18.9958 2.50308 0.198876 -1.85178
4567 1 8.76506 7.11094 20.7592 -3.07076 1.61187 0.530832
4615 1 8.85871 10.6979 20.7308 -0.275405 2.44923 -0.533942
3984 2 7.04543 9.0016 20.7938 0.871478 2.27309 -0.831743
5241 1 10.5441 8.82802 20.7808 -0.663294 -2.02581 -2.05088
4617 1 10.4603 6.98416 19.1019 3.83491 2.69778 1.04586
4614 1 10.5297 10.691 19.0209 2.16317 0.719955 0.560419
4618 1 14.1097 10.5651 19.069 -2.77788 -2.0141 1.30082
4570 1 13.8634 6.95421 19.0318 -1.06584 2.01561 -3.42459
3992 1 12.2187 8.8052 18.9982 5.39369 -2.5611 -0.549457
4571 1 12.2322 7.03272 20.7789 0.141782 0.555177 1.32066
4621 1 15.8626 7.01294 20.6764 -2.20394 -1.71121 -0.485038
4623 1 15.8494 10.6521 20.8172 -4.64548 0.409493 0.783942
4619 1 12.2626 10.6285 20.7068 2.83412 -0.358442 -0.0521073
4620 1 14.1554 8.90695 20.7321 1.94576 -1.60038 1.01904
3372 2 15.7831 8.764 18.9374 -1.70767 -0.368412 -0.687751
4628 1 21.1011 8.81232 20.8829 1.4267 2.01288 2.49926
4578 1 21.161 7.04076 19.0928 1.7376 0.768841 -0.319262
4574 1 17.6028 7.0308 19.0919 0.239063 -4.30728 0.978861
4622 1 17.5198 10.6123 19.1115 -1.41036 -0.707635 3.08981
4003 1 19.3346 8.78643 19.217 0.323386 1.12042 1.28446
4579 1 19.3371 6.94068 20.771 -1.23851 3.7047 3.329
4625 1 17.504 8.80812 20.7418 2.14629 1.7436 5.63285
4624 1 19.3509 10.5682 20.8661 1.87409 1.86811 0.649556
4052 1 21.0665 10.5991 19.2549 -5.88809 0.234184 -2.03908
5182 1 3.45579 3.58533 22.4969 -0.176946 -0.37197 0.00943
5181 1 1.68572 1.78493 22.5392 -0.378705 2.85488 -0.553859
5229 1 1.76414 5.36345 22.7332 -1.84703 1.7913 -0.357369
5184 1 3.42403 1.87984 24.2564 0.594042 1.38054 -0.476697
5183 1 1.69264 3.57683 24.2894 3.89331 0.945186 2.72893
5232 1 3.39922 5.39656 24.3466 -1.04804 2.04839 -0.69238
5805 1 1.62752 1.79654 26.0529 3.04069 -1.27098 2.37807
5806 1 3.38233 3.56354 26.0206 1.99126 1.98555 3.92302
5853 1 1.61878 5.3075 26.1751 0.372217 1.42809 0.673377
5137 1 5.18449 1.7126 22.4687 -2.60454 0.868392 0.619912
5809 1 5.18066 5.27985 26.0433 1.97734 0.0590287 0.928136
5139 1 5.25368 3.48189 24.2608 -3.2749 -2.72326 2.134
5761 1 5.20849 1.71304 26.1827 1.35797 1.5681 -1.64687
5185 1 5.2372 5.33086 22.5724 0.790456 2.26661 4.6948
5135 1 1.74477 0.135123 24.3232 -0.688308 -2.53589 -0.167532
4564 1 8.69788 5.17756 22.5172 -0.01406 1.44417 -0.203801
4561 1 8.54203 1.73126 22.5472 -0.241064 2.7396 1.48627
5142 1 10.2793 3.36041 22.5537 -1.75291 -0.153404 0.884938
5138 1 6.87143 3.42303 22.3892 -0.154179 0.461191 0.0836517
5192 1 10.428 5.20979 24.1163 -2.3203 -0.1876 -0.583465
5143 1 8.59639 3.46074 24.2376 0.154412 3.50199 -1.5628
5188 1 6.94659 5.27184 24.1826 1.55789 2.12446 -1.85803
5766 1 10.3023 3.49095 25.8864 -3.75452 -2.40452 1.09842
5813 1 8.69784 5.2963 26.0243 -3.05536 1.69716 -2.3486
5762 1 6.91712 3.49746 26.1097 0.0310209 -0.739523 -0.505993
5140 1 10.361 1.62584 24.2381 -0.730983 0.0935524 -1.80259
5765 1 8.59783 1.63362 25.9625 -1.18994 -2.15212 0.0511724
5717 1 6.84255 1.68014 24.3169 0.627157 -0.794199 0.338144
5149 1 15.6511 1.59707 22.3934 2.60366 -2.56665 -3.81155
5146 1 13.8403 3.39291 22.3543 -0.896258 2.07117 -0.488636
5197 1 15.5429 5.09835 22.3881 1.56026 1.78803 -0.16606
5193 1 12.2077 5.28407 22.472 -0.980889 2.06499 -0.740935
5145 1 12.1742 1.63411 22.3711 -1.09966 3.10793 -1.71997
5144 1 11.9727 1.65755 25.9351 -2.16783 -1.09827 0.540107
5196 1 13.8655 5.07862 24.161 -1.46313 2.27761 0.589739
5151 1 15.6669 3.38928 24.0337 -0.378613 -1.73333 -0.784962
5147 1 12.1021 3.40455 24.1852 3.30001 2.64747 -4.53435
5770 1 13.8603 3.27198 25.8227 -1.32434 1.16947 -2.14146
5821 1 15.6045 5.09634 25.9499 -2.51122 -3.47341 -3.85475
5817 1 12.1913 5.17539 25.9153 0.004184 1.38394 -0.511271
5148 1 13.9265 1.61095 24.2461 -3.22489 -1.1542 -3.34238
5774 1 15.6441 1.43963 25.8787 1.11875 -1.9392 -0.512634
5153 1 19.1889 1.60658 22.4604 -2.20054 -3.73617 0.522351
5150 1 17.5478 3.2391 22.3614 -1.73067 2.06305 -0.110071
5154 1 20.9254 3.26897 22.3639 -0.615993 -0.766628 -1.2223
5201 1 19.1901 5.20501 22.442 -0.841387 -2.68614 -1.95053
5155 1 19.1446 3.32941 24.0942 -2.30134 -0.629748 -2.85029
5200 1 17.3045 5.0135 24.0954 -1.18694 2.50643 0.299493
5158 1 20.9315 4.9718 24.1119 -1.32917 -1.56885 2.57692
5778 1 20.8775 3.19746 25.7217 0.512601 3.73946 0.92117
5826 1 18.9651 4.89686 25.8309 2.09611 0.080041 -0.114845
5825 1 17.2578 3.25169 25.9049 -0.148459 -0.769832 -2.43643
5152 1 17.3931 1.51302 24.1634 0.936576 -1.33468 0.293579
5156 1 20.8285 1.56197 24.0437 -0.309889 -1.6193 -3.34392
5777 1 19.1096 1.48855 25.7452 -0.797636 -0.197647 -0.124968
5230 1 3.55943 7.11035 22.6216 -1.99322 -0.124125 0.177261
5278 1 3.4799 10.6692 22.5812 1.44047 -0.462745 -0.0520164
5277 1 1.74762 8.80366 22.5967 2.60216 1.47411 1.95154
5231 1 1.76713 7.20739 24.469 1.6404 1.40984 1.50545
5854 1 3.42155 7.09212 26.2004 1.30393 0.782695 0.377258
5280 1 3.4627 8.91955 24.3457 2.50735 1.12637 -2.68299
5279 1 1.74524 10.6899 24.322 -0.72704 1.74485 -0.283167
5901 1 1.6793 8.92847 26.0874 0.495852 -0.522624 -0.185965
5902 1 3.52356 10.6576 26.1198 -0.244582 -2.17365 -2.6572
5187 1 5.27744 7.06201 24.3782 -1.36381 2.15886 4.26734
5235 1 5.31018 10.5634 24.381 -0.0999307 -0.736492 -0.22024
5857 1 5.17012 8.78067 26.0807 -0.0617749 0.966365 1.20677
5233 1 5.18169 8.9256 22.5933 -2.24968 1.33955 -3.99764
5234 1 7.05042 10.5728 22.4767 0.460736 -4.65066 1.91735
5190 1 10.4432 7.1679 22.5596 -1.21526 0.148379 0.203598
4612 1 8.71251 8.93699 22.5519 -2.68359 -0.30666 0.102167
5238 1 10.5842 10.6274 22.4801 2.82942 0.564728 0.691929
5237 1 7.02459 7.12461 22.574 -0.921673 0.663531 -1.49635
5240 1 10.4837 8.91013 24.1326 -3.35922 -0.94764 -0.408649
5858 1 7.04419 10.5828 26.1092 1.33714 -1.04202 0.927064
5861 1 8.85293 8.89444 25.9413 -0.875525 1.81334 2.15857
5236 1 7.05303 8.94816 24.2752 2.29383 -2.29186 0.585389
5239 1 8.76917 10.7071 24.2946 -3.89211 0.0589081 0.540311