# LAMMPS data file written by OVITO

694 atoms
2 atom types

0.0601187 42.3836632 xlo xhi
0.0651348 45.9200134 ylo yhi
0.0751536 52.9832498 zlo zhi

Masses

1 58.71
2 58.71

Atoms # atomic

2689 1 5.3348699 5.4576998 8.5785599
2734 1 3.6191299 7.1779599 8.6673899
2737 1 5.2839499 8.9194804 8.4951
2690 1 7.00102 7.11832 8.5429697
2736 1 3.4607001 5.3868399 10.3322001
3313 1 5.3413 5.3171601 12.0792999
2692 1 7.1581001 5.3730798 10.2393999
2784 1 3.54088 8.9458504 10.1857996
3361 1 3.6019399 7.10987 11.8249998
2739 1 5.3196602 8.8762398 11.9285002
2740 1 7.1592898 8.9049798 10.2480002
3943 1 7.00985 7.1162 11.8613998
3360 1 5.2176499 5.3977299 15.5605002
3315 1 6.9474202 5.3776999 17.2782002
4569 1 8.7125101 5.2319002 15.5834999
3316 1 7.0405798 5.3965402 13.6773005
3988 1 5.2288199 7.1535401 13.8128996
3939 1 5.2114 7.0562501 17.3174
3985 1 5.3898502 8.8207503 15.6529999
3944 1 8.6775799 7.1704102 13.7317
4568 1 8.7440701 7.0148702 17.2535992
3991 1 7.0704899 8.8118601 17.3738003
3364 1 8.8164997 8.8283797 15.5776997
2643 2 7.0055199 8.8254996 13.7417002
5879 1 20.9913006 10.5429001 25.8288002
6451 1 20.7073002 4.5805202 30.9305992
6500 1 18.9951 6.5897999 30.8327008
5870 1 20.6695004 6.3950801 29.2630005
6494 1 17.5237007 10.3297005 29.4225006
6497 1 18.929701 8.4097996 29.3087006
4668 1 19.1193008 10.2988005 27.6746006
5253 1 20.5811005 8.1985102 27.5242005
5924 1 21.1583996 8.5664797 29.8307991
7603 1 20.8474998 1.23246 34.3224983
7068 1 19.0172997 4.7272101 32.6523018
7024 1 20.7394009 2.99471 32.6896019
7023 1 17.2633991 4.7579499 34.4236985
6974 1 18.9615002 2.9376 34.4297982
6495 1 15.6004 10.3485003 31.0673008
7116 1 15.5123997 6.60426 34.4174004
7114 1 13.9239998 10.4323998 33.0107994
7117 1 15.4703999 8.4326096 32.6334992
7158 1 12.4786997 10.5535002 34.9253006
7115 1 13.7056999 8.3990097 34.4076004
6496 1 17.2045994 8.2476998 31.0881996
7160 1 16.0527 10.4742003 33.3695984
7120 1 16.1601009 8.6843205 34.9553986
5875 1 17.8134995 10.4621001 31.5905991
6503 1 19.4554005 8.8198099 31.5463009
7070 1 17.2164002 6.6382599 32.7125016
6499 1 19.962 11.1766005 31.9496002
7124 1 19.8824998 9.4271698 33.6988983
7118 1 18.1408997 10.9776002 33.7751007
7691 1 15.4846001 4.9242402 36.1921005
8268 1 14.2163 5.3449702 38.3358994
8267 1 15.9323998 3.6831901 38.3376007
7642 1 17.2740994 2.9798702 36.2491989
7598 1 19.1394005 1.29655 36.3409996
7648 1 19.4316006 3.5712199 36.6195984
7696 1 17.7199002 5.2589402 36.6034012
7699 1 17.9020996 5.5150299 38.9117012
8321 1 19.6944008 3.8357501 38.784401
7647 1 17.7164002 1.8427402 38.3031006
7738 1 14.2110005 11.2159996 37.0770988
7112 1 14.3835001 9.0635004 36.401001
7737 1 14.1084995 8.8828602 38.5639
7739 1 12.3485003 10.7361002 38.5479012
7689 1 13.7075005 6.8972102 36.4887009
7734 1 12.2157002 8.7491703 36.6654015
7741 1 16.4622002 9.1833296 37.4356995
7694 1 20.0291996 5.87503 37.2387009
7695 1 18.1865997 7.4942799 37.1882019
7740 1 16.1138992 7.1892901 38.7809983
7075 1 18.2642002 9.3042202 35.5676003
7119 1 16.1487999 10.8564998 35.5628014
7743 1 15.9388 10.9292002 38.8130989
8266 1 15.9663 7.0494699 36.6637993
7646 1 20.0056 7.5943499 35.4785004
8941 1 15.9183998 5.3666 43.7734986
8945 1 19.4615002 5.4626398 43.6663018
8894 1 17.7050991 3.6285501 43.8437996
8942 1 17.7056008 7.0657001 44.0770988
829 1 15.8476 5.2796102 47.3858986
205 1 15.9374 3.60395 45.4958
8899 1 19.4400997 3.69626 45.5425987
158 1 17.7366009 3.6568401 47.2596016
8943 1 15.8863002 7.0771799 45.7346001
209 1 19.4745007 7.0963001 45.5840988
206 1 17.7108994 7.0200801 47.2156983
810 1 0.106355 3.5687301 50.9107018
139 2 0.125442 0.121023 51.0
739 1 19.5252991 3.66832 48.974701
208 1 17.8090992 5.30476 48.991501
833 1 19.4538002 5.2034998 50.7593994
212 1 19.4799004 6.8994098 49.0360985
1688 1 10.6681004 22.9442998 3.2628
1689 1 12.3301001 22.9771996 1.5574501
1649 1 19.4262009 19.5354996 1.4460501
1696 1 17.6322994 22.8225003 3.24487
1651 1 19.4785004 21.2098999 3.1514599
1693 1 17.7359009 21.2409001 1.40369
1076 1 20.2371998 22.3267994 0.734195
1652 1 21.1781006 19.4508 3.23949
2213 1 8.8856096 15.8970004 5.0770001
2167 1 9.0998096 14.0778999 6.7933898
2837 1 9.0512896 15.9154998 8.2979002
2789 1 8.9631702 12.3472004 8.4873505
2168 1 10.6973 12.3823996 6.6433201
2166 1 10.7826996 14.1595001 5.0097799
2217 1 12.5073004 15.8388996 4.9151602
2793 1 12.3976002 12.3767004 8.58638
2841 1 12.4450999 14.1788998 6.7493902
2216 1 12.2355003 15.8878002 8.3998299
2214 1 8.90938 17.5963002 6.8574
1595 1 10.6246004 17.5977001 5.0487599
2313 1 12.4305001 22.9801998 5.1941199
2838 1 10.6767998 17.5914994 8.4589501
2219 1 12.3917999 17.5827999 6.7774301
2791 1 8.8177901 14.2139998 10.2693997
2840 1 10.5283003 15.8905002 10.2681999
2212 1 10.5351 12.4185 10.1926003
2790 1 12.2851 14.2580004 10.3123999
4084 1 7.0204101 15.9392996 17.3957005
4034 1 8.8160696 14.2626 17.1539002
3456 1 7.0943699 14.1525002 15.6089001
3460 1 6.9639302 15.8982 13.7063999
3415 1 8.7215595 14.1461001 13.8981
4038 1 10.5949002 14.2147999 15.6155005
4088 1 10.5969 15.941 17.3404999
3464 1 10.5404997 15.8297997 13.9195996
4087 1 8.8339501 17.7047997 17.4288006
4082 1 7.1542802 17.5333996 15.6444998
3463 1 8.7281704 17.5935002 13.8228998
4086 1 10.547 17.5625 15.6124001
6541 1 15.9762002 12.2903996 29.7479
6545 1 19.3712006 12.1710997 29.6611004
5927 1 21.1282005 12.4026003 27.9016
6594 1 21.0935001 14.0970001 29.7738991
6048 1 1.85069 19.4988995 29.6422005
6720 1 3.5108099 21.2723999 29.6149006
6669 1 0.114856 21.3502007 29.7222004
6540 1 14.1826 12.4273997 31.5179997
7164 1 14.1244001 12.3530998 34.8549004
7165 1 16.1004009 12.5565996 33.3244019
6544 1 17.7922001 12.6682997 31.6380997
6547 1 19.5617008 14.1815996 31.6308995
6672 1 3.5325899 19.5464993 31.4825001
7294 1 3.7446401 21.3470993 33.1874008
7293 1 1.80074 19.6005001 33.2117996
7251 1 5.29248 21.1704006 35.0634003
6671 1 1.89176 22.8754006 33.2546005
7341 1 3.5451801 22.8864002 31.4307003
7344 1 3.6306401 22.9277 35.1223984
7290 1 0.140056 21.2441998 33.168499
6668 1 0.172956 19.5492001 31.3684006
6092 1 0.190156 22.9808006 31.5098
6627 1 5.3945198 21.3743992 31.4347
7250 1 7.1668201 21.2243004 33.2661018
6676 1 7.21415 22.9895992 31.4452992
7300 1 7.01016 22.9265996 34.9528008
7785 1 12.3437996 12.4859 36.6206017
7788 1 14.1578999 12.6602001 38.7312012
7789 1 16.0489006 12.6458998 36.9273988
1024 1 17.7115994 19.5202008 52.651001
1026 1 21.1861992 21.3318005 51.0239983
1022 1 17.6165009 21.2696991 50.8372994
1025 1 19.3831997 19.6478005 50.9982986
1073 1 19.3845997 22.8447 51.0098991
1028 1 21.1818008 19.5970993 52.7280998
1775 1 1.73375 28.2691002 3.2293601
1773 1 3.62832 28.1973991 1.68583
1152 1 1.90684 26.6156006 1.54696
1726 1 3.56303 24.7861004 1.57276
1729 1 5.2762098 26.5205994 1.63857
1692 1 14.0261002 23.1634007 3.3387699
1686 1 10.6973 24.8756008 1.5879001
1736 1 10.7664004 26.5935993 3.3745799
1740 1 14.2270002 26.5583 3.3587699
1737 1 12.4832001 26.4731999 1.55474
1690 1 14.1577997 24.6088009 1.5591901
1027 2 21.0314999 23.0655003 3.27981
1698 1 21.0011005 24.7166996 1.5188
1068 2 19.5408993 28.1875 3.3212299
1694 1 17.7077999 26.5396004 3.3071201
1748 1 21.0475998 26.3036003 3.21821
1699 1 19.3222008 24.6056996 3.2565501
1742 1 17.8551006 28.3465004 1.5906201
1697 1 17.7285004 24.7057991 1.53046
1746 1 20.8955994 28.0086002 1.36972
1794 1 21.0552998 31.8127003 1.3396
2397 1 1.64749 26.6618996 5.10462
2444 1 3.38132 26.6182995 6.87326
9259 2 1.78131 28.3034992 6.93012
2974 1 3.40727 24.6495991 8.4554501
1772 1 1.6835801 24.7576008 6.7045799
2977 1 5.34022 26.2854996 8.6114798
2355 1 5.2948299 28.1516991 6.8799602
2310 1 10.6752005 24.7206002 4.9554502
2361 1 12.4096003 26.5202999 5.0907302
2364 1 14.1564999 24.7096997 4.9679098
2370 1 21.0105 28.0372009 5.1272001
2445 1 1.85519 29.9524002 5.0174499
2448 1 3.50911 29.9473 6.8078599
2351 1 1.68421 30.0181999 8.6012097
3025 1 5.2491102 29.9323998 8.5613804
1844 1 20.9412004 31.8297997 5.3166299
3022 1 3.55615 26.4545994 10.0965996
2975 1 1.70379 24.6562996 10.1868
3018 1 1.72092 28.2087002 10.1949997
3649 1 5.24649 28.1679993 10.2161999
3601 1 8.8836298 28.2640991 10.2851
3602 1 6.9819598 28.1868 12.0071001
2979 1 10.6548996 28.3125 11.9943
3023 2 3.41942 29.9312 10.2852001
3031 1 8.7254801 31.8164997 10.2065001
3028 1 6.96939 30.0361996 10.2770004
3650 1 6.9436302 31.7728005 12.0096998
3654 1 10.5691996 31.7929993 12.073
3032 1 10.6159001 30.0216007 10.2372999
3605 1 8.7636996 28.2360993 13.7960997
3655 1 8.6774102 31.7236004 13.7430001
3652 1 7.0131102 29.9118996 13.7586003
4277 1 8.7718802 30.0648003 15.4909001
4279 1 8.7590304 31.7416992 17.1711998
4325 1 8.8484098 33.4780998 15.5115996
4278 1 10.4504004 30.0142994 13.7184
4280 1 10.5200005 30.0279007 17.2884998
3704 1 10.5546999 33.5763016 13.7112999
4328 1 10.4069004 33.4812012 17.3358994
3653 2 12.2529001 31.7332993 13.8858996
4281 1 12.1899996 30.0034008 15.5286999
3132 1 12.1454001 33.4247017 15.5892
4283 1 12.1672001 31.7299996 17.2329006
4850 1 5.3389301 28.2716007 20.9652996
4855 1 8.8007803 28.2973995 20.8190003
4852 1 7.0394902 26.532301 20.9067994
4900 1 6.94799 29.8603992 20.9186002
5473 1 5.2808099 26.4799004 22.6662998
4851 1 5.3610101 28.1739998 24.4270993
5477 1 8.77526 26.4794007 22.5594006
5476 1 7.0282502 26.4461003 24.2700005
6102 1 8.6756201 28.2236996 24.1998005
5521 1 5.3234401 29.981701 22.5991993
6149 1 8.6954403 29.8876992 22.6271992
5524 1 6.9958502 30.0086994 24.4258995
6717 1 1.82094 23.0300007 29.6814995
6768 1 3.6734801 24.6336994 33.2377014
6670 2 5.3481202 24.5499993 35.0615006
6675 1 5.3800101 24.6369992 31.4295998
7298 1 7.0177698 24.6362992 33.2179985
9218 1 7.1301298 28.1749992 43.9291992
9170 1 7.1592598 24.8167 43.9180984
8551 1 8.8424798 24.7147999 42.0849991
8599 1 8.8066702 28.2894001 42.1230011
9179 1 7.2948599 26.4792996 42.2425003
8605 1 10.5626002 28.1802998 43.8768998
8600 1 10.5279999 26.4885998 42.0889015
9174 1 10.6441002 24.8348007 43.7885018
9306 1 0.119756 31.7987004 43.8219986
9223 1 8.7977505 28.2737999 45.6451988
9220 1 7.0924101 26.5193997 45.6218987
9175 1 8.8441096 24.7285996 45.6978989
9229 1 10.4989996 26.4305992 45.5862999
1150 1 3.6139701 28.2451992 50.9034996
1102 1 3.6375699 24.7805004 51.0531998
1103 1 1.87814 24.9048004 52.6338997
1149 1 1.93595 26.5251007 50.996399
1151 1 1.86462 28.1795998 52.8300019
1059 1 5.1610198 24.9009 52.8040009
1105 1 5.3716602 26.5648003 50.9748002
1107 1 5.38062 28.2033997 52.7363014
1075 1 17.6124993 22.9995004 52.6190987
1074 1 21.0680008 24.6865006 50.7778015
1124 1 21.0151997 26.3990994 52.5088005
1745 1 19.4869004 24.5069008 52.5253983
1123 1 19.2889996 28.1802006 52.4959984
1120 1 17.5953007 26.3609009 52.4986
2562 1 21.1954994 42.3647995 8.6849699
1939 1 21.1331997 43.9990998 6.8383899
2612 1 21.0823994 44.1539002 10.4228001
6867 1 5.22895 38.8050003 34.9807014
6960 1 3.45854 40.5010987 34.8779984
6915 1 5.2890401 42.3277016 34.967701
6916 1 6.9242502 40.5088997 35.2201004
7534 1 1.67695 37.085701 36.8963014
7537 1 3.5093901 38.7705002 36.7448006
7489 1 3.4368 37.1792984 38.6325989
7491 1 5.32726 38.8641014 38.6435013
7490 1 6.9309102 38.7061005 36.8988992
7581 1 1.79605 40.5390015 36.9267998
7584 1 3.6451099 40.5825997 38.5741997
7582 1 3.6297601 42.1759987 36.8097
7539 1 5.3210201 42.2643013 38.6473007
7540 1 6.8607102 40.5343018 38.4944
7538 1 7.0848298 42.2991982 36.8167
6926 2 19.4099999 45.8325997 38.4174996
7652 1 21.1327992 45.6934014 36.6348
8157 1 1.7411601 37.1026001 40.3137016
8208 1 3.62535 38.8265991 40.3549996
8154 1 0.0910561 38.8342018 40.2571983
7535 1 1.8084901 40.5583992 40.2755013
5208 1 24.4850006 5.0155301 24.0112991
5833 1 26.0732994 4.93613 25.595501
5163 1 26.3297997 3.25985 24.1877995
5212 1 28.1625996 5.2874899 24.5307007
5786 1 28.1385002 3.3773899 25.8631992
5837 1 29.9718 5.3653998 26.3146
5830 1 24.0979004 6.6480398 25.8038998
5256 1 24.7331009 8.8377705 24.3216992
5255 1 22.9860992 10.6036997 24.4375
6546 1 24.5126992 8.7478504 26.5188999
5204 1 22.4811993 8.6212502 25.7623997
5211 1 26.3218994 6.9586902 24.2213001
5834 1 26.2567005 6.96551 26.4078999
5878 1 24.9158994 10.9504004 26.1487999
5254 1 26.7352009 9.1266003 26.4797993
5260 1 28.1968002 8.9306898 24.6117001
5885 1 28.4183006 7.27946 26.4193001
6406 1 24.2336006 2.96607 29.1499996
7025 1 22.4431992 4.7255998 29.2033005
5832 1 26.1574001 1.35156 29.1240006
6459 1 26.0842991 3.1690099 27.2964993
7080 1 24.2241001 4.65023 27.2854996
5829 2 26.3505993 5.2093301 28.0869007
7030 1 26.3768997 3.6269701 29.7707997
6404 1 22.4465008 2.89219 30.9067994
6461 1 30.2835999 5.6542602 30.1156998
6410 1 28.8167992 3.9961 30.1534004
6413 1 29.7845001 1.84323 29.6082993
5787 1 28.0809002 3.55578 28.1809998
5791 1 30.2541008 3.524 27.991501
5788 1 28.2567997 1.52862 27.5461998
6414 1 31.7315007 3.5864101 29.8360996
6454 1 26.9799996 5.7453799 30.2660999
6411 1 28.1252003 0.071436 29.6811009
5925 1 21.4123993 10.1203003 28.0263996
5876 1 22.4909992 6.3821902 27.5440007
6501 1 25.1917 7.5880299 30.3278999
6450 1 23.3323002 9.3412199 30.283001
6498 1 25.1392994 9.2238598 28.5070992
5926 1 23.4356995 10.9105998 28.1814995
6596 1 22.8290997 8.5105896 28.1110992
6599 1 21.5280991 10.9817 30.0930996
5836 1 28.5585995 5.8049598 28.3535996
7706 1 26.8731996 7.5416999 28.5841007
6402 1 24.3577995 1.23223 30.9587994
6355 1 22.6131993 1.22351 32.6627007
6407 1 24.8071003 1.84132 33.2369995
7031 1 25.3488999 4.13167 33.7364998
7027 1 23.0699997 1.7530101 34.7759018
7076 1 23.6396008 5.7826901 33.8462982
7029 1 26.5937996 1.75953 31.4160996
6987 1 26.6583996 0.166492 34.9832994
6412 1 28.7511997 2.0718701 31.6681996
6415 1 30.2301998 3.8371501 31.9636002
7034 1 26.9874002 3.9291402 32.0183983
6409 1 26.9715004 2.14799 33.6316986
7037 1 30.1448002 1.78393 33.4202004
6416 1 31.5874005 1.7774201 31.5277996
6367 1 28.2534008 0.143912 33.0808983
6456 1 25.3402996 5.8268099 32.0330009
7125 1 21.6697006 9.3964195 32.0065002
7069 1 23.5140991 7.5469098 32.0093002
7748 1 21.7091007 7.5534601 33.8240013
7601 1 21.2231007 2.0002799 36.4776001
8274 1 21.2457008 1.9339 38.7984009
6978 1 23.4561997 4.0043201 35.5565987
7033 1 25.2152996 2.2407 35.4175987
7653 1 23.2675991 2.16359 37.1114998
7650 1 21.5105992 4.03125 37.2490997
6983 1 24.6914997 0.267527 36.728199
7604 1 22.8400994 0.13139 38.3384018
7072 1 21.7686997 5.8831402 35.5630989
164 1 21.3001003 3.60672 47.3059006
213 1 22.9736996 5.3458901 47.360199
162 1 21.2852001 5.3058 45.6039009
210 1 21.2688999 7.1476498 47.3711014
786 1 21.3066998 3.4040101 50.7415009
163 1 22.9577008 3.6108799 49.1269989
837 1 22.983101 5.4170599 50.8193016
188 1 42.3305016 1.8347401 49.2230988
812 1 42.3092003 1.9327 52.6418
184 1 38.8569984 1.86023 49.1711006
187 1 40.6044998 3.6092701 49.1775017
802 1 38.9104004 1.88765 52.5816994
808 1 38.9140016 3.6269801 50.8837014
806 1 40.6515999 3.6391201 52.6072006
758 1 38.8157006 0.175784 50.9323998
763 1 40.5592003 0.136223 52.8054009
809 1 40.6113014 0.124123 49.353199
834 1 21.2623997 7.1600499 50.6971016
215 1 23.0410995 7.2418499 49.0182991
1655 1 22.9664002 21.0526009 3.36623
1653 1 22.9274998 19.5275994 1.4701901
1701 1 22.7492008 22.8614006 1.56617
2853 1 22.8754006 15.8729 8.5504799
2806 1 24.7980995 15.9421998 6.75206
2857 1 26.4354992 16.0461998 8.4721203
2231 1 22.9860992 17.5674 6.83458
2280 1 24.625 19.4067993 6.8076501
2901 1 23.0261993 19.4071007 8.5268698
2854 1 26.4111996 19.4050999 8.5296602
2284 1 26.4326 17.8073998 6.71242
2856 1 24.7579003 15.9125996 10.2818003
2810 1 23.0965004 17.7080994 10.2566004
2904 1 24.7341004 19.4517002 10.2721996
2230 2 26.5433998 17.6770001 10.3129997
5348 1 22.9860002 12.4974003 26.2786007
9150 1 31.8883992 21.3439999 43.9524994
461 1 30.1623993 21.2248993 45.6915016
414 1 31.7698002 21.2719994 47.3716011
9200 1 33.6036988 21.2091007 45.6865006
1077 1 22.8101006 22.9871998 50.8630982
1031 1 22.8973008 21.3318005 52.6349983
1088 1 31.9146004 22.9512998 52.6839981
1091 1 33.5835991 22.9888 50.8941994
1092 1 35.3330994 22.9493008 52.6829987
1752 1 24.5846997 26.5126992 3.2486801
1751 1 22.469101 28.0252991 3.3470299
1759 1 26.3001003 28.1569004 2.224
1750 1 24.2828999 27.9608002 1.26378
1753 1 26.3082008 26.2497006 1.2868
1756 1 28.0195007 26.4587994 3.2516301
1758 1 30.2581997 27.8255005 3.1946001
1754 1 28.5904007 27.9564992 1.20674
1713 1 33.6394997 23.0795994 1.53844
1710 1 32.0101013 24.5879002 1.4645801
1714 1 35.3801994 24.7292996 1.41714
1761 1 33.7030983 26.4862995 1.56205
1766 1 42.3013001 26.6082001 3.1865301
1768 1 38.8162003 26.5627995 3.33126
1143 1 38.6988983 28.2542992 1.49817
1718 1 40.5943985 26.5919991 1.4612301
1770 1 42.3650017 28.2826996 1.5661401
1796 1 21.2441006 30.0379009 3.28807
1843 1 21.3239002 33.4659004 3.2855201
1797 1 22.5683995 29.6830006 1.2577
1755 1 24.1772995 29.3782005 3.29723
2469 1 22.9302006 31.6046009 4.4348998
1800 1 24.8995 31.5986004 3.3008399
1803 1 25.9697 33.8642998 3.4591999
1848 1 23.7155991 33.6806984 3.29355
1799 1 22.9265996 31.6569004 2.2077701
1801 1 24.9769994 30.2957993 1.26158
1798 1 24.6408005 32.8578988 1.31599
1845 1 22.6714001 33.8092003 1.2388001
1808 1 26.5156002 30.1200008 3.2791801
1849 1 26.5345001 34.1710014 1.09218
1757 1 28.3647003 28.8687992 3.15609
1804 1 26.6462002 32.0183983 2.0397
1183 1 28.5149002 31.8787004 0.739628
2433 1 30.0741005 29.9582996 3.98783
2426 1 28.4613991 31.3792 3.1261799
1807 1 30.4841004 32.1330986 2.9833902
1852 1 28.4867001 33.4970017 2.2489801
1805 1 30.0918007 29.9799996 1.4853
1853 1 30.4034004 33.7492981 1.03418
2382 1 27.3813992 29.9582006 1.20731
2477 1 28.2684994 33.6819 4.3764801
1184 1 31.9897004 31.8239002 1.17004
1856 1 31.9081002 33.8291016 3.0261099
1181 1 32.0881004 29.8593006 3.07196
1820 1 42.3151016 30.0294991 3.3138101
1816 1 38.8530998 30.0228996 3.2566099
1147 1 40.6553002 29.9454002 1.52949
2378 1 26.3966007 28.0942993 4.5078702
2374 1 24.3108997 27.8171005 5.2192998
2377 1 26.4248009 26.1502991 5.2351298
2379 1 26.4993992 28.3110008 6.80439
2429 1 28.6833992 27.9729004 5.3029699
3049 1 30.2089005 27.9410992 7.0485101
3002 1 28.2903996 27.9911004 8.7140103
2383 1 31.7035008 28.2105007 5.1601601
2970 1 42.2858009 24.7047005 8.40798
3021 1 42.2811012 26.4657994 6.7154198
2395 1 42.2341995 28.3449001 8.4666701
1769 1 40.5786019 26.6452008 4.9362102
2390 1 38.6570015 28.2584992 5.1135802
2394 1 40.5713005 28.3195992 6.70191
2421 1 25.1753998 30.0538998 5.1731601
2422 1 24.6926995 32.8106003 5.1575399
2471 1 22.4992008 33.8303986 5.3087001
2423 1 22.6793995 29.6289006 5.3817001
2424 1 24.4783001 29.757 7.2867999
2418 1 24.5354996 33.7570992 7.1554499
3045 1 22.9284992 31.7390995 6.8227301
3670 1 24.5167008 31.8477002 8.7540903
3046 1 25.7651005 31.7289009 6.9719802
3000 1 26.3379002 30.0669994 8.6698399
2425 1 26.7201004 31.9916992 4.6234002
3097 1 26.5702992 33.7811013 8.4439602
2473 1 26.5361004 33.9412994 5.8714
2474 1 29.375 31.9384996 5.04461
2430 1 30.4738999 33.8824006 5.1872201
3052 1 28.1954002 29.8258991 7.4426399
2427 1 27.6809006 30.1131992 5.2550101
2472 1 27.7877007 31.989401 6.6150399
2428 1 29.9613 30.0053005 6.2124801
3007 1 30.1439991 29.9393998 8.6360197
2476 1 28.6413002 33.9702988 6.8681598
2431 1 30.2210007 31.9137002 7.1821199
3050 1 28.3106995 31.8556996 8.8772002
2432 1 31.8264008 31.6835003 5.17171
3053 1 31.9626008 29.8206005 7.0558701
523 1 42.2593994 30.0583992 6.7861901
2441 1 40.5150986 29.9787998 4.9530502
3020 1 42.2392998 26.4701004 10.2196999
3685 1 37.0433006 29.8619004 12.1956997
3682 1 35.3941994 31.7126007 12.1836004
3733 1 36.9020996 33.3597984 12.2826004
3729 1 33.610199 33.4911995 12.1850996
3686 1 38.7886009 31.7119007 12.0971003
3684 1 35.3109017 30.0459995 13.9871998
4308 1 35.4417 30.1725006 17.3251991
4305 1 33.6231003 29.8959008 15.5516997
4311 1 35.7052994 33.1487007 17.1562996
4307 1 33.6291008 31.7402992 17.1744003
4353 1 33.6074982 33.4207001 15.5916004
3732 1 33.6104012 31.7936993 13.9397002
4306 1 36.0502014 32.7228012 14.5250998
4309 1 37.0074005 30.3278008 15.5030003
3688 1 38.9804002 30.0214996 13.7543001
4312 1 38.6571007 30.0158997 17.3901997
4360 1 38.4908982 33.3396988 17.1509991
4357 1 38.8983994 31.8325005 15.4427996
3736 1 38.7058983 33.5012017 13.9018002
4930 1 35.3423996 31.7660008 19.0946007
4933 1 36.9888 29.9811994 19.1231995
4981 1 37.0864983 33.4000015 19.1282005
4934 1 38.6866989 31.7166004 19.1574993
6707 1 33.6360016 24.7166004 31.4801998
6756 1 35.4477997 26.3924999 31.5251999
7377 1 33.5615006 26.5667 33.176899
7380 1 33.7873001 24.8460008 35.0644989
7378 1 35.426899 26.5881005 34.879799
7329 1 33.6568985 23.0324001 33.1880989
7330 1 35.4178009 23.0272999 31.5158005
7331 1 35.3958016 23.0569992 35.0870018
7335 1 37.0182991 24.7665997 35.1110001
7381 1 37.1012001 26.4125004 33.2386017
7333 1 37.1162987 23.0471993 33.3893013
6711 1 37.2056999 24.7430992 31.4881993
7951 1 30.1359005 24.7325993 38.6772003
7952 1 31.8085003 23.0573998 38.6374016
8000 1 31.8516006 26.5758991 38.6141014
8003 1 33.4729996 28.3729 38.5089989
8004 1 35.4025993 26.7992993 38.7584992
7955 1 33.4835015 24.9207994 38.7312012
8007 1 37.2807999 28.4176998 38.5876007
8052 1 35.4500008 30.0158005 38.5345001
8104 1 38.7620011 33.4943009 38.5007019
8059 1 40.5882988 31.8318997 38.5531998
8011 1 38.929001 30.1168003 38.7094002
8055 1 37.1209984 31.7525006 38.6164017
8527 1 30.2668991 23.1046009 43.8753014
8575 1 30.0426998 24.7436009 42.1706009
8621 1 30.0615006 26.5077 40.3830986
8573 1 30.0680008 22.9978008 40.4193001
8624 1 31.8416996 26.6317997 42.0477982
8576 1 31.9557992 24.8946992 43.8861008
9249 1 33.6929016 26.7462998 43.7826996
8579 1 33.5737992 24.9051 41.9751016
8628 1 35.2999001 26.7572994 41.9726982
8627 1 33.6296997 28.4589997 42.0343018
8625 1 33.5080986 26.7271996 40.3852005
9253 1 37.089901 26.6408997 43.8191986
7956 1 33.6141014 23.2005005 40.3652992
9201 1 33.5573998 23.0951004 43.9490014
8577 1 31.9153996 23.1669006 42.0519981
8680 1 37.1818008 28.2709007 42.0685997
8629 1 37.1435013 26.5237999 40.3409996
8676 1 35.3790016 30.1137009 42.101799
9297 1 33.6525002 29.9557992 43.8218994
8673 1 33.6114006 30.1333008 40.1806984
9250 1 37.0424004 29.9825002 43.8296013
8679 1 37.0670013 31.7763996 42.1537018
8732 1 42.2377014 33.5255013 42.0699997
8725 1 37.1116982 33.4991989 40.2647019
8677 1 37.1012993 30.0688992 40.3686981
8681 1 40.6595993 30.0771008 40.3195
8678 1 38.8619004 30.0097008 42.1963005
9302 1 38.8283005 31.8780004 43.7888985
8683 1 40.5287018 31.6128006 42.1531982
8728 1 38.8658982 33.5726013 42.1102982
8729 1 40.4468994 33.3777008 40.418499
9199 1 30.0597992 24.8414994 45.5598984
463 1 30.0147991 23.0307999 47.2737999
465 1 33.5280991 23.0907993 47.4030991
462 1 31.8309994 24.6907006 47.3981018
9252 1 35.3432999 26.5949993 45.5419007
9251 1 33.5171013 28.3528996 45.6535988
9203 1 33.6692009 24.8045998 45.7675019
466 1 35.4992981 24.781601 47.4784012
514 1 35.2985993 28.3150005 47.3983994
515 1 33.6879998 26.5835991 47.3326988
8574 2 37.0129013 26.6051998 47.4053002
9208 1 37.1088982 28.2336998 45.5908013
8626 2 35.4474983 30.0797997 45.6374016
9307 1 40.5237999 32.0442009 45.6277008
9352 1 38.8946992 33.6624985 45.4575997
9356 1 42.3408013 33.5811005 45.5208016
1079 1 22.9419004 24.6021996 52.6761017
1131 1 26.4129009 28.2591992 52.6413002
464 1 31.9265004 24.6734009 50.9067002
513 1 33.7048989 28.2891998 49.1511002
467 1 33.7282982 24.6779003 49.1197014
1086 1 31.9636002 26.4543 52.5527001
516 1 35.3591004 28.2570992 50.9715996
1090 1 35.306099 24.6662007 50.9738008
1137 1 33.7956009 26.389 50.7439003
1140 1 35.3583985 26.5287991 52.7626
471 1 37.0535011 24.8208008 49.2641983
1141 1 37.0317993 26.4955006 50.8905984
519 1 37.1624985 28.1324997 49.1697998
1176 1 24.4076004 29.9641992 52.2103996
1175 1 22.7784004 31.8673992 52.6236
1174 1 24.6973 31.9375992 50.7673989
1224 1 24.6135006 33.9454002 52.4202004
1179 1 26.3738995 31.9109002 52.6068001
1177 1 26.5564995 30.0044994 50.9874002
1228 1 28.3987999 33.8624002 52.4229012
1802 1 30.3092003 31.7614994 52.2234993
1225 1 28.2248001 31.9391004 50.8606988
1180 1 28.6014004 30.0249004 52.3395996
1272 1 24.8337002 37.0900002 3.1912601
1847 1 22.7625008 35.6421013 3.3701401
1846 1 24.6065007 35.3277016 1.65202
1851 1 27.0393009 35.5745011 3.22367
1276 1 28.4862004 37.2406998 3.3373699
1850 1 28.5261994 35.6330986 1.20443
1855 1 30.0086002 35.2720986 3.2047
2470 1 24.5359001 35.3269005 5.02424
1899 1 26.4325009 37.157299 5.1280499
2475 1 26.5779 35.7046013 7.1294599
1897 1 28.4074993 35.7955017 5.2653198
2610 1 21.3022995 45.7234993 8.5985899
1991 1 22.8202992 45.7047997 6.8672
1943 1 22.9218998 42.3075981 6.8385
1992 1 24.6891003 44.1110992 6.84266
2566 1 24.6502991 42.3830986 8.6591196
2614 1 24.5855999 45.8549004 8.5019999
3730 1 35.2703018 35.2645989 12.0839996
2615 1 22.9983998 45.9040986 10.3837004
2613 2 24.6310005 44.0691986 10.2965002
2567 1 22.8216 42.3842011 10.3860998
3731 1 33.5909004 35.3021011 13.8557998
4354 1 35.3510018 35.1044998 15.5173998
3683 2 37.0681992 35.1657982 17.3188992
3735 1 36.9642982 35.1035004 13.8816996
4358 1 38.8273011 35.2036018 15.5663004
5742 1 31.7630997 45.834301 26.1679993
5071 1 30.0650997 45.7145005 24.3999004
5738 1 28.3052998 45.6575012 25.948
5690 1 28.3068009 42.2571983 25.9815998
5116 1 28.1326008 43.9367982 24.2117005
5069 1 30.0662003 42.3260002 24.3132992
5694 1 31.7919007 42.4804993 26.2113991
5120 1 31.8596002 44.1040993 24.3313007
5695 1 30.0865994 42.3754006 27.8055001
5740 1 28.3598995 44.0938988 27.8556996
5743 1 29.9409008 45.9086 28.0216007
5741 2 31.7315007 44.2338982 27.9930992
6985 1 26.2178002 45.4403992 31.2352009
6982 1 24.5373001 45.5527001 33.0423012
7602 1 22.8542996 45.5248986 34.6400986
6362 1 29.9083004 45.7396012 31.4554005
7522 1 35.3638001 38.7919998 36.8320008
7524 1 35.4021988 37.0834999 38.5858994
7525 1 37.0723 36.9995004 36.8628998
7530 1 42.3103981 38.8391 37.0014992
7531 1 38.665699 38.8574982 36.7328987
7528 1 38.6801987 37.2550011 38.6062012
7532 1 42.2383003 37.0858002 38.6287995
7573 1 37.0139008 40.6710015 36.862301
7572 1 35.3180008 40.5960999 38.6346016
7580 1 42.3139 40.605999 38.5159989
7576 1 38.7840996 40.5866013 38.6944008
8770 1 35.4308014 38.7102013 43.7601013
8148 1 35.4586983 37.0834999 42.1105003
8146 1 35.3377991 38.852501 40.2993012
8149 1 37.042099 37.1240997 40.4026985
8773 1 37.1287994 37.0639 43.8941994
9350 1 38.8209 35.3260002 43.8019982
8152 1 38.8193016 37.1016998 42.1271019
8731 1 40.5284996 35.2649002 42.1399002
7527 2 38.9249002 38.8613014 43.7459984
8150 1 38.7131005 38.8526994 40.4448014
9353 1 42.2967987 35.2953987 43.7829018
8196 1 35.4632988 40.6455994 42.1435013
8197 1 37.0738983 40.5933991 40.3667984
8821 1 37.1852989 40.5060005 43.8466988
8200 1 38.8368988 40.6049996 42.1521988
9355 1 40.5460015 35.4065018 45.5312996
1227 1 26.5648003 35.6651993 52.4281998

Velocities

2689 3.7858 -1.5881 1.99543
2734 -0.320399 -0.8080001 -0.903412
2737 2.80002 -0.875205 -4.7505203
2690 0.761523 -2.6577101 -0.969434
2736 -1.6326601 -0.873449 0.398124
3313 -2.0940101 1.74382 -2.34692
2692 -3.0839601 -0.226034 -0.5700701
2784 -2.86362 1.04549 -2.0720799
3361 -0.844713 -1.55172 -0.176409
2739 3.1031001 -3.5264299 -0.227362
2740 0.665493 1.24004 1.50128
3943 -1.15767 0.737622 0.910697
3360 -0.74588 0.383259 -3.55285
3315 -0.925715 1.51665 0.928274
4569 3.0517299 -2.4903901 3.7089601
3316 -0.127638 4.1717801 2.40047
3988 -1.92518 -1.89227 1.60718
3939 -0.6260571 -1.8506402 -0.5103171
3985 0.778786 1.12935 -1.6611201
3944 -2.79809 -0.746523 5.2378001
4568 3.19538 3.48103 0.830631
3991 1.52061 -0.48757 4.2277298
3364 1.6482901 0.443619 4.7629199
2643 0.260073 0.929578 1.28671
5879 2.51315 -2.4677601 2.2887101
6451 -1.91593 -1.16333 -2.0587101
6500 2.03128 -3.8520402 0.483183
5870 2.56933 2.5021901 -0.208152
6494 2.1470201 -0.890036 3.0266199
6497 1.52001 -0.156457 4.75072
4668 -1.03504 0.944422 2.90269
5253 -2.52173 2.60672 0.959966
5924 -0.782533 -1.9133 3.56983
7603 0.839023 4.5532098 -1.7742
7068 4.3410802 2.8065801 -0.144819
7024 -2.7019201 1.5882501 -0.515598
7023 1.81883 0.0815502 -0.254598
6974 1.1763901 -0.799369 -2.4357901
6495 -1.4862401 -0.194012 -0.706414
7116 0.342651 -0.859693 -2.2577601
7114 -1.05301 -0.380531 -2.03407
7117 2.21596 -0.831576 -3.53756
7158 -2.37022 -5.4629202 -0.840705
7115 0.204976 1.00402 -0.17535
6496 -0.045144 0.465264 0.223142
7160 0.433686 -3.91111 -2.36622
7120 -3.42785 2.15887 0.757059
5875 -1.83637 -0.28458 -2.2084
6503 0.374106 0.983524 -1.6842001
7070 0.368985 -3.9579402 1.42711
6499 1.0376199 -0.112172 -0.746364
7124 1.69381 0.368422 -2.31281
7118 2.4205101 1.3035001 -0.0150004
7691 1.01013 1.81746 -2.38305
8268 2.9942602 1.74957 0.402542
8267 -0.775016 -0.566993 -0.529618
7642 -2.3441401 3.2688 -1.82434
7598 -1.48435 0.447582 -1.94313
7648 0.705566 -0.219169 0.646306
7696 -2.0864201 0.630472 1.8624902
7699 -1.42145 -0.602529 1.63404
8321 1.58055 -2.6730299 -1.18551
7647 -2.0523601 1.0626 1.57554
7738 0.933485 -0.889989 -0.465569
7112 -0.675343 -1.3090201 -2.0598099
7737 0.956017 0.979997 -0.62022
7739 -0.596189 -0.246668 3.50451
7689 0.35141 -0.11812 -1.6432801
7734 2.2868099 0.0938869 3.1889601
7741 -4.00141 0.678388 2.80093
7694 -1.05977 0.527508 -0.727565
7695 3.8602902 -5.56951 -2.5541699
7740 -1.37903 -0.181663 2.18206
7075 -0.396124 -2.26033 2.3794501
7119 -0.891127 -3.4461701 0.456581
7743 1.7983201 -0.464597 -1.3846001
8266 -4.4159799 -1.1038899 -0.484785
7646 -3.63866 1.46511 0.569281
8941 0.665 2.8122101 -3.9781302
8945 -3.2065001 1.93541 2.45328
8894 -1.19971 -0.0441733 -1.08129
8942 -2.2003601 -3.7146499 2.1631
829 0.4492 4.97751 2.1777799
205 -0.746916 0.5407051 1.4807201
8899 -0.007296 -0.852562 0.141217
158 -1.83072 1.2835601 -1.5576101
8943 1.39116 0.672325 -0.646759
209 -0.893671 1.13903 0.238714
206 -2.1470599 0.587858 -1.5308401
810 1.08009 -1.04774 2.6036301
139 -3.6215201 1.75708 -0.0247796
739 2.7182901 1.36426 -2.1982
208 -1.0043499 -1.13511 -1.7903201
833 2.5934301 -1.00973 -0.790044
212 2.55792 0.959077 1.30014
1688 0.45446 -1.0557801 0.174427
1689 0.370219 3.46555 0.182878
1649 1.6698101 2.35428 -0.0609447