ITEM: TIMESTEP
0
ITEM: NUMBER OF ATOMS
501
ITEM: BOX BOUNDS pp pp pp
8.8000000000000000e-01 1.8480000000000000e+01
8.8000000000000000e-01 1.8480000000000000e+01
8.8000000000000000e-01 1.8480000000000000e+01
ITEM: ATOMS id type x y z
6 1 1.760e+00 3.520e+00 1.760e+00
26 1 1.760e+00 1.760e+00 3.520e+00
1 1 3.520e+00 1.760e+00 1.760e+00
7 1 5.280e+00 3.520e+00 1.760e+00
27 1 5.280e+00 1.760e+00 3.520e+00
38 1 3.520e+00 3.520e+00 3.520e+00
2 1 7.040e+00 1.760e+00 1.760e+00
42 1 7.040e+00 3.520e+00 3.520e+00
3 1 1.056e+01 1.760e+00 1.760e+00
9 1 8.800e+00 3.520e+00 1.760e+00
29 1 8.800e+00 1.760e+00 3.520e+00
46 1 1.056e+01 3.520e+00 3.520e+00
11 1 1.232e+01 3.520e+00 1.760e+00
31 1 1.232e+01 1.760e+00 3.520e+00
4 1 1.408e+01 1.760e+00 1.760e+00
13 1 1.584e+01 3.520e+00 1.760e+00
33 1 1.584e+01 1.760e+00 3.520e+00
50 1 1.408e+01 3.520e+00 3.520e+00
5 1 1.760e+01 1.760e+00 1.760e+00
54 1 1.760e+01 3.520e+00 3.520e+00
36 1 1.760e+00 5.280e+00 3.520e+00
8 1 3.520e+00 5.280e+00 1.760e+00
39 1 5.280e+00 5.280e+00 3.520e+00
10 1 7.040e+00 5.280e+00 1.760e+00
12 1 1.056e+01 5.280e+00 1.760e+00
43 1 8.800e+00 5.280e+00 3.520e+00
47 1 1.232e+01 5.280e+00 3.520e+00
14 1 1.408e+01 5.280e+00 1.760e+00
51 1 1.584e+01 5.280e+00 3.520e+00
15 1 1.760e+01 5.280e+00 1.760e+00
16 1 1.760e+00 7.040e+00 1.760e+00
56 1 1.760e+00 8.800e+00 3.520e+00
17 1 5.280e+00 7.040e+00 1.760e+00
18 1 3.520e+00 8.800e+00 1.760e+00
58 1 3.520e+00 7.040e+00 3.520e+00
59 1 5.280e+00 8.800e+00 3.520e+00
20 1 7.040e+00 8.800e+00 1.760e+00
62 1 7.040e+00 7.040e+00 3.520e+00
19 1 8.800e+00 7.040e+00 1.760e+00
22 1 1.056e+01 8.800e+00 1.760e+00
63 1 8.800e+00 8.800e+00 3.520e+00
66 1 1.056e+01 7.040e+00 3.520e+00
21 1 1.232e+01 7.040e+00 1.760e+00
67 1 1.232e+01 8.800e+00 3.520e+00
23 1 1.584e+01 7.040e+00 1.760e+00
24 1 1.408e+01 8.800e+00 1.760e+00
70 1 1.408e+01 7.040e+00 3.520e+00
71 1 1.584e+01 8.800e+00 3.520e+00
25 1 1.760e+01 8.800e+00 1.760e+00
74 1 1.760e+01 7.040e+00 3.520e+00
37 1 1.760e+00 3.520e+00 5.280e+00
28 1 3.520e+00 1.760e+00 5.280e+00
40 1 5.280e+00 3.520e+00 5.280e+00
30 1 7.040e+00 1.760e+00 5.280e+00
32 1 1.056e+01 1.760e+00 5.280e+00
44 1 8.800e+00 3.520e+00 5.280e+00
48 1 1.232e+01 3.520e+00 5.280e+00
34 1 1.408e+01 1.760e+00 5.280e+00
52 1 1.584e+01 3.520e+00 5.280e+00
35 1 1.760e+01 1.760e+00 5.280e+00
41 1 3.520e+00 5.280e+00 5.280e+00
45 1 7.040e+00 5.280e+00 5.280e+00
49 1 1.056e+01 5.280e+00 5.280e+00
53 1 1.408e+01 5.280e+00 5.280e+00
55 1 1.760e+01 5.280e+00 5.280e+00
57 1 1.760e+00 7.040e+00 5.280e+00
60 1 5.280e+00 7.040e+00 5.280e+00
61 1 3.520e+00 8.800e+00 5.280e+00
65 1 7.040e+00 8.800e+00 5.280e+00
64 1 8.800e+00 7.040e+00 5.280e+00
69 1 1.056e+01 8.800e+00 5.280e+00
68 1 1.232e+01 7.040e+00 5.280e+00
72 1 1.584e+01 7.040e+00 5.280e+00
73 1 1.408e+01 8.800e+00 5.280e+00
75 1 1.760e+01 8.800e+00 5.280e+00
76 1 1.760e+00 1.760e+00 7.040e+00
87 1 1.760e+00 3.520e+00 8.800e+00
77 1 5.280e+00 1.760e+00 7.040e+00
78 1 3.520e+00 1.760e+00 8.800e+00
88 1 3.520e+00 3.520e+00 7.040e+00
90 1 5.280e+00 3.520e+00 8.800e+00
80 1 7.040e+00 1.760e+00 8.800e+00
92 1 7.040e+00 3.520e+00 7.040e+00
79 1 8.800e+00 1.760e+00 7.040e+00
82 1 1.056e+01 1.760e+00 8.800e+00
94 1 8.800e+00 3.520e+00 8.800e+00
96 1 1.056e+01 3.520e+00 7.040e+00
81 1 1.232e+01 1.760e+00 7.040e+00
98 1 1.232e+01 3.520e+00 8.800e+00
83 1 1.584e+01 1.760e+00 7.040e+00
84 1 1.408e+01 1.760e+00 8.800e+00
100 1 1.408e+01 3.520e+00 7.040e+00
102 1 1.584e+01 3.520e+00 8.800e+00
85 1 1.760e+01 1.760e+00 8.800e+00
104 1 1.760e+01 3.520e+00 7.040e+00
86 1 1.760e+00 5.280e+00 7.040e+00
89 1 5.280e+00 5.280e+00 7.040e+00
91 1 3.520e+00 5.280e+00 8.800e+00
95 1 7.040e+00 5.280e+00 8.800e+00
93 1 8.800e+00 5.280e+00 7.040e+00
99 1 1.056e+01 5.280e+00 8.800e+00
97 1 1.232e+01 5.280e+00 7.040e+00
101 1 1.584e+01 5.280e+00 7.040e+00
103 1 1.408e+01 5.280e+00 8.800e+00
105 1 1.760e+01 5.280e+00 8.800e+00
106 1 1.760e+00 8.800e+00 7.040e+00
107 1 1.760e+00 7.040e+00 8.800e+00
108 1 3.520e+00 7.040e+00 7.040e+00
109 1 5.280e+00 8.800e+00 7.040e+00
110 1 5.280e+00 7.040e+00 8.800e+00
111 1 3.520e+00 8.800e+00 8.800e+00
112 1 7.040e+00 7.040e+00 7.040e+00
115 1 7.040e+00 8.800e+00 8.800e+00
113 1 8.800e+00 8.800e+00 7.040e+00
114 1 8.800e+00 7.040e+00 8.800e+00
116 1 1.056e+01 7.040e+00 7.040e+00
119 1 1.056e+01 8.800e+00 8.800e+00
501 1 8.800e+00 8.800e+00 8.800e+00
117 1 1.232e+01 8.800e+00 7.040e+00
118 1 1.232e+01 7.040e+00 8.800e+00
120 1 1.408e+01 7.040e+00 7.040e+00
121 1 1.584e+01 8.800e+00 7.040e+00
122 1 1.584e+01 7.040e+00 8.800e+00
123 1 1.408e+01 8.800e+00 8.800e+00
124 1 1.760e+01 7.040e+00 7.040e+00
125 1 1.760e+01 8.800e+00 8.800e+00
126 1 1.760e+00 1.760e+00 1.056e+01
137 1 1.760e+00 3.520e+00 1.232e+01
127 1 5.280e+00 1.760e+00 1.056e+01
128 1 3.520e+00 1.760e+00 1.232e+01
138 1 3.520e+00 3.520e+00 1.056e+01
140 1 5.280e+00 3.520e+00 1.232e+01
130 1 7.040e+00 1.760e+00 1.232e+01
142 1 7.040e+00 3.520e+00 1.056e+01
129 1 8.800e+00 1.760e+00 1.056e+01
132 1 1.056e+01 1.760e+00 1.232e+01
144 1 8.800e+00 3.520e+00 1.232e+01
146 1 1.056e+01 3.520e+00 1.056e+01
131 1 1.232e+01 1.760e+00 1.056e+01
148 1 1.232e+01 3.520e+00 1.232e+01
133 1 1.584e+01 1.760e+00 1.056e+01
134 1 1.408e+01 1.760e+00 1.232e+01
150 1 1.408e+01 3.520e+00 1.056e+01
152 1 1.584e+01 3.520e+00 1.232e+01
135 1 1.760e+01 1.760e+00 1.232e+01
154 1 1.760e+01 3.520e+00 1.056e+01
136 1 1.760e+00 5.280e+00 1.056e+01
139 1 5.280e+00 5.280e+00 1.056e+01
141 1 3.520e+00 5.280e+00 1.232e+01
145 1 7.040e+00 5.280e+00 1.232e+01
143 1 8.800e+00 5.280e+00 1.056e+01
149 1 1.056e+01 5.280e+00 1.232e+01
147 1 1.232e+01 5.280e+00 1.056e+01
151 1 1.584e+01 5.280e+00 1.056e+01
153 1 1.408e+01 5.280e+00 1.232e+01
155 1 1.760e+01 5.280e+00 1.232e+01
156 1 1.760e+00 8.800e+00 1.056e+01
157 1 1.760e+00 7.040e+00 1.232e+01
158 1 3.520e+00 7.040e+00 1.056e+01
159 1 5.280e+00 8.800e+00 1.056e+01
160 1 5.280e+00 7.040e+00 1.232e+01
161 1 3.520e+00 8.800e+00 1.232e+01
162 1 7.040e+00 7.040e+00 1.056e+01
165 1 7.040e+00 8.800e+00 1.232e+01
163 1 8.800e+00 8.800e+00 1.056e+01
164 1 8.800e+00 7.040e+00 1.232e+01
166 1 1.056e+01 7.040e+00 1.056e+01
169 1 1.056e+01 8.800e+00 1.232e+01
167 1 1.232e+01 8.800e+00 1.056e+01
168 1 1.232e+01 7.040e+00 1.232e+01
170 1 1.408e+01 7.040e+00 1.056e+01
171 1 1.584e+01 8.800e+00 1.056e+01
172 1 1.584e+01 7.040e+00 1.232e+01
173 1 1.408e+01 8.800e+00 1.232e+01
174 1 1.760e+01 7.040e+00 1.056e+01
175 1 1.760e+01 8.800e+00 1.232e+01
176 1 1.760e+00 1.760e+00 1.408e+01
177 1 5.280e+00 1.760e+00 1.408e+01
188 1 3.520e+00 3.520e+00 1.408e+01
192 1 7.040e+00 3.520e+00 1.408e+01
179 1 8.800e+00 1.760e+00 1.408e+01
196 1 1.056e+01 3.520e+00 1.408e+01
181 1 1.232e+01 1.760e+00 1.408e+01
183 1 1.584e+01 1.760e+00 1.408e+01
200 1 1.408e+01 3.520e+00 1.408e+01
204 1 1.760e+01 3.520e+00 1.408e+01
186 1 1.760e+00 5.280e+00 1.408e+01
189 1 5.280e+00 5.280e+00 1.408e+01
193 1 8.800e+00 5.280e+00 1.408e+01
197 1 1.232e+01 5.280e+00 1.408e+01
201 1 1.584e+01 5.280e+00 1.408e+01
206 1 1.760e+00 8.800e+00 1.408e+01
208 1 3.520e+00 7.040e+00 1.408e+01
209 1 5.280e+00 8.800e+00 1.408e+01
212 1 7.040e+00 7.040e+00 1.408e+01
213 1 8.800e+00 8.800e+00 1.408e+01
216 1 1.056e+01 7.040e+00 1.408e+01
217 1 1.232e+01 8.800e+00 1.408e+01
220 1 1.408e+01 7.040e+00 1.408e+01
221 1 1.584e+01 8.800e+00 1.408e+01
224 1 1.760e+01 7.040e+00 1.408e+01
187 1 1.760e+00 3.520e+00 1.584e+01
226 1 1.760e+00 1.760e+00 1.760e+01
178 1 3.520e+00 1.760e+00 1.584e+01
190 1 5.280e+00 3.520e+00 1.584e+01
227 1 5.280e+00 1.760e+00 1.760e+01
232 1 3.520e+00 3.520e+00 1.760e+01
180 1 7.040e+00 1.760e+00 1.584e+01
234 1 7.040e+00 3.520e+00 1.760e+01
182 1 1.056e+01 1.760e+00 1.584e+01
194 1 8.800e+00 3.520e+00 1.584e+01
228 1 8.800e+00 1.760e+00 1.760e+01
236 1 1.056e+01 3.520e+00 1.760e+01
198 1 1.232e+01 3.520e+00 1.584e+01
229 1 1.232e+01 1.760e+00 1.760e+01
184 1 1.408e+01 1.760e+00 1.584e+01
202 1 1.584e+01 3.520e+00 1.584e+01
230 1 1.584e+01 1.760e+00 1.760e+01
238 1 1.408e+01 3.520e+00 1.760e+01
185 1 1.760e+01 1.760e+00 1.584e+01
240 1 1.760e+01 3.520e+00 1.760e+01
231 1 1.760e+00 5.280e+00 1.760e+01
191 1 3.520e+00 5.280e+00 1.584e+01
233 1 5.280e+00 5.280e+00 1.760e+01
195 1 7.040e+00 5.280e+00 1.584e+01
199 1 1.056e+01 5.280e+00 1.584e+01
235 1 8.800e+00 5.280e+00 1.760e+01
237 1 1.232e+01 5.280e+00 1.760e+01
203 1 1.408e+01 5.280e+00 1.584e+01
239 1 1.584e+01 5.280e+00 1.760e+01
205 1 1.760e+01 5.280e+00 1.584e+01
207 1 1.760e+00 7.040e+00 1.584e+01
241 1 1.760e+00 8.800e+00 1.760e+01
210 1 5.280e+00 7.040e+00 1.584e+01
211 1 3.520e+00 8.800e+00 1.584e+01
242 1 3.520e+00 7.040e+00 1.760e+01
243 1 5.280e+00 8.800e+00 1.760e+01
215 1 7.040e+00 8.800e+00 1.584e+01
244 1 7.040e+00 7.040e+00 1.760e+01
214 1 8.800e+00 7.040e+00 1.584e+01
219 1 1.056e+01 8.800e+00 1.584e+01
245 1 8.800e+00 8.800e+00 1.760e+01
246 1 1.056e+01 7.040e+00 1.760e+01
218 1 1.232e+01 7.040e+00 1.584e+01
247 1 1.232e+01 8.800e+00 1.760e+01
222 1 1.584e+01 7.040e+00 1.584e+01
223 1 1.408e+01 8.800e+00 1.584e+01
248 1 1.408e+01 7.040e+00 1.760e+01
249 1 1.584e+01 8.800e+00 1.760e+01
225 1 1.760e+01 8.800e+00 1.584e+01
250 1 1.760e+01 7.040e+00 1.760e+01
251 1 1.760e+00 1.056e+01 1.760e+00
276 1 1.760e+00 1.232e+01 3.520e+00
252 1 5.280e+00 1.056e+01 1.760e+00
253 1 3.520e+00 1.232e+01 1.760e+00
278 1 3.520e+00 1.056e+01 3.520e+00
279 1 5.280e+00 1.232e+01 3.520e+00
255 1 7.040e+00 1.232e+01 1.760e+00
282 1 7.040e+00 1.056e+01 3.520e+00
254 1 8.800e+00 1.056e+01 1.760e+00
257 1 1.056e+01 1.232e+01 1.760e+00
283 1 8.800e+00 1.232e+01 3.520e+00
286 1 1.056e+01 1.056e+01 3.520e+00
256 1 1.232e+01 1.056e+01 1.760e+00
287 1 1.232e+01 1.232e+01 3.520e+00
258 1 1.584e+01 1.056e+01 1.760e+00
259 1 1.408e+01 1.232e+01 1.760e+00
290 1 1.408e+01 1.056e+01 3.520e+00
291 1 1.584e+01 1.232e+01 3.520e+00
260 1 1.760e+01 1.232e+01 1.760e+00
294 1 1.760e+01 1.056e+01 3.520e+00
261 1 1.760e+00 1.408e+01 1.760e+00
262 1 5.280e+00 1.408e+01 1.760e+00
298 1 3.520e+00 1.408e+01 3.520e+00
302 1 7.040e+00 1.408e+01 3.520e+00
264 1 8.800e+00 1.408e+01 1.760e+00
306 1 1.056e+01 1.408e+01 3.520e+00
266 1 1.232e+01 1.408e+01 1.760e+00
268 1 1.584e+01 1.408e+01 1.760e+00
310 1 1.408e+01 1.408e+01 3.520e+00
314 1 1.760e+01 1.408e+01 3.520e+00
271 1 1.760e+00 1.760e+01 1.760e+00
296 1 1.760e+00 1.584e+01 3.520e+00
263 1 3.520e+00 1.584e+01 1.760e+00
272 1 5.280e+00 1.760e+01 1.760e+00
299 1 5.280e+00 1.584e+01 3.520e+00
317 1 3.520e+00 1.760e+01 3.520e+00
265 1 7.040e+00 1.584e+01 1.760e+00
319 1 7.040e+00 1.760e+01 3.520e+00
267 1 1.056e+01 1.584e+01 1.760e+00
273 1 8.800e+00 1.760e+01 1.760e+00
303 1 8.800e+00 1.584e+01 3.520e+00
321 1 1.056e+01 1.760e+01 3.520e+00
274 1 1.232e+01 1.760e+01 1.760e+00
307 1 1.232e+01 1.584e+01 3.520e+00
269 1 1.408e+01 1.584e+01 1.760e+00
275 1 1.584e+01 1.760e+01 1.760e+00
311 1 1.584e+01 1.584e+01 3.520e+00
323 1 1.408e+01 1.760e+01 3.520e+00
270 1 1.760e+01 1.584e+01 1.760e+00
325 1 1.760e+01 1.760e+01 3.520e+00
277 1 1.760e+00 1.056e+01 5.280e+00
280 1 5.280e+00 1.056e+01 5.280e+00
281 1 3.520e+00 1.232e+01 5.280e+00
285 1 7.040e+00 1.232e+01 5.280e+00
284 1 8.800e+00 1.056e+01 5.280e+00
289 1 1.056e+01 1.232e+01 5.280e+00
288 1 1.232e+01 1.056e+01 5.280e+00
292 1 1.584e+01 1.056e+01 5.280e+00
293 1 1.408e+01 1.232e+01 5.280e+00
295 1 1.760e+01 1.232e+01 5.280e+00
297 1 1.760e+00 1.408e+01 5.280e+00
300 1 5.280e+00 1.408e+01 5.280e+00
304 1 8.800e+00 1.408e+01 5.280e+00
308 1 1.232e+01 1.408e+01 5.280e+00
312 1 1.584e+01 1.408e+01 5.280e+00
316 1 1.760e+00 1.760e+01 5.280e+00
301 1 3.520e+00 1.584e+01 5.280e+00
318 1 5.280e+00 1.760e+01 5.280e+00
305 1 7.040e+00 1.584e+01 5.280e+00
309 1 1.056e+01 1.584e+01 5.280e+00
320 1 8.800e+00 1.760e+01 5.280e+00
322 1 1.232e+01 1.760e+01 5.280e+00
313 1 1.408e+01 1.584e+01 5.280e+00
324 1 1.584e+01 1.760e+01 5.280e+00
315 1 1.760e+01 1.584e+01 5.280e+00
326 1 1.760e+00 1.232e+01 7.040e+00
327 1 1.760e+00 1.056e+01 8.800e+00
328 1 3.520e+00 1.056e+01 7.040e+00
329 1 5.280e+00 1.232e+01 7.040e+00
330 1 5.280e+00 1.056e+01 8.800e+00
331 1 3.520e+00 1.232e+01 8.800e+00
332 1 7.040e+00 1.056e+01 7.040e+00
335 1 7.040e+00 1.232e+01 8.800e+00
333 1 8.800e+00 1.232e+01 7.040e+00
334 1 8.800e+00 1.056e+01 8.800e+00
336 1 1.056e+01 1.056e+01 7.040e+00
339 1 1.056e+01 1.232e+01 8.800e+00
337 1 1.232e+01 1.232e+01 7.040e+00
338 1 1.232e+01 1.056e+01 8.800e+00
340 1 1.408e+01 1.056e+01 7.040e+00
341 1 1.584e+01 1.232e+01 7.040e+00
342 1 1.584e+01 1.056e+01 8.800e+00
343 1 1.408e+01 1.232e+01 8.800e+00
344 1 1.760e+01 1.056e+01 7.040e+00
345 1 1.760e+01 1.232e+01 8.800e+00
347 1 1.760e+00 1.408e+01 8.800e+00
348 1 3.520e+00 1.408e+01 7.040e+00
350 1 5.280e+00 1.408e+01 8.800e+00
352 1 7.040e+00 1.408e+01 7.040e+00
354 1 8.800e+00 1.408e+01 8.800e+00
356 1 1.056e+01 1.408e+01 7.040e+00
358 1 1.232e+01 1.408e+01 8.800e+00
360 1 1.408e+01 1.408e+01 7.040e+00
362 1 1.584e+01 1.408e+01 8.800e+00
364 1 1.760e+01 1.408e+01 7.040e+00
346 1 1.760e+00 1.584e+01 7.040e+00
366 1 1.760e+00 1.760e+01 8.800e+00
349 1 5.280e+00 1.584e+01 7.040e+00
351 1 3.520e+00 1.584e+01 8.800e+00
367 1 3.520e+00 1.760e+01 7.040e+00
368 1 5.280e+00 1.760e+01 8.800e+00
355 1 7.040e+00 1.584e+01 8.800e+00
369 1 7.040e+00 1.760e+01 7.040e+00
353 1 8.800e+00 1.584e+01 7.040e+00
359 1 1.056e+01 1.584e+01 8.800e+00
370 1 8.800e+00 1.760e+01 8.800e+00
371 1 1.056e+01 1.760e+01 7.040e+00
357 1 1.232e+01 1.584e+01 7.040e+00
372 1 1.232e+01 1.760e+01 8.800e+00
361 1 1.584e+01 1.584e+01 7.040e+00
363 1 1.408e+01 1.584e+01 8.800e+00
373 1 1.408e+01 1.760e+01 7.040e+00
374 1 1.584e+01 1.760e+01 8.800e+00
365 1 1.760e+01 1.584e+01 8.800e+00
375 1 1.760e+01 1.760e+01 7.040e+00
376 1 1.760e+00 1.232e+01 1.056e+01
377 1 1.760e+00 1.056e+01 1.232e+01
378 1 3.520e+00 1.056e+01 1.056e+01
379 1 5.280e+00 1.232e+01 1.056e+01
380 1 5.280e+00 1.056e+01 1.232e+01
381 1 3.520e+00 1.232e+01 1.232e+01
382 1 7.040e+00 1.056e+01 1.056e+01
385 1 7.040e+00 1.232e+01 1.232e+01
383 1 8.800e+00 1.232e+01 1.056e+01
384 1 8.800e+00 1.056e+01 1.232e+01
386 1 1.056e+01 1.056e+01 1.056e+01
389 1 1.056e+01 1.232e+01 1.232e+01
387 1 1.232e+01 1.232e+01 1.056e+01
388 1 1.232e+01 1.056e+01 1.232e+01
390 1 1.408e+01 1.056e+01 1.056e+01
391 1 1.584e+01 1.232e+01 1.056e+01
392 1 1.584e+01 1.056e+01 1.232e+01
393 1 1.408e+01 1.232e+01 1.232e+01
394 1 1.760e+01 1.056e+01 1.056e+01
395 1 1.760e+01 1.232e+01 1.232e+01
397 1 1.760e+00 1.408e+01 1.232e+01
398 1 3.520e+00 1.408e+01 1.056e+01
400 1 5.280e+00 1.408e+01 1.232e+01
402 1 7.040e+00 1.408e+01 1.056e+01
404 1 8.800e+00 1.408e+01 1.232e+01
406 1 1.056e+01 1.408e+01 1.056e+01
408 1 1.232e+01 1.408e+01 1.232e+01
410 1 1.408e+01 1.408e+01 1.056e+01
412 1 1.584e+01 1.408e+01 1.232e+01
414 1 1.760e+01 1.408e+01 1.056e+01
396 1 1.760e+00 1.584e+01 1.056e+01
416 1 1.760e+00 1.760e+01 1.232e+01
399 1 5.280e+00 1.584e+01 1.056e+01
401 1 3.520e+00 1.584e+01 1.232e+01
417 1 3.520e+00 1.760e+01 1.056e+01
418 1 5.280e+00 1.760e+01 1.232e+01
405 1 7.040e+00 1.584e+01 1.232e+01
419 1 7.040e+00 1.760e+01 1.056e+01
403 1 8.800e+00 1.584e+01 1.056e+01
409 1 1.056e+01 1.584e+01 1.232e+01
420 1 8.800e+00 1.760e+01 1.232e+01
421 1 1.056e+01 1.760e+01 1.056e+01
407 1 1.232e+01 1.584e+01 1.056e+01
422 1 1.232e+01 1.760e+01 1.232e+01
411 1 1.584e+01 1.584e+01 1.056e+01
413 1 1.408e+01 1.584e+01 1.232e+01
423 1 1.408e+01 1.760e+01 1.056e+01
424 1 1.584e+01 1.760e+01 1.232e+01
415 1 1.760e+01 1.584e+01 1.232e+01
425 1 1.760e+01 1.760e+01 1.056e+01
426 1 1.760e+00 1.232e+01 1.408e+01
428 1 3.520e+00 1.056e+01 1.408e+01
429 1 5.280e+00 1.232e+01 1.408e+01
432 1 7.040e+00 1.056e+01 1.408e+01
433 1 8.800e+00 1.232e+01 1.408e+01
436 1 1.056e+01 1.056e+01 1.408e+01
437 1 1.232e+01 1.232e+01 1.408e+01
440 1 1.408e+01 1.056e+01 1.408e+01
441 1 1.584e+01 1.232e+01 1.408e+01
444 1 1.760e+01 1.056e+01 1.408e+01
448 1 3.520e+00 1.408e+01 1.408e+01
452 1 7.040e+00 1.408e+01 1.408e+01
456 1 1.056e+01 1.408e+01 1.408e+01
460 1 1.408e+01 1.408e+01 1.408e+01
464 1 1.760e+01 1.408e+01 1.408e+01
446 1 1.760e+00 1.584e+01 1.408e+01
449 1 5.280e+00 1.584e+01 1.408e+01
467 1 3.520e+00 1.760e+01 1.408e+01
469 1 7.040e+00 1.760e+01 1.408e+01
453 1 8.800e+00 1.584e+01 1.408e+01
471 1 1.056e+01 1.760e+01 1.408e+01
457 1 1.232e+01 1.584e+01 1.408e+01
461 1 1.584e+01 1.584e+01 1.408e+01
473 1 1.408e+01 1.760e+01 1.408e+01
475 1 1.760e+01 1.760e+01 1.408e+01
427 1 1.760e+00 1.056e+01 1.584e+01
476 1 1.760e+00 1.232e+01 1.760e+01
430 1 5.280e+00 1.056e+01 1.584e+01
431 1 3.520e+00 1.232e+01 1.584e+01
477 1 3.520e+00 1.056e+01 1.760e+01
478 1 5.280e+00 1.232e+01 1.760e+01
435 1 7.040e+00 1.232e+01 1.584e+01
479 1 7.040e+00 1.056e+01 1.760e+01
434 1 8.800e+00 1.056e+01 1.584e+01
439 1 1.056e+01 1.232e+01 1.584e+01
480 1 8.800e+00 1.232e+01 1.760e+01
481 1 1.056e+01 1.056e+01 1.760e+01
438 1 1.232e+01 1.056e+01 1.584e+01
482 1 1.232e+01 1.232e+01 1.760e+01
442 1 1.584e+01 1.056e+01 1.584e+01
443 1 1.408e+01 1.232e+01 1.584e+01
483 1 1.408e+01 1.056e+01 1.760e+01
484 1 1.584e+01 1.232e+01 1.760e+01
445 1 1.760e+01 1.232e+01 1.584e+01
485 1 1.760e+01 1.056e+01 1.760e+01
447 1 1.760e+00 1.408e+01 1.584e+01
450 1 5.280e+00 1.408e+01 1.584e+01
487 1 3.520e+00 1.408e+01 1.760e+01
489 1 7.040e+00 1.408e+01 1.760e+01
454 1 8.800e+00 1.408e+01 1.584e+01
491 1 1.056e+01 1.408e+01 1.760e+01
458 1 1.232e+01 1.408e+01 1.584e+01
462 1 1.584e+01 1.408e+01 1.584e+01
493 1 1.408e+01 1.408e+01 1.760e+01
495 1 1.760e+01 1.408e+01 1.760e+01
466 1 1.760e+00 1.760e+01 1.584e+01
486 1 1.760e+00 1.584e+01 1.760e+01
451 1 3.520e+00 1.584e+01 1.584e+01
468 1 5.280e+00 1.760e+01 1.584e+01
488 1 5.280e+00 1.584e+01 1.760e+01
496 1 3.520e+00 1.760e+01 1.760e+01
455 1 7.040e+00 1.584e+01 1.584e+01
497 1 7.040e+00 1.760e+01 1.760e+01
459 1 1.056e+01 1.584e+01 1.584e+01
470 1 8.800e+00 1.760e+01 1.584e+01
490 1 8.800e+00 1.584e+01 1.760e+01
498 1 1.056e+01 1.760e+01 1.760e+01
472 1 1.232e+01 1.760e+01 1.584e+01
492 1 1.232e+01 1.584e+01 1.760e+01
463 1 1.408e+01 1.584e+01 1.584e+01
474 1 1.584e+01 1.760e+01 1.584e+01
494 1 1.584e+01 1.584e+01 1.760e+01
499 1 1.408e+01 1.760e+01 1.760e+01
465 1 1.760e+01 1.584e+01 1.584e+01
500 1 1.760e+01 1.760e+01 1.760e+01
ITEM: TIMESTEP
1000
ITEM: NUMBER OF ATOMS
501
ITEM: BOX BOUNDS pp pp pp
8.8000000000000000e-01 1.8480000000000000e+01
8.8000000000000000e-01 1.8480000000000000e+01
8.8000000000000000e-01 1.8480000000000000e+01
ITEM: ATOMS id type x y z
6 1 1.756e+00 3.514e+00 1.756e+00
26 1 1.756e+00 1.756e+00 3.515e+00
1 1 3.515e+00 1.756e+00 1.756e+00
7 1 5.273e+00 3.512e+00 1.753e+00
27 1 5.273e+00 1.754e+00 3.513e+00
38 1 3.512e+00 3.512e+00 3.512e+00
2 1 7.035e+00 1.754e+00 1.754e+00
42 1 7.031e+00 3.507e+00 3.508e+00
3 1 1.057e+01 1.754e+00 1.754e+00
9 1 8.800e+00 3.503e+00 1.746e+00
29 1 8.800e+00 1.751e+00 3.508e+00
46 1 1.057e+01 3.507e+00 3.508e+00
11 1 1.233e+01 3.512e+00 1.753e+00
31 1 1.233e+01 1.754e+00 3.513e+00
4 1 1.409e+01 1.756e+00 1.756e+00
13 1 1.584e+01 3.514e+00 1.756e+00
33 1 1.584e+01 1.756e+00 3.515e+00
50 1 1.409e+01 3.511e+00 3.512e+00
5 1 1.760e+01 1.757e+00 1.757e+00
54 1 1.760e+01 3.514e+00 3.514e+00
36 1 1.753e+00 5.273e+00 3.512e+00
8 1 3.512e+00 5.273e+00 1.753e+00
39 1 5.268e+00 5.266e+00 3.506e+00
10 1 7.034e+00 5.269e+00 1.747e+00
12 1 1.057e+01 5.268e+00 1.747e+00
43 1 8.800e+00 5.238e+00 3.482e+00
47 1 1.233e+01 5.266e+00 3.506e+00
14 1 1.409e+01 5.272e+00 1.753e+00
51 1 1.585e+01 5.273e+00 3.513e+00
15 1 1.760e+01 5.274e+00 1.756e+00
16 1 1.754e+00 7.035e+00 1.754e+00
56 1 1.749e+00 8.800e+00 3.506e+00
17 1 5.269e+00 7.034e+00 1.748e+00
18 1 3.505e+00 8.800e+00 1.748e+00
58 1 3.507e+00 7.030e+00 3.508e+00
59 1 5.243e+00 8.800e+00 3.487e+00
20 1 7.039e+00 8.800e+00 1.764e+00
62 1 7.021e+00 7.021e+00 3.492e+00
19 1 8.800e+00 7.038e+00 1.764e+00
22 1 1.056e+01 8.800e+00 1.764e+00
63 1 8.801e+00 8.798e+00 3.544e+00
66 1 1.058e+01 7.020e+00 3.492e+00
21 1 1.233e+01 7.033e+00 1.747e+00
67 1 1.236e+01 8.800e+00 3.483e+00
23 1 1.585e+01 7.035e+00 1.754e+00
24 1 1.410e+01 8.800e+00 1.747e+00
70 1 1.409e+01 7.030e+00 3.508e+00
71 1 1.585e+01 8.800e+00 3.508e+00
25 1 1.760e+01 8.800e+00 1.753e+00
74 1 1.760e+01 7.037e+00 3.512e+00
37 1 1.753e+00 3.512e+00 5.273e+00
28 1 3.513e+00 1.754e+00 5.273e+00
40 1 5.268e+00 3.505e+00 5.269e+00
30 1 7.036e+00 1.750e+00 5.272e+00
32 1 1.056e+01 1.750e+00 5.271e+00
44 1 8.800e+00 3.498e+00 5.253e+00
48 1 1.233e+01 3.505e+00 5.269e+00
34 1 1.409e+01 1.754e+00 5.273e+00
52 1 1.585e+01 3.512e+00 5.273e+00
35 1 1.760e+01 1.755e+00 5.274e+00
41 1 3.506e+00 5.266e+00 5.268e+00
45 1 7.018e+00 5.262e+00 5.268e+00
49 1 1.058e+01 5.260e+00 5.266e+00
53 1 1.409e+01 5.267e+00 5.269e+00
55 1 1.760e+01 5.274e+00 5.274e+00
57 1 1.749e+00 7.035e+00 5.270e+00
60 1 5.263e+00 7.016e+00 5.265e+00
61 1 3.491e+00 8.800e+00 5.246e+00
65 1 6.944e+00 8.800e+00 5.193e+00
64 1 8.800e+00 6.931e+00 5.183e+00
69 1 1.067e+01 8.800e+00 5.185e+00
113 1 8.815e+00 8.778e+00 6.556e+00
68 1 1.234e+01 7.016e+00 5.265e+00
72 1 1.585e+01 7.035e+00 5.271e+00
73 1 1.410e+01 8.800e+00 5.252e+00
75 1 1.760e+01 8.800e+00 5.277e+00
76 1 1.754e+00 1.754e+00 7.035e+00
87 1 1.747e+00 3.504e+00 8.800e+00
77 1 5.272e+00 1.750e+00 7.036e+00
78 1 3.508e+00 1.751e+00 8.800e+00
88 1 3.508e+00 3.508e+00 7.031e+00
90 1 5.252e+00 3.497e+00 8.800e+00
80 1 7.039e+00 1.761e+00 8.801e+00
92 1 7.027e+00 3.498e+00 7.027e+00
79 1 8.800e+00 1.761e+00 7.039e+00
82 1 1.056e+01 1.761e+00 8.801e+00
94 1 8.801e+00 3.534e+00 8.802e+00
96 1 1.057e+01 3.497e+00 7.026e+00
81 1 1.233e+01 1.749e+00 7.035e+00
98 1 1.235e+01 3.493e+00 8.800e+00
83 1 1.585e+01 1.754e+00 7.035e+00
84 1 1.409e+01 1.750e+00 8.800e+00
100 1 1.409e+01 3.508e+00 7.032e+00
102 1 1.585e+01 3.506e+00 8.800e+00
85 1 1.760e+01 1.752e+00 8.800e+00
104 1 1.760e+01 3.511e+00 7.036e+00
86 1 1.748e+00 5.269e+00 7.034e+00
89 1 5.267e+00 5.264e+00 7.019e+00
91 1 3.485e+00 5.241e+00 8.800e+00
95 1 6.974e+00 5.215e+00 8.801e+00
93 1 8.800e+00 5.218e+00 6.977e+00
99 1 1.064e+01 5.209e+00 8.801e+00
114 1 8.814e+00 6.685e+00 8.824e+00
97 1 1.234e+01 5.264e+00 7.021e+00
101 1 1.585e+01 5.271e+00 7.035e+00
103 1 1.411e+01 5.248e+00 8.800e+00
105 1 1.760e+01 5.276e+00 8.800e+00
106 1 1.763e+00 8.800e+00 7.039e+00
107 1 1.763e+00 7.038e+00 8.801e+00
108 1 3.494e+00 7.023e+00 7.023e+00
109 1 5.201e+00 8.800e+00 6.956e+00
110 1 5.189e+00 6.939e+00 8.801e+00
111 1 3.541e+00 8.798e+00 8.802e+00
112 1 7.066e+00 7.072e+00 7.065e+00
115 1 6.588e+00 8.778e+00 8.826e+00
116 1 1.054e+01 7.061e+00 7.054e+00
119 1 1.093e+01 8.780e+00 8.825e+00
501 1 8.749e+00 8.873e+00 8.711e+00
117 1 1.239e+01 8.799e+00 6.973e+00
118 1 1.240e+01 6.959e+00 8.801e+00
120 1 1.410e+01 7.025e+00 7.026e+00
121 1 1.584e+01 8.800e+00 7.039e+00
122 1 1.584e+01 7.038e+00 8.801e+00
123 1 1.407e+01 8.799e+00 8.802e+00
124 1 1.760e+01 7.040e+00 7.040e+00
125 1 1.760e+01 8.800e+00 8.801e+00
126 1 1.754e+00 1.754e+00 1.057e+01
137 1 1.753e+00 3.512e+00 1.233e+01
127 1 5.271e+00 1.750e+00 1.056e+01
128 1 3.512e+00 1.754e+00 1.233e+01
138 1 3.508e+00 3.507e+00 1.057e+01
140 1 5.269e+00 3.505e+00 1.233e+01
130 1 7.035e+00 1.749e+00 1.233e+01
142 1 7.025e+00 3.497e+00 1.057e+01
129 1 8.800e+00 1.761e+00 1.056e+01
132 1 1.057e+01 1.749e+00 1.233e+01
144 1 8.800e+00 3.492e+00 1.235e+01
146 1 1.058e+01 3.496e+00 1.058e+01
131 1 1.233e+01 1.749e+00 1.057e+01
148 1 1.233e+01 3.505e+00 1.233e+01
133 1 1.585e+01 1.754e+00 1.057e+01
134 1 1.409e+01 1.754e+00 1.233e+01
150 1 1.409e+01 3.507e+00 1.057e+01
152 1 1.585e+01 3.512e+00 1.233e+01
135 1 1.760e+01 1.755e+00 1.233e+01
154 1 1.760e+01 3.511e+00 1.056e+01
136 1 1.747e+00 5.269e+00 1.057e+01
139 1 5.264e+00 5.260e+00 1.058e+01
141 1 3.505e+00 5.266e+00 1.233e+01
145 1 7.021e+00 5.264e+00 1.234e+01
143 1 8.800e+00 5.206e+00 1.064e+01
149 1 1.058e+01 5.262e+00 1.234e+01
147 1 1.234e+01 5.261e+00 1.058e+01
151 1 1.585e+01 5.270e+00 1.057e+01
153 1 1.409e+01 5.267e+00 1.233e+01
155 1 1.760e+01 5.273e+00 1.233e+01
156 1 1.763e+00 8.800e+00 1.056e+01
157 1 1.747e+00 7.033e+00 1.233e+01
158 1 3.493e+00 7.021e+00 1.058e+01
159 1 5.188e+00 8.800e+00 1.066e+01
160 1 5.264e+00 7.017e+00 1.234e+01
161 1 3.484e+00 8.800e+00 1.236e+01
162 1 7.049e+00 7.053e+00 1.055e+01
165 1 6.976e+00 8.799e+00 1.238e+01
163 1 8.814e+00 8.780e+00 1.090e+01
164 1 8.800e+00 6.966e+00 1.239e+01
166 1 1.056e+01 7.043e+00 1.056e+01
169 1 1.063e+01 8.799e+00 1.239e+01
167 1 1.240e+01 8.799e+00 1.064e+01
168 1 1.234e+01 7.019e+00 1.234e+01
170 1 1.410e+01 7.023e+00 1.058e+01
171 1 1.584e+01 8.800e+00 1.056e+01
172 1 1.585e+01 7.034e+00 1.233e+01
173 1 1.411e+01 8.800e+00 1.235e+01
174 1 1.760e+01 7.039e+00 1.056e+01
175 1 1.760e+01 8.800e+00 1.232e+01
176 1 1.756e+00 1.756e+00 1.409e+01
177 1 5.273e+00 1.754e+00 1.409e+01
188 1 3.512e+00 3.511e+00 1.409e+01
192 1 7.032e+00 3.508e+00 1.409e+01
179 1 8.800e+00 1.749e+00 1.409e+01
196 1 1.057e+01 3.507e+00 1.409e+01
181 1 1.233e+01 1.754e+00 1.409e+01
183 1 1.584e+01 1.756e+00 1.409e+01
200 1 1.409e+01 3.511e+00 1.409e+01
204 1 1.760e+01 3.514e+00 1.409e+01
186 1 1.753e+00 5.272e+00 1.409e+01
189 1 5.269e+00 5.267e+00 1.409e+01
193 1 8.800e+00 5.250e+00 1.411e+01
197 1 1.233e+01 5.267e+00 1.410e+01
201 1 1.585e+01 5.273e+00 1.409e+01
206 1 1.747e+00 8.800e+00 1.410e+01
208 1 3.508e+00 7.030e+00 1.409e+01
209 1 5.253e+00 8.800e+00 1.410e+01
212 1 7.026e+00 7.026e+00 1.410e+01
213 1 8.801e+00 8.799e+00 1.407e+01
216 1 1.058e+01 7.025e+00 1.410e+01
217 1 1.235e+01 8.800e+00 1.411e+01
220 1 1.409e+01 7.031e+00 1.409e+01
221 1 1.585e+01 8.800e+00 1.409e+01
224 1 1.760e+01 7.036e+00 1.409e+01
187 1 1.756e+00 3.514e+00 1.584e+01
226 1 1.757e+00 1.757e+00 1.760e+01
178 1 3.514e+00 1.756e+00 1.584e+01
190 1 5.273e+00 3.512e+00 1.585e+01
227 1 5.274e+00 1.755e+00 1.760e+01
232 1 3.514e+00 3.514e+00 1.760e+01
180 1 7.035e+00 1.754e+00 1.585e+01
234 1 7.036e+00 3.511e+00 1.760e+01
182 1 1.057e+01 1.754e+00 1.585e+01
194 1 8.800e+00 3.507e+00 1.585e+01
228 1 8.800e+00 1.752e+00 1.760e+01
236 1 1.056e+01 3.511e+00 1.760e+01
198 1 1.233e+01 3.512e+00 1.585e+01
229 1 1.233e+01 1.755e+00 1.760e+01
184 1 1.409e+01 1.756e+00 1.584e+01
202 1 1.584e+01 3.514e+00 1.584e+01
230 1 1.584e+01 1.757e+00 1.760e+01
238 1 1.409e+01 3.514e+00 1.760e+01
185 1 1.760e+01 1.757e+00 1.584e+01
240 1 1.760e+01 3.515e+00 1.760e+01
231 1 1.756e+00 5.274e+00 1.760e+01
191 1 3.512e+00 5.273e+00 1.585e+01
233 1 5.274e+00 5.274e+00 1.760e+01
195 1 7.035e+00 5.271e+00 1.585e+01
199 1 1.057e+01 5.271e+00 1.585e+01
235 1 8.800e+00 5.276e+00 1.760e+01
237 1 1.233e+01 5.273e+00 1.760e+01
203 1 1.409e+01 5.273e+00 1.585e+01
239 1 1.584e+01 5.274e+00 1.760e+01
205 1 1.760e+01 5.274e+00 1.584e+01
207 1 1.754e+00 7.035e+00 1.585e+01
241 1 1.753e+00 8.800e+00 1.760e+01
210 1 5.271e+00 7.036e+00 1.585e+01
211 1 3.508e+00 8.800e+00 1.585e+01
242 1 3.512e+00 7.036e+00 1.760e+01
243 1 5.277e+00 8.800e+00 1.760e+01
215 1 7.039e+00 8.800e+00 1.584e+01
244 1 7.040e+00 7.040e+00 1.760e+01
214 1 8.800e+00 7.038e+00 1.584e+01
219 1 1.056e+01 8.800e+00 1.584e+01
245 1 8.800e+00 8.800e+00 1.760e+01
246 1 1.056e+01 7.039e+00 1.760e+01
218 1 1.233e+01 7.035e+00 1.585e+01
247 1 1.232e+01 8.800e+00 1.760e+01
222 1 1.585e+01 7.035e+00 1.585e+01
223 1 1.409e+01 8.800e+00 1.585e+01
248 1 1.409e+01 7.036e+00 1.760e+01
249 1 1.585e+01 8.800e+00 1.760e+01
225 1 1.760e+01 8.800e+00 1.585e+01
250 1 1.760e+01 7.035e+00 1.760e+01
251 1 1.754e+00 1.057e+01 1.754e+00
276 1 1.754e+00 1.233e+01 3.513e+00
252 1 5.270e+00 1.057e+01 1.748e+00
253 1 3.512e+00 1.233e+01 1.753e+00
278 1 3.508e+00 1.057e+01 3.508e+00
279 1 5.268e+00 1.233e+01 3.506e+00
255 1 7.035e+00 1.233e+01 1.748e+00
282 1 7.023e+00 1.058e+01 3.493e+00
254 1 8.800e+00 1.056e+01 1.764e+00
257 1 1.057e+01 1.233e+01 1.748e+00
283 1 8.800e+00 1.236e+01 3.488e+00
286 1 1.058e+01 1.058e+01 3.493e+00
256 1 1.233e+01 1.057e+01 1.747e+00
287 1 1.233e+01 1.233e+01 3.506e+00
258 1 1.585e+01 1.057e+01 1.754e+00
259 1 1.409e+01 1.233e+01 1.753e+00
290 1 1.409e+01 1.057e+01 3.509e+00
291 1 1.585e+01 1.233e+01 3.513e+00
260 1 1.760e+01 1.233e+01 1.756e+00
294 1 1.760e+01 1.056e+01 3.512e+00
261 1 1.756e+00 1.409e+01 1.756e+00
262 1 5.273e+00 1.409e+01 1.753e+00
298 1 3.512e+00 1.409e+01 3.512e+00
302 1 7.030e+00 1.409e+01 3.508e+00
264 1 8.800e+00 1.409e+01 1.748e+00
306 1 1.057e+01 1.409e+01 3.508e+00
266 1 1.233e+01 1.409e+01 1.753e+00
268 1 1.584e+01 1.409e+01 1.756e+00
310 1 1.409e+01 1.409e+01 3.512e+00
314 1 1.760e+01 1.409e+01 3.514e+00
271 1 1.757e+00 1.760e+01 1.757e+00
296 1 1.756e+00 1.584e+01 3.515e+00
263 1 3.515e+00 1.584e+01 1.756e+00
272 1 5.274e+00 1.760e+01 1.756e+00
299 1 5.273e+00 1.585e+01 3.513e+00
317 1 3.514e+00 1.760e+01 3.514e+00
265 1 7.035e+00 1.585e+01 1.754e+00
319 1 7.037e+00 1.760e+01 3.512e+00
267 1 1.057e+01 1.585e+01 1.754e+00
273 1 8.800e+00 1.760e+01 1.753e+00
303 1 8.800e+00 1.585e+01 3.506e+00
321 1 1.056e+01 1.760e+01 3.512e+00
274 1 1.233e+01 1.760e+01 1.756e+00
307 1 1.233e+01 1.585e+01 3.512e+00
269 1 1.409e+01 1.584e+01 1.756e+00
275 1 1.584e+01 1.760e+01 1.757e+00
311 1 1.584e+01 1.584e+01 3.515e+00
323 1 1.409e+01 1.760e+01 3.514e+00
270 1 1.760e+01 1.584e+01 1.757e+00
325 1 1.760e+01 1.760e+01 3.515e+00
277 1 1.749e+00 1.056e+01 5.270e+00
280 1 5.266e+00 1.058e+01 5.267e+00
281 1 3.506e+00 1.233e+01 5.268e+00
285 1 7.017e+00 1.233e+01 5.267e+00
284 1 8.800e+00 1.065e+01 5.195e+00
289 1 1.058e+01 1.234e+01 5.265e+00
288 1 1.234e+01 1.058e+01 5.268e+00
292 1 1.585e+01 1.056e+01 5.272e+00
293 1 1.409e+01 1.233e+01 5.269e+00
295 1 1.760e+01 1.233e+01 5.274e+00
297 1 1.754e+00 1.409e+01 5.273e+00
300 1 5.268e+00 1.409e+01 5.268e+00
304 1 8.800e+00 1.411e+01 5.245e+00
308 1 1.233e+01 1.409e+01 5.268e+00
312 1 1.585e+01 1.409e+01 5.273e+00
316 1 1.756e+00 1.760e+01 5.274e+00
301 1 3.512e+00 1.585e+01 5.273e+00
318 1 5.274e+00 1.760e+01 5.274e+00
305 1 7.035e+00 1.585e+01 5.270e+00
309 1 1.057e+01 1.585e+01 5.270e+00
320 1 8.800e+00 1.760e+01 5.277e+00
322 1 1.233e+01 1.760e+01 5.274e+00
313 1 1.409e+01 1.585e+01 5.273e+00
324 1 1.584e+01 1.760e+01 5.274e+00