ITEM: TIMESTEP
0
ITEM: NUMBER OF ATOMS
66
ITEM: BOX BOUNDS pp pp pp
0.0 10.6199999
0.0 10.6199999
0.0 10.6199999
ITEM: ATOMS id type x y z DisplacementX DisplacementY DisplacementZ
70 1 3.511179 3.5111623 10.6199703 -0.0103226 -0.0103393 -2.9563904e-05
50 1 7.0575404 10.5943337 7.0838189 -0.0132103 -0.0171204 0.0030632
30 1 10.594285 7.0575228 3.5362265 -0.017169 -0.0132279 -0.0030177
34 1 7.0575008 10.5942889 3.5361753 -0.0132499 -0.0171652 -0.0030689
43 1 10.5942784 7.0575514 7.0838447 -0.0171757 -0.0131993 0.003089
3 1 7.056788 7.0567889 2.1482248e-05 -0.0139627 -0.0139618 2.1934509e-05
62 1 7.057394 3.5113406 10.619997 -0.0133567 -0.0211365 -2.861023e-06
11 1 3.5113404 7.0573683 10.6199808 -0.0211368 -0.0133824 -1.9073486e-05
102 1 10.5941887 3.5109301 7.0833631 -0.0182943 -0.0180891 8.3398819e-04
36 1 3.5109611 10.5941706 3.5366276 -0.0180581 -0.0183125 -8.4328652e-04
54 1 3.5109244 10.5941801 7.0834003 -0.0180948 -0.0183029 8.7118149e-04
86 1 10.5941849 3.5109833 3.5366712 -0.0182981 -0.0180359 -7.9965592e-04
68 1 1.7424999 3.5117893 8.8517924 -0.0182509 -0.0097122 -0.0074568
79 1 1.7424563 3.5117836 1.7681881 -0.0182945 -0.0097179 0.0074373
74 1 3.5117796 1.7425236 1.7682225 -0.009722 -0.0182272 0.0074717
59 1 3.5117822 1.7424535 8.8517886 -0.0097194 -0.0182973 -0.0074606
44 1 8.8260823 8.8259983 7.0826879 -0.0156031 -0.015687 0.0017529
31 1 8.8259936 8.8260298 3.5372999 -0.0156918 -0.0156555 -0.001765
2 1 7.0566802 8.8257771 8.8520042 -0.0140705 -0.0157299 0.0013008
20 1 7.056612 8.8257303 1.767954 -0.0141387 -0.0157766 -0.0013428
21 1 8.8257246 7.056633 1.7679497 -0.0157824 -0.0141177 -0.0013471
5 1 8.8257818 7.0566106 8.8520404 -0.0157251 -0.0141401 0.0013371
64 1 8.8260136 3.5118935 8.8513938 -0.0172663 -0.0171256 -3.3855438e-04
24 1 3.5118823 8.825944 1.7685473 -0.0171368 -0.0173359 2.7883053e-04
10 1 3.5118277 8.8259802 8.85143 -0.0171914 -0.0172997 -3.0231476e-04
77 1 8.8260117 3.5118852 1.7685554 -0.0172682 -0.017134 2.8693676e-04
93 1 8.8257008 1.7427169 7.0827742 -0.0183554 -0.0180339 -5.3167343e-04
48 1 1.7426317 8.8257265 7.082746 -0.0181191 -0.0183296 -5.5980683e-04
33 1 1.7426843 8.8256817 3.537273 -0.0180665 -0.0183744 5.7888031e-04
82 1 8.8256836 1.7426343 3.5372641 -0.0183725 -0.0181165 5.7005883e-04
55 1 7.0564532 1.7427323 8.8519116 -0.0142975 -0.0180185 0.0036383
9 1 1.742747 7.0564661 8.851882 -0.0180038 -0.0142846 0.0036087
23 1 1.7428659 7.0564799 1.7680974 -0.0178849 -0.0142708 -0.0036291
72 1 7.0565214 1.7428148 1.7680936 -0.0142293 -0.017936 -0.0036329
83 1 1.7423125 1.742383 3.5374296 -0.0184383 -0.0183678 -0.01173
95 1 1.7423642 1.7423502 7.082581 -0.0183866 -0.0184006 0.0117407
56 1 5.284226 1.7460548 10.6199017 -0.0256844 -0.014696 -9.8228455e-05
71 1 1.7460745 5.2842374 10.6199093 -0.0146763 -0.0256729 -9.059906e-05
92 1 10.5938473 1.7461366 5.309958 -0.0151768 -0.0146142 -4.196167e-05
53 1 1.746114 10.5938397 5.3098722 -0.0146368 -0.0151844 -1.2779236e-04
67 1 8.8221054 5.2838621 1.7132596e-05 -0.0219507 -0.0135827 1.7166138e-05
4 1 5.2838359 8.8220968 10.6198874 -0.0136089 -0.0219593 -1.1253357e-04
51 1 8.8223639 10.5945196 5.31003 -0.0191431 -0.0169344 3.0040741e-05
42 1 10.5945215 8.8224497 5.3099771 -0.0169325 -0.0190573 -2.2888184e-05
13 1 5.2842837 10.5941372 8.8485194 -0.013938 -0.0183458 -0.0032129
65 1 10.5941344 5.2842751 8.8485204 -0.0183487 -0.0139465 -0.003212
78 1 10.5941563 5.2842188 1.7714395 -0.0183268 -0.0140028 0.003171
25 1 5.2841916 10.5941487 1.771479 -0.01403 -0.0183344 0.0032105
16 1 1.7350434 1.7350548 6.3271575e-05 1.7350434 1.7350548 6.3271575e-05
66 1 10.5942631 3.523448 10.6199503 -0.0257368 0.0019464 -4.9591064e-05
18 1 3.5234466 10.5943051 10.619999 0.001945 -0.0256948 -9.5367432e-07
57 1 10.5941496 1.7349501 8.8593656 -0.0258503 -0.0258007 1.1634827e-04
27 1 1.7350027 10.5941649 1.7607148 -0.0257481 -0.025835 -3.6001206e-05
17 1 1.7349708 10.5941954 8.8593646 -0.02578 -0.0258045 1.1539459e-04
73 1 10.5940848 1.7349987 1.7606896 -0.0259151 -0.0257521 -6.1154366e-05
35 1 10.5941506 10.5941344 3.5491777 -0.0183325 -0.0183487 0.0117068
52 1 10.594245 10.5941983 7.070818 -0.0182381 -0.0182848 -0.0117111
7 1 10.5941105 7.0449486 10.6199255 -0.0149136 -0.0258021 -7.4386597e-05
14 1 7.0449519 10.5940962 10.6199389 -0.0257988 -0.0149279 -6.1035156e-05
8 1 8.8331404 8.8331385 10.6199112 -0.0109158 -0.0109177 -8.8691712e-05
15 1 8.8333702 10.5943032 8.8595524 -0.0099096 -0.0181799 0.0078201
26 1 8.833457 10.5942383 1.7603934 -0.0098228 -0.0182447 -0.0078751
22 1 10.5942965 8.8333807 1.7604474 -0.0181866 -0.0098991 -0.0078211
6 1 10.5943241 8.8334313 8.8595096 -0.0181589 -0.0098486 0.0077772
58 1 8.8332119 1.7354856 10.619998 0.0016212 -0.0252652 -1.9073486e-06
12 1 1.7355482 8.8332291 2.1496804e-05 -0.0252026 0.0016384 2.1496804e-05
