ITEM: TIMESTEP
0
ITEM: NUMBER OF ATOMS
66
ITEM: BOX BOUNDS pp pp pp
0.0 10.6199999
0.0 10.6199999
0.0 10.6199999
ITEM: ATOMS id type x y z DisplacementX DisplacementY DisplacementZ
17 1 10.619997 7.1087155 7.1087122 -2.861023e-06 0.0102172 0.0102139
100 1 7.083796 0.0257026 3.5625019 0.0030403 0.0171565 0.0132527
19 1 3.536191 3.562455 0.0256928 -0.0030532 0.0132058 0.0171467
96 1 3.5361979 0.0257002 3.5624695 -0.0030463 0.0171542 0.0132203
21 1 7.0838065 3.5624547 0.0256907 0.0030508 0.0132055 0.0171446
45 1 1.1487716e-06 3.5632627 3.5632675 1.1487716e-06 0.0140135 0.0140183
53 1 1.017625e-07 7.1086564 3.5627244 1.017625e-07 0.0211339 0.0134752
9 1 10.619998 3.5626834 7.1086483 -1.9073486e-06 0.0134342 0.0211258
26 1 7.0834231 7.109107 0.0258052 8.9406968e-04 0.018126 0.0182876
60 1 3.5365787 0.0258127 7.1090913 -8.9216232e-04 0.0182951 0.0181103
64 1 7.0834184 0.0258123 7.1091013 8.893013e-04 0.0182947 0.0181203
25 1 3.536573 7.1091061 0.025807 -8.9788438e-04 0.0181251 0.0182894
16 1 8.85178 7.1081543 8.8773976 -0.0074692 0.009656 0.0181484
18 1 1.7682166 7.1081595 8.8773756 0.0074658 0.0096612 0.0181265
59 1 1.7682193 8.8774004 7.1081529 0.0074685 0.0181513 0.0096545
57 1 8.8517866 8.8774034 7.1081557 -0.0074625 0.0181541 0.0096574
87 1 7.0826764 1.7939661 1.7939439 0.0017414 0.0156518 0.0156296
85 1 3.5373268 1.7939548 1.7939502 -0.0017381 0.0156405 0.015636
101 1 8.852025 1.7943229 3.5633695 0.0013218 0.0158293 0.0141203
105 1 1.7679794 1.7943249 3.563334 -0.0013174 0.0158314 0.0140848
32 1 1.7679838 3.5633605 1.7943219 -0.001313 0.0141113 0.0158284
30 1 8.852025 3.5633617 1.7943243 0.0013218 0.0141125 0.0158308
35 1 8.85145 7.1081519 1.794034 -2.822876e-04 0.0171709 0.017314
69 1 1.7685433 1.7940389 7.1081438 2.7477741e-04 0.0173188 0.0171628
65 1 8.8514624 1.794037 7.1081467 -2.6988983e-04 0.0173169 0.0171657
36 1 1.7685581 7.1081519 1.7940312 2.8955936e-04 0.0171709 0.0173111
82 1 7.0828609 8.8773546 1.7942595 -4.4488907e-04 0.0181055 0.0183162
67 1 7.0828633 1.7942577 8.8773452 -4.4250489e-04 0.0183144 0.018096
63 1 3.5371387 1.7942559 8.8773604 4.4465065e-04 0.0183126 0.0181112
81 1 3.5371418 8.877368 1.7942651 4.4775009e-04 0.0181189 0.0183218
92 1 8.8518858 8.877205 3.5636375 0.0036125 0.0179558 0.0143883
7 1 8.8518858 3.5635941 8.8772174 0.0036125 0.0143449 0.0179682
11 1 1.7681107 3.5635875 8.8771974 -0.0036159 0.0143383 0.0179482
94 1 1.7681161 8.877202 3.5636029 -0.0036104 0.0179529 0.0143538
56 1 3.5373187 8.877658 8.8776704 -0.0118408 0.0184088 0.0184212
58 1 7.0826831 8.8776542 8.877656 0.0118427 0.018405 0.0184069
95 1 7.5086694e-06 8.8739252 5.3357539 7.5086694e-06 0.0146761 0.0256643
12 1 1.2539638e-06 5.3357544 8.8739062 1.2539638e-06 0.0256648 0.014657
72 1 5.3100081 8.8738804 0.0261303 8.1062317e-06 0.0146313 0.0151546
62 1 5.309998 0.026138 8.8738538 -1.9073486e-06 0.0151623 0.0146046
33 1 2.035464e-06 5.3361621 1.7979688 2.035464e-06 0.013607 0.0220255
107 1 8.5248699e-06 1.797956 5.3361707 8.5830689e-06 0.0220127 0.0136156
84 1 5.3099871 0.0254382 1.7975003 -1.2874603e-05 0.0168921 0.0190067
76 1 5.3100085 1.7974938 0.0254276 8.5830689e-06 0.0190003 0.0168815
102 1 8.8485662 0.0259142 5.3357511 -0.0031662 0.0183966 0.0139723
22 1 8.8485746 5.3357635 0.0259002 -0.0031576 0.0139847 0.0183826
24 1 1.7714234 5.335762 0.0258978 0.0031549 0.0139833 0.0183802
106 1 1.7714192 0.0259139 5.3357463 0.0031507 0.0183963 0.0139675
79 1 10.619998 8.8850366 8.8850442 -1.9073486e-06 -1.7349634 -1.7349558
27 1 1.0677269e-07 7.0965304 0.0256251 0.0 -0.0019679 0.0256251
68 1 7.1732884e-06 0.0256347 7.0965276 7.1732884e-06 0.0256347 -0.0019708
73 1 8.8595086 8.8849688 0.0258748 2.5939942e-04 0.0257196 0.0258748
70 1 1.7605051 0.0258733 8.884984 -2.4569035e-04 0.0258732 0.0257349
66 1 8.8595076 0.0258725 8.8849764 2.5844574e-04 0.0258725 0.0257273
74 1 1.7604854 8.8849688 0.0258715 -2.6535988e-04 0.0257196 0.0258715
75 1 3.5490384 0.0257539 0.0257509 0.0115676 0.0182363 0.0182333
77 1 7.0709677 0.0257546 0.0257502 -0.0115614 0.0182369 0.0182325
23 1 10.619999 3.5750721 0.0259452 -9.5367432e-07 0.0258229 0.0149695
104 1 2.7832351e-06 0.0259535 3.5750613 2.861023e-06 0.0149778 0.0258121
89 1 10.6199904 1.7869383 1.7869278 -9.5367432e-06 0.010995 0.0109845
86 1 8.859604 0.0257248 1.786596 0.0078716 0.0182072 0.0098759
88 1 1.7604047 0.0257243 1.7865925 -0.0078638 0.0182067 0.0098724
80 1 1.7603921 1.7865858 0.0257303 -0.0078764 0.0098658 0.0182127
78 1 8.859603 1.7865839 0.0257326 0.0078707 0.0098639 0.018215
83 1 10.6199913 8.8844214 1.7869604 -8.5830689e-06 0.0251722 -0.0014485
71 1 10.619998 1.786974 8.8844348 -1.9073486e-06 -0.0014349 0.0251856
