ITEM: TIMESTEP
0
ITEM: NUMBER OF ATOMS
66
ITEM: BOX BOUNDS xy xz yz pp pp pp
                     0.00000000000000e+00 1.06199999000000e+01 0.00000000000000e+00
0.00000000000000e+00	1.06199999000000e+01	0.00000000000000e+00
0.00000000000000e+00	1.06199999000000e+01	0.00000000000000e+00
ITEM: ATOMS id type x y z
17 1 1.06199975773815e+01 7.10871570611348e+00 7.10871242325779e+00
100 1 7.08379583620271e+00 2.57026002773415e-02 3.56250190512476e+00
19 1 3.53619103159942e+00 3.56245503805560e+00 2.56927696095364e-02
96 1 3.53619779974461e+00 2.57002302336406e-02 3.56246931547960e+00
21 1 7.08380663281305e+00 3.56245471732180e+00 2.56906544749960e-02
45 1 1.14877157475490e-06 3.56326270037642e+00 3.56326770497933e+00
53 1 1.01762496207414e-07 7.10865637765605e+00 3.56272445452671e+00
9 1 1.06199982328714e+01 3.56268329658193e+00 7.10864815732045e+00
26 1 7.08342339837817e+00 7.10910715689731e+00 2.58051947166598e-02
60 1 3.53657845528915e+00 2.58126975167787e-02 7.10909121662652e+00
64 1 7.08341842714450e+00 2.58122988273284e-02 7.10910147843913e+00
25 1 3.53657282379806e+00 7.10910577707279e+00 2.58070076025110e-02
16 1 8.85177997432031e+00 7.10815443238870e+00 8.87739712254577e+00
18 1 1.76821658813742e+00 7.10815965533393e+00 8.87737618631795e+00
59 1 1.76821926331369e+00 8.87740002895665e+00 7.10815280842565e+00
57 1 8.85178648206265e+00 8.87740261513746e+00 7.10815540873942e+00
87 1 7.08267661434750e+00 1.79396608146427e+00 1.79394396007822e+00
85 1 3.53732681452953e+00 1.79395472647371e+00 1.79395023349217e+00
101 1 8.85202479604926e+00 1.79432276014749e+00 3.56336956220007e+00
105 1 1.76797942998398e+00 1.79432484121571e+00 3.56333383263344e+00
32 1 1.76798369893586e+00 3.56336054742046e+00 1.79432187560854e+00
30 1 8.85202477205624e+00 3.56336140987819e+00 1.79432423518174e+00
35 1 8.85145000875034e+00 7.10815162035505e+00 1.79403409146656e+00
69 1 1.76854329187956e+00 1.79403893198916e+00 7.10814407110747e+00
65 1 8.85146269961273e+00 1.79403702820253e+00 7.10814682411561e+00
36 1 1.76855812021952e+00 7.10815143941338e+00 1.79403106341822e+00
82 1 7.08286053873566e+00 8.87735513187667e+00 1.79425942092723e+00
67 1 7.08286324228969e+00 1.79425764543352e+00 8.87734549391657e+00
63 1 3.53713866398238e+00 1.79425590623663e+00 8.87736086549621e+00
81 1 3.53714170506268e+00 8.87736800098737e+00 1.79426513347528e+00
92 1 8.85188617501805e+00 8.87720440602163e+00 3.56363746596359e+00
7 1 8.85188544992441e+00 3.56359398613367e+00 8.87721743539569e+00
11 1 1.76811062220088e+00 3.56358721767227e+00 8.87719687172085e+00
94 1 1.76811611092791e+00 8.87720161739647e+00 3.56360284597154e+00
56 1 3.53731859172879e+00 8.87765822711095e+00 8.87767068862256e+00
58 1 7.08268256582740e+00 8.87765469742532e+00 8.87765596093275e+00
95 1 7.50866940446571e-06 8.87392482666431e+00 5.33575407623841e+00
12 1 1.25396373462650e-06 5.33575414787796e+00 8.87390597458100e+00
72 1 5.31000811599348e+00 8.87388037668640e+00 2.61302703203232e-02
62 1 5.30999813279874e+00 2.61379609614254e-02 8.87385421119300e+00
33 1 2.03546419541567e-06 5.33616225162490e+00 1.79796880298678e+00
107 1 8.52487056146600e-06 1.79795594764093e+00 5.33617042603026e+00
84 1 5.30998736720422e+00 2.54381977890050e-02 1.79750022561443e+00
76 1 5.31000821482476e+00 1.79749376909647e+00 2.54275516170361e-02
102 1 8.84856625992598e+00 2.59142420513552e-02 5.33575090253513e+00
22 1 8.84857443177133e+00 5.33576339507034e+00 2.59002304280416e-02
24 1 1.77142333297410e+00 5.33576185994387e+00 2.58978182970440e-02
106 1 1.77141919617191e+00 2.59138930616327e-02 5.33574616171392e+00
79 1 1.06199981970362e+01 8.88503645246063e+00 8.88504435724479e+00
27 1 1.06772693797552e-07 7.09653042483983e+00 2.56250996440572e-02
68 1 7.17328846544518e-06 2.56346916954238e-02 7.09652740122899e+00
73 1 8.85950876403856e+00 8.88496867075103e+00 2.58747658808396e-02
70 1 1.76050504245569e+00 2.58732586023243e-02 8.88498383796009e+00
66 1 8.85950732999686e+00 2.58724654343094e-02 8.88497646093371e+00
74 1 1.76048538648424e+00 8.88496817577166e+00 2.58714564429430e-02
75 1 3.54903822356206e+00 2.57538822139960e-02 2.57509081595231e-02
77 1 7.07096780673607e+00 2.57545711640539e-02 2.57501591545712e-02
23 1 1.06199990222688e+01 3.57507203354893e+00 2.59452212960309e-02
104 1 2.78323507707512e-06 2.59535118589040e-02 3.57506134411024e+00
89 1 1.06199902648259e+01 1.78693841950133e+00 1.78692791095587e+00
86 1 8.85960403656949e+00 2.57248022714531e-02 1.78659600871803e+00
88 1 1.76040469708002e+00 2.57242839133554e-02 1.78659245111267e+00
80 1 1.76039208212660e+00 1.78658584874881e+00 2.57303182230895e-02
78 1 8.85960229816620e+00 1.78658397871428e+00 2.57325843871863e-02
83 1 1.06199911691279e+01 8.88442181798215e+00 1.78696033564596e+00
71 1 1.06199978418857e+01 1.78697401397067e+00 8.88443438825988e+00
