ITEM: TIMESTEP
0
ITEM: NUMBER OF ATOMS
66
ITEM: BOX BOUNDS xy xz yz pp pp pp
                     0.00000000000000e+00 1.06199999000000e+01 0.00000000000000e+00
0.00000000000000e+00	1.06199999000000e+01	0.00000000000000e+00
0.00000000000000e+00	1.06199999000000e+01	0.00000000000000e+00
ITEM: ATOMS id type x y z
17 1 0.00000000000000e+00 7.09849843724003e+00 7.09849843724003e+00
100 1 7.08075554693081e+00 8.54607148892317e-03 3.54924926862002e+00
19 1 3.53924433182919e+00 3.54924924738002e+00 8.54607148892183e-03
96 1 3.53924433182919e+00 8.54607148892317e-03 3.54924926862002e+00
21 1 7.08075554693081e+00 3.54924924738002e+00 8.54607148892183e-03
45 1 0.00000000000000e+00 3.54924924738002e+00 3.54924926862002e+00
53 1 0.00000000000000e+00 7.08752275542736e+00 3.54924926862002e+00
9 1 0.00000000000000e+00 3.54924924738002e+00 7.08752275542736e+00
26 1 7.08252920103176e+00 7.09098081331545e+00 7.51762392458577e-03
60 1 3.53747067772824e+00 7.51762392458577e-03 7.09098081331545e+00
64 1 7.08252920103176e+00 7.51762392458577e-03 7.09098081331545e+00
25 1 3.53747067772824e+00 7.09098081331545e+00 7.51762392458577e-03
16 1 8.85924916862002e+00 7.09849843724003e+00 8.85924916862002e+00
18 1 1.76075073137998e+00 7.09849843724003e+00 8.85924916862002e+00
59 1 1.76075073137998e+00 8.85924916862002e+00 7.09849843724003e+00
57 1 8.85924916862002e+00 8.85924916862002e+00 7.09849843724003e+00
87 1 7.08093497202902e+00 1.77831419659100e+00 1.77831419659100e+00
85 1 3.53906490673098e+00 1.77831419659100e+00 1.77831419659100e+00
101 1 8.85070309713109e+00 1.77849362168920e+00 3.54924926862002e+00
105 1 1.76929680286891e+00 1.77849362168920e+00 3.54924926862001e+00
32 1 1.76929680286891e+00 3.54924924738002e+00 1.77849362168920e+00
30 1 8.85070309713109e+00 3.54924924738002e+00 1.77849362168920e+00
35 1 8.85173154469543e+00 7.09098081331545e+00 1.77671996758826e+00
69 1 1.76826835530457e+00 1.77671996758826e+00 7.09098081331545e+00
65 1 8.85173154469543e+00 1.77671996758826e+00 7.09098081331545e+00
36 1 1.76826835530457e+00 7.09098081331545e+00 1.77671996758826e+00
82 1 7.08330586814338e+00 8.85924916862002e+00 1.77594330047664e+00
67 1 7.08330586814338e+00 1.77594330047664e+00 8.85924916862002e+00
63 1 3.53669401061662e+00 1.77594330047664e+00 8.85924916862002e+00
81 1 3.53669401061662e+00 8.85924916862002e+00 1.77594330047664e+00
92 1 8.84827348680734e+00 8.85924916862002e+00 3.54924926862002e+00
7 1 8.84827348680734e+00 3.54924924738002e+00 8.85924916862002e+00
11 1 1.77172641319266e+00 3.54924924738002e+00 8.85924916862002e+00
94 1 1.77172641319266e+00 8.85924916862002e+00 3.54924926862002e+00
56 1 3.54915950303729e+00 8.85924916862002e+00 8.85924916862002e+00
58 1 7.07084037572271e+00 8.85924916862002e+00 8.85924916862002e+00
95 1 0.00000000000000e+00 8.85924916862002e+00 5.31008966558272e+00
12 1 0.00000000000000e+00 5.31008964434273e+00 8.85924916862002e+00
72 1 5.30999997876000e+00 8.85924916862002e+00 1.09756818126727e-02
62 1 5.30999997876000e+00 1.09756818126741e-02 8.85924916862002e+00
33 1 0.00000000000000e+00 5.32255513676340e+00 1.77594330047663e+00
107 1 1.06199999000000e+01 1.77594330047664e+00 5.32255515800340e+00
84 1 5.30999990000000e+00 8.54607148892317e-03 1.77849362168920e+00
76 1 5.30999997876000e+00 1.77849362168920e+00 8.54607148892272e-03
102 1 8.85173154469543e+00 7.51762392458666e-03 5.32177849089177e+00
22 1 8.85173154469543e+00 5.32177846965177e+00 7.51762392458577e-03
24 1 1.76826835530457e+00 5.32177846965177e+00 7.51762392458577e-03
106 1 1.76826835530457e+00 7.51762392458577e-03 5.32177849089177e+00
79 1 0.00000000000000e+00 0.00000000000000e+00 0.00000000000000e+00
27 1 1.06199999000000e+01 7.09849843724003e+00 0.00000000000000e+00
68 1 0.00000000000000e+00 0.00000000000000e+00 7.09849843724003e+00
73 1 8.85924916862002e+00 8.85924916862002e+00 0.00000000000000e+00
70 1 1.76075073137998e+00 1.06199999000000e+01 8.85924916862002e+00
66 1 8.85924916862002e+00 0.00000000000000e+00 8.85924916862002e+00
74 1 1.76075073137998e+00 8.85924916862002e+00 0.00000000000000e+00
75 1 3.53747067772824e+00 7.51762392458577e-03 7.51762392458577e-03
77 1 7.08252920103176e+00 7.51762392458577e-03 7.51762392458577e-03
23 1 1.06199999000000e+01 3.54924924738002e+00 1.09756818126741e-02
104 1 1.06199999000000e+01 1.09756818126741e-02 3.54924926862002e+00
89 1 1.06199999000000e+01 1.77594330047664e+00 1.77594330047664e+00
86 1 8.85173154469543e+00 7.51762392458666e-03 1.77671996758826e+00
88 1 1.76826835530457e+00 7.51762392458666e-03 1.77671996758826e+00
80 1 1.76826835530457e+00 1.77671996758826e+00 7.51762392458710e-03
78 1 8.85173154469543e+00 1.77671996758826e+00 7.51762392458577e-03
83 1 0.00000000000000e+00 8.85924916862002e+00 1.78840879289731e+00
71 1 1.06199999000000e+01 1.78840879289731e+00 8.85924916862002e+00
