         107
Lattice="  10.6200   0.0000   0.0000   0.0000  10.6200   0.0000   0.0000   0.0000  10.6200 " Time=0.000E+00  Step=0  Energy=-474.306  Barrier=0.000
Ni     0.36315952    0.35400000    0.35400000       1
Ni     2.12400000    2.12572641    0.35400000       2
Ni     2.12400000    0.35400000    2.12572641       3
Ni     0.35147070    2.12226836    2.12226836       4
Ni     3.88484048    0.35400000    0.35400000       5
Ni     5.67324927    2.11475073    0.35400000       6
Ni     5.67324927    0.35400000    2.11475073       7
Ni     3.89652930    2.12226836    2.12226836       8
Ni     9.19475073    2.11475073    0.35400000       9
Ni     9.19475073    0.35400000    2.11475073      10
Ni     7.43400000    2.11475073    2.11475073      11
Ni     0.35069403    3.89069403    0.35400000      12
Ni     2.12400000    3.89324435    2.12329680      13
Ni     3.89730597    3.89069403    0.35400000      14
Ni     5.66573164    3.89147070    2.12226836      15
Ni     7.43400000    3.90315952    0.35400000      16
Ni     9.20226836    3.89147070    2.12226836      17
Ni     0.35069403    0.35400000    3.89069403      18
Ni     2.12400000    2.12329680    3.89324435      19
Ni     3.89730597    0.35400000    3.89069403      20
Ni     5.66573164    2.12226836    3.89147070      21
Ni     7.43400000    0.35400000    3.90315952      22
Ni     9.20226836    2.12226836    3.89147070      23
Ni     0.35306493    3.89306493    3.89306493      24
Ni     3.89493507    3.89306493    3.89306493      25
Ni     7.43400000    3.89069403    3.89069403      26
Ni     2.12400000    0.35400000    5.66400000      27
Ni     0.35324435    2.12329680    5.66400000      28
Ni     5.66227359    0.35400000    5.66400000      29
Ni     3.89475565    2.12329680    5.66400000      30
Ni     9.20572641    0.35400000    5.66400000      31
Ni     7.43400000    2.12572641    5.66400000      32
Ni     2.12400000    3.89351599    5.66400000      33
Ni     5.66470320    3.89324435    5.66400000      34
Ni     9.20329680    3.89324435    5.66400000      35
Ni     0.35069403    0.35400000    7.43730597      36
Ni     2.12400000    2.12329680    7.43475565      37
Ni     2.12400000    0.35400000    9.20227359      38
Ni     0.35147070    2.12226836    9.20573164      39
Ni     3.89730597    0.35400000    7.43730597      40
Ni     5.66573164    2.12226836    7.43652930      41
Ni     5.67324927    0.35400000    9.21324927      42
Ni     3.89652930    2.12226836    9.20573164      43
Ni     7.43400000    0.35400000    7.42484048      44
Ni     9.20226836    2.12226836    7.43652930      45
Ni     9.19475073    0.35400000    9.21324927      46
Ni     7.43400000    2.11475073    9.21324927      47
Ni     0.35306493    3.89306493    7.43493507      48
Ni     2.12400000    3.89324435    9.20470320      49
Ni     3.89493507    3.89306493    7.43493507      50
Ni     5.66573164    3.89147070    9.20573164      51
Ni     7.43400000    3.89069403    7.43730597      52
Ni     9.20226836    3.89147070    9.20573164      53
Ni     2.12400000    5.66400000    0.35400000      54
Ni     0.35324435    5.66400000    2.12329680      55
Ni     5.66227359    5.66400000    0.35400000      56
Ni     3.89475565    5.66400000    2.12329680      57
Ni     9.20572641    5.66400000    0.35400000      58
Ni     7.43400000    5.66400000    2.12572641      59
Ni     0.35069403    7.43730597    0.35400000      60
Ni     2.12400000    9.20227359    0.35400000      61
Ni     2.12400000    7.43475565    2.12329680      62
Ni     0.35147070    9.20573164    2.12226836      63
Ni     3.89730597    7.43730597    0.35400000      64
Ni     5.67324927    9.21324927    0.35400000      65
Ni     5.66573164    7.43652930    2.12226836      66
Ni     3.89652930    9.20573164    2.12226836      67
Ni     7.43400000    7.42484048    0.35400000      68
Ni     9.19475073    9.21324927    0.35400000      69
Ni     9.20226836    7.43652930    2.12226836      70
Ni     7.43400000    9.21324927    2.11475073      71
Ni     2.12400000    5.66400000    3.89351599      72
Ni     5.66470320    5.66400000    3.89324435      73
Ni     9.20329680    5.66400000    3.89324435      74
Ni     0.35306493    7.43493507    3.89306493      75
Ni     2.12400000    9.20470320    3.89324435      76
Ni     3.89493507    7.43493507    3.89306493      77
Ni     5.66573164    9.20573164    3.89147070      78
Ni     7.43400000    7.43730597    3.89069403      79
Ni     9.20226836    9.20573164    3.89147070      80
Ni     0.35351599    5.66400000    5.66400000      81
Ni     3.89448401    5.66400000    5.66400000      82
Ni     7.43400000    5.66400000    5.66400000      83
Ni     2.12400000    7.43448401    5.66400000      84
Ni     0.35324435    9.20470320    5.66400000      85
Ni     5.66470320    7.43475565    5.66400000      86
Ni     3.89475565    9.20470320    5.66400000      87
Ni     9.20329680    7.43475565    5.66400000      88
Ni     7.43400000    9.20227359    5.66400000      89
Ni     2.12400000    5.66400000    7.43448401      90
Ni     0.35324435    5.66400000    9.20470320      91
Ni     5.66470320    5.66400000    7.43475565      92
Ni     3.89475565    5.66400000    9.20470320      93
Ni     9.20329680    5.66400000    7.43475565      94
Ni     7.43400000    5.66400000    9.20227359      95
Ni     0.35306493    7.43493507    7.43493507      96
Ni     2.12400000    9.20470320    7.43475565      97
Ni     2.12400000    7.43475565    9.20470320      98
Ni     0.35147070    9.20573164    9.20573164      99
Ni     3.89493507    7.43493507    7.43493507     100
Ni     5.66573164    9.20573164    7.43652930     101
Ni     5.66573164    7.43652930    9.20573164     102
Ni     3.89652930    9.20573164    9.20573164     103
Ni     7.43400000    7.43730597    7.43730597     104
Ni     9.20226836    9.20573164    7.43652930     105
Ni     9.20226836    7.43652930    9.20573164     106
Ni     7.43400000    9.21324927    9.21324927     107
         107
Lattice="  10.6200   0.0000   0.0000   0.0000  10.6200   0.0000   0.0000   0.0000  10.6200 " Time=1.028E+03  Step=0.5  Energy=-473.283  Barrier=1.022
Ni     0.33888223    0.33719608    0.35396889       1
Ni     2.13157133    2.09557438    0.35399843       2
Ni     2.13080897    0.34045785    2.11367476       3
Ni     0.33883631    2.10560561    2.10728906       4
Ni     3.96191176    0.30854073    0.35397531       5
Ni     5.69280817    2.03960787    0.35399336       6
Ni     5.62180785    0.37959244    2.28693744       7
Ni     3.88842822    2.11293365    2.12398651       8
Ni     9.16187490    2.08184942    0.35400410       9
Ni     9.16101690    0.33328669    2.12346175      10
Ni     7.41326524    2.08094955    2.12344078      11
Ni     0.33611131    3.87612319    0.35400873      12
Ni     2.11723632    3.88436875    2.10491595      13
Ni     3.90583658    3.86986090    0.35400730      14
Ni     5.66100430    3.87067784    2.11356074      15
Ni     7.41718324    3.87888858    0.35401834      16
Ni     9.18559316    3.87880009    2.10729829      17
Ni     0.34896962    0.35065335    3.87739037      18
Ni     2.10590337    2.12509694    3.88222986      19
Ni     3.84861880    0.35246971    3.93298712      20
Ni     5.64894533    2.15281156    3.93279977      21
Ni     7.44035838    0.36036870    3.95321688      22
Ni     9.20176858    2.12179031    3.88485148      23
Ni     0.34684688    3.88684675    3.87606615      24
Ni     3.87638628    3.89555541    3.88213902      25
Ni     7.43064754    3.88896523    3.87738879      26
Ni     2.08847431    0.35252712    5.66401726      27
Ni     0.34830412    2.12758103    5.66399449      28
Ni     5.64101035    0.36044306    5.66399256      29
Ni     3.86204447    2.13961164    5.66399225      30
Ni     9.22704599    0.35863492    5.66398790      31
Ni     7.43861863    2.14706057    5.66399831      32
Ni     2.10775167    3.89359697    5.66398311      33
Ni     5.64905156    3.91281502    5.66400891      34
Ni     9.20756273    3.88830607    5.66401372      35
Ni     0.34895513    0.35066886    7.45061333      36
Ni     2.10590761    2.12513497    7.44576447      37
Ni     2.13081044    0.34040539    9.21434120      38
Ni     0.33883521    2.10561855    9.22069847      39
Ni     3.84863303    0.35248653    7.39501048      40
Ni     5.64894134    2.15281828    7.39519178      41
Ni     5.62182379    0.37960819    9.04105276      42
Ni     3.88842147    2.11294978    9.20400021      43
Ni     7.44036758    0.36037604    7.37477992      44
Ni     9.20177114    2.12177782    7.44315060      45
Ni     9.16098970    0.33328195    9.20454694      46
Ni     7.41326698    2.08096607    9.20456103      47
Ni     0.34684685    3.88684351    7.45192698      48
Ni     2.11722935    3.88437164    9.22311500      49
Ni     3.87638166    3.89556460    7.44586214      50
Ni     5.66100308    3.87068302    9.21444140      51
Ni     7.43065122    3.88897030    7.45063422      52
Ni     9.18559202    3.87879237    9.22071306      53
Ni     2.12557827    5.66557526    0.35399394      54
Ni     0.34432347    5.65722293    2.10489927      55
Ni     5.66421421    5.66260827    0.35400019      56
Ni     3.89586577    5.66273932    2.10742132      57
Ni     9.17555467    5.67156211    0.35399942      58
Ni     7.42042861    5.67081988    2.11363331      59
Ni     0.32986683    7.44583191    0.35396115      60
Ni     2.12259267    9.20423444    0.35406088      61
Ni     2.12269255    7.43582951    2.10740955      62
Ni     0.33066512    9.20098634    2.11357660      63
Ni     3.91975043    7.45978512    0.35398051      64
Ni     6.54070907   10.08067693    0.35399736      65
Ni     5.66814464    7.46029631    2.12365788      66
Ni     3.92026545    9.20809261    2.12368652      67
Ni     7.38856408    7.50191392    0.35400374      68
Ni     9.11963131    9.23283331    0.35400666      69
Ni     9.19295605    7.42844219    2.12400389      70
Ni     7.45963215    9.16186515    2.28696997      71
Ni     2.11460000    5.65460814    3.87621622      72
Ni     5.65081394    5.65234009    3.87754808      73
Ni     9.20510151    5.64589106    3.88224065      74
Ni     0.35556557    7.41636635    3.88216899      75
Ni     2.11232690    9.19080488    3.87757472      76
Ni     3.87971970    7.41972727    3.88515476      77
Ni     5.64124307    9.18125733    3.95306722      78
Ni     7.43249018    7.38863535    3.93297938      79
Ni     9.23284371    9.18893763    3.93281747      80
Ni     0.35359598    5.64772938    5.66399210      81
Ni     3.87385034    5.65292596    5.66399706      82
Ni     7.43250209    5.62848159    5.66400639      83
Ni     2.11293709    7.41383331    5.66402389      84
Ni     0.37280775    9.18905551    5.66401872      85
Ni     5.64280027    7.39469190    5.66399540      86
Ni     3.85470416    9.18278998    5.66401700      87
Ni     9.21959628    7.40202984    5.66398868      88
Ni     7.44044165    9.18102317    5.66398850      89
Ni     2.11459763    5.65457321    7.45178052      90
Ni     0.34431078    5.65720357    9.22308338      91
Ni     5.65081355    5.65234668    7.45045089      92
Ni     3.89586643    5.66272827    9.22057625      93
Ni     9.20510267    5.64589901    7.44576094      94
Ni     7.42042922    5.67081105    9.21437665      95
Ni     0.35554359    7.41634746    7.44583273      96
Ni     2.11233660    9.19080059    7.45041165      97
Ni     2.12270307    7.43587609    9.22060103      98
Ni     0.33071251    9.20098041    9.21442186      99
Ni     3.87975020    7.41972086    7.44284213     100
Ni     5.64128626    9.18126804    7.37493705     101
Ni     5.66815210    7.46028246    9.20432536     102
Ni     3.92022217    9.20809044    9.20432443     103
Ni     7.43249176    7.38863175    7.39501057     104
Ni     9.23281043    9.18893963    7.39517224     105
Ni     9.19293843    7.42843661    9.20398825     106
Ni     7.45964410    9.16185381    9.04104499     107
         107
Lattice="  10.6200   0.0000   0.0000   0.0000  10.6200   0.0000   0.0000   0.0000  10.6200 " Time=1.028E+03  Step=1  Energy=-474.306  Barrier=0.000
Ni     0.33751975    0.33926463    0.35399993       1
Ni     2.11057193    2.10460078    0.35399994       2
Ni     2.10964423    0.33601383    2.12211375       3
Ni     0.33752250    2.10700143    2.12315194       4
Ni     3.88624594    0.32880117    0.35399998       5
Ni     5.64756979    2.11661434    0.35399996       6
Ni     5.64741181    0.32829829    2.11455435       7
Ni     3.87918519    2.10505367    2.12255328       8
Ni     9.18459537    2.10459540    0.35399996       9
Ni     9.18507064    0.33582829    2.12217502      10
Ni     7.41582831    2.10507057    2.12217498      11
Ni     0.33784924    3.87784920    0.35400002      12
Ni     2.10830301    3.87738246    2.12403762      13
Ni     3.87520883    3.87706948    0.35400000      14
Ni     5.64731484    3.87746280    2.12543974      15
Ni     7.41926467    3.87751995    0.35400014      16
Ni     9.18700156    3.87752245    2.12315199      17
Ni     0.33724818    0.33681488    3.89307539      18
Ni     2.10823111    2.10648506    3.89342981      19
Ni     3.87901925    0.33587997    3.89113384      20
Ni     5.64747799    2.10415544    3.89058604      21
Ni     7.41556188    0.33556191    3.89130327      22
Ni     9.18652170    2.10652168    3.89290583      23
Ni     0.33736568    3.87736566    3.89363325      24
Ni     3.87844123    3.87784230    3.89350905      25
Ni     7.41681493    3.87724812    3.89307537      26
Ni     2.10791045    0.33624616    5.66400004      27
Ni     0.33728037    2.10680023    5.66400003      28
Ni     5.64706694    0.33927208    5.66399999      29
Ni     3.87789487    2.10688540    5.66399998      30
Ni     9.18642654    0.33668353    5.66399997      31
Ni     7.41668348    2.10642641    5.66399996      32
Ni     2.10786605    3.87782496    5.66399999      33
Ni     5.64751758    3.87732327    5.66399999      34
Ni     9.18680016    3.87728024    5.66400002      35
Ni     0.33724815    0.33681493    7.43492467      36
Ni     2.10823116    2.10648512    7.43457022      37
Ni     2.10964424    0.33601369    9.20588624      38
Ni     0.33752250    2.10700150    9.20484796      39
Ni     3.87901929    0.33588002    7.43686617      40
Ni     5.64747802    2.10415541    7.43741392      41
Ni     5.64741186    0.32829820    9.21344565      42
Ni     3.87918518    2.10505365    9.20544669      43
Ni     7.41556193    0.33556198    7.43669674      44
Ni     9.18652163    2.10652164    7.43509415      45
Ni     9.18507060    0.33582826    9.20582497      46
Ni     7.41582829    2.10507070    9.20582507      47
Ni     0.33736565    3.87736568    7.43436672      48
Ni     2.10830302    3.87738245    9.20396245      49
Ni     3.87844128    3.87784228    7.43449093      50
Ni     5.64731486    3.87746280    9.20256026      51
Ni     7.41681492    3.87724814    7.43492458      52
Ni     9.18700147    3.87752247    9.20484804      53
Ni     2.11005917    5.65005909    0.35399996      54
Ni     0.33738241    5.64830310    2.12403754      55
Ni     5.64723597    5.63811033    0.35399994      56
Ni     3.87893868    5.64986444    2.12199742      57
Ni     9.18460091    5.65057202    0.35399998      58
Ni     7.41601378    5.64964422    2.12211377      59
Ni     0.33706962    7.41520892    0.35399997      60
Ni     2.09811043    9.18723642    0.35400035      61
Ni     2.10986442    7.41893861    2.12199730      62
Ni     0.33746274    9.18731488    2.12543972      63
Ni     3.88637124    7.42637117    0.35399998      64
Ni     7.40816587   10.94816595    0.35399999      65
Ni     5.64754592    7.42664941    2.11435506      66
Ni     3.88664971    9.18754585    2.11435502      67
Ni     7.40880103    7.42624578    0.35399998      68
Ni     9.19661421    9.18756960    0.35399999      69
Ni     9.18505359    7.41918522    2.12255327      70
Ni     7.40829808    9.18741189    2.11455436      71
Ni     2.10863916    5.64863923    3.89319964      72
Ni     5.64757362    5.65081925    3.89018181      73
Ni     9.18648507    5.64823110    3.89342976      74
Ni     0.33784229    7.41844125    3.89350905      75
Ni     2.11081928    9.18757357    3.89018169      76
Ni     3.87927034    7.41927034    3.89130580      77
Ni     5.64744852    9.18744853    3.90298272      78
Ni     7.41588000    7.41901933    3.89113385      79
Ni     9.18415543    9.18747795    3.89058607      80
Ni     0.33782482    5.64786592    5.66400000      81
Ni     3.87853286    5.64859908    5.66399999      82
Ni     7.41624616    5.64791043    5.66399998      83
Ni     2.10859904    7.41853281    5.66400004      84
Ni     0.33732329    9.18751758    5.66400004      85
Ni     5.64775612    7.41568557    5.66400004      86
Ni     3.87568553    9.18775600    5.66400004      87
Ni     9.18688538    7.41789490    5.66399997      88
Ni     7.41927209    9.18706713    5.66400004      89
Ni     2.10863919    5.64863918    7.43480042      90
Ni     0.33738244    5.64830304    9.20396244      91
Ni     5.64757360    5.65081924    7.43781818      92
Ni     3.87893863    5.64986444    9.20600256      93
Ni     9.18648507    5.64823116    7.43457024      94
Ni     7.41601379    5.64964414    9.20588628      95
Ni     0.33784231    7.41844121    7.43449098      96
Ni     2.11081926    9.18757361    7.43781815      97
Ni     2.10986443    7.41893874    9.20600267      98
Ni     0.33746288    9.18731486    9.20256028      99
Ni     3.87927034    7.41927034    7.43669419     100
Ni     5.64744860    9.18744860    7.42501733     101
Ni     5.64754588    7.42664944    9.21364483     102
Ni     3.88664948    9.18754586    9.21364494     103
Ni     7.41588005    7.41901928    7.43686612     104
Ni     9.18415547    9.18747796    7.43741397     105
Ni     9.18505363    7.41918523    9.20544672     106
Ni     7.40829809    9.18741181    9.21344570     107
