         499
Lattice="  17.7000   0.0000   0.0000   0.0000  17.7000   0.0000   0.0000   0.0000  17.7000 " Time=0.000E+00  Step=0  Energy=-2218.019  Barrier=0.000
Ni     0.35463120    0.35510865    0.35265059       1
Ni     2.12400000    2.12330100    0.35547951       2
Ni     2.12400000    0.35382138    2.12422908       3
Ni     0.35381619    2.12381619    2.12443497       4
Ni     3.89336880    0.35510865    0.35265059       5
Ni     5.66289135    2.12463120    0.35265059       6
Ni     5.66367962    0.35432038    2.12339988       7
Ni     3.89418381    2.12381619    2.12443497       8
Ni     7.43314371    0.35458378    0.35314371       9
Ni     9.20337457    2.12417651    0.35352181      10
Ni     9.20367779    0.35426769    2.12367779      11
Ni     7.43352181    2.12417651    2.12337457      12
Ni    10.97400000    0.35422162    0.35372811      13
Ni    12.74462543    2.12417651    0.35352181      14
Ni    12.74432221    0.35426769    2.12367779      15
Ni    10.97400000    2.12414547    2.12374177      16
Ni    14.51485629    0.35458378    0.35314371      17
Ni    16.28510865    2.12463120    0.35265059      18
Ni    16.28432038    0.35432038    2.12339988      19
Ni    14.51447819    2.12417651    2.12337457      20
Ni     0.35330100    3.89400000    0.35547951      21
Ni     2.12400000    5.66469900    0.35547951      22
Ni     2.12400000    3.89400000    2.12426643      23
Ni     0.35381619    5.66418381    2.12443497      24
Ni     3.89469900    3.89400000    0.35547951      25
Ni     5.66289135    5.66336880    0.35265059      26
Ni     5.66417862    3.89400000    2.12422908      27
Ni     3.89418381    5.66418381    2.12443497      28
Ni     7.43240231    3.89400000    0.35240231      29
Ni     9.20337457    5.66382349    0.35352181      30
Ni     9.20344425    3.89400000    2.12344425      31
Ni     7.43352181    5.66382349    2.12337457      32
Ni    10.97400000    3.89400000    0.35403909      33
Ni    12.74462543    5.66382349    0.35352181      34
Ni    12.74455575    3.89400000    2.12344425      35
Ni    10.97400000    5.66385453    2.12374177      36
Ni    14.51559769    3.89400000    0.35240231      37
Ni    16.28510865    5.66336880    0.35265059      38
Ni    16.28382138    3.89400000    2.12422908      39
Ni    14.51447819    5.66382349    2.12337457      40
Ni     0.35463120    7.43289135    0.35265059      41
Ni     2.12400000    7.43417862    2.12422908      42
Ni     3.89336880    7.43289135    0.35265059      43
Ni     5.66367962    7.43367962    2.12339988      44
Ni     7.43314371    7.43341622    0.35314371      45
Ni     9.20367779    7.43373231    2.12367779      46
Ni    10.97400000    7.43377838    0.35372811      47
Ni    12.74432221    7.43373231    2.12367779      48
Ni    14.51485629    7.43341622    0.35314371      49
Ni    16.28432038    7.43367962    2.12339988      50
Ni     0.35390272    0.35383556    3.89400000      51
Ni     2.12400000    2.12390000    3.89400000      52
Ni     2.12400000    0.35382138    5.66377092      53
Ni     0.35381619    2.12381619    5.66356503      54
Ni     3.89409728    0.35383556    3.89400000      55
Ni     5.66416444    2.12390272    3.89400000      56
Ni     5.66367962    0.35432038    5.66460012      57
Ni     3.89418381    2.12381619    5.66356503      58
Ni     7.43372811    0.35422162    3.89400000      59
Ni     9.20374177    2.12414547    3.89400000      60
Ni     9.20367779    0.35426769    5.66432221      61
Ni     7.43352181    2.12417651    5.66462543      62
Ni    10.97400000    0.35423234    3.89400000      63
Ni    12.74425823    2.12414547    3.89400000      64
Ni    12.74432221    0.35426769    5.66432221      65
Ni    10.97400000    2.12414547    5.66425823      66
Ni    14.51427189    0.35422162    3.89400000      67
Ni    16.28383556    2.12390272    3.89400000      68
Ni    16.28432038    0.35432038    5.66460012      69
Ni    14.51447819    2.12417651    5.66462543      70
Ni     0.35390000    3.89400000    3.89400000      71
Ni     2.12400000    5.66410000    3.89400000      72
Ni     2.12400000    3.89400000    5.66373357      73
Ni     0.35381619    5.66418381    5.66356503      74
Ni     3.89410000    3.89400000    3.89400000      75
Ni     5.66416444    5.66409728    3.89400000      76
Ni     5.66417862    3.89400000    5.66377092      77
Ni     3.89418381    5.66418381    5.66356503      78
Ni     7.43403909    3.89400000    3.89400000      79
Ni     9.20374177    5.66385453    3.89400000      80
Ni     9.20344425    3.89400000    5.66455575      81
Ni     7.43352181    5.66382349    5.66462543      82
Ni    10.97400000    3.89400000    3.89400000      83
Ni    12.74425823    5.66385453    3.89400000      84
Ni    12.74455575    3.89400000    5.66455575      85
Ni    10.97400000    5.66385453    5.66425823      86
Ni    14.51396091    3.89400000    3.89400000      87
Ni    16.28383556    5.66409728    3.89400000      88
Ni    16.28382138    3.89400000    5.66377092      89
Ni    14.51447819    5.66382349    5.66462543      90
Ni     0.35390272    7.43416444    3.89400000      91
Ni     2.12400000    7.43417862    5.66377092      92
Ni     3.89409728    7.43416444    3.89400000      93
Ni     5.66367962    7.43367962    5.66460012      94
Ni     7.43372811    7.43377838    3.89400000      95
Ni     9.20367779    7.43373231    5.66432221      96
Ni    10.97400000    7.43376766    3.89400000      97
Ni    12.74432221    7.43373231    5.66432221      98
Ni    14.51427189    7.43377838    3.89400000      99
Ni    16.28432038    7.43367962    5.66460012     100
Ni     0.35463120    0.35510865    7.43534941     101
Ni     2.12400000    2.12330100    7.43252049     102
Ni     3.89336880    0.35510865    7.43534941     103
Ni     5.66289135    2.12463120    7.43534941     104
Ni     7.43314371    0.35458378    7.43485629     105
Ni     9.20337457    2.12417651    7.43447819     106
Ni    10.97400000    0.35422162    7.43427189     107
Ni    12.74462543    2.12417651    7.43447819     108
Ni    14.51485629    0.35458378    7.43485629     109
Ni    16.28510865    2.12463120    7.43534941     110
Ni     0.35330100    3.89400000    7.43252049     111
Ni     2.12400000    5.66469900    7.43252049     112
Ni     3.89469900    3.89400000    7.43252049     113
Ni     5.66289135    5.66336880    7.43534941     114
Ni     7.43240231    3.89400000    7.43559769     115
Ni     9.20337457    5.66382349    7.43447819     116
Ni    10.97400000    3.89400000    7.43396091     117
Ni    12.74462543    5.66382349    7.43447819     118
Ni    14.51559769    3.89400000    7.43559769     119
Ni    16.28510865    5.66336880    7.43534941     120
Ni     0.35463120    7.43289135    7.43534941     121
Ni     3.89336880    7.43289135    7.43534941     122
Ni     7.43314371    7.43341622    7.43485629     123
Ni    10.97400000    7.43377838    7.43427189     124
Ni    14.51485629    7.43341622    7.43485629     125
Ni     2.12400000    0.35813102    9.20813102     126
Ni     0.35633952    2.12633952    9.20676736     127
Ni     5.66232086    0.35567914    9.20567914     128
Ni     3.89166048    2.12633952    9.20676736     129
Ni     9.20339988    0.35432038    9.20432038     130
Ni     7.43265059    2.12463120    9.20510865     131
Ni    12.74460012    0.35432038    9.20432038     132
Ni    10.97400000    2.12390272    9.20383556     133
Ni    16.28567914    0.35567914    9.20567914     134
Ni    14.51534941    2.12463120    9.20510865     135
Ni     2.12400000    3.89400000    9.19479203     136
Ni     0.35633952    5.66166048    9.20676736     137
Ni     5.65986898    3.89400000    9.20813102     138
Ni     3.89166048    5.66166048    9.20676736     139
Ni     9.20422908    3.89400000    9.20382138     140
Ni     7.43265059    5.66336880    9.20510865     141
Ni    12.74377092    3.89400000    9.20382138     142
Ni    10.97400000    5.66409728    9.20383556     143
Ni    16.28813102    3.89400000    9.20813102     144
Ni    14.51534941    5.66336880    9.20510865     145
Ni     2.12400000    7.42986898    9.20813102     146
Ni     5.66232086    7.43232086    9.20567914     147
Ni     9.20339988    7.43367962    9.20432038     148
Ni    12.74460012    7.43367962    9.20432038     149
Ni    16.28567914    7.43232086    9.20567914     150
Ni     0.35633952    0.35676736   10.97633952     151
Ni     2.12400000    2.13371672   10.98371672     152
Ni     2.12400000    0.34479203   12.74400000     153
Ni     0.36371672    2.13371672   12.74400000     154
Ni     3.89166048    0.35676736   10.97633952     155
Ni     5.66123264    2.12633952   10.97633952     156
Ni     5.65986898    0.35813102   12.74400000     157
Ni     3.88428328    2.13371672   12.74400000     158
Ni     7.43265059    0.35510865   10.97463120     159
Ni     9.20443497    2.12381619   10.97381619     160
Ni     9.20422908    0.35382138   12.74400000     161
Ni     7.43547951    2.12330100   12.74400000     162
Ni    10.97400000    0.35383556   10.97390272     163
Ni    12.74356503    2.12381619   10.97381619     164
Ni    12.74377092    0.35382138   12.74400000     165
Ni    10.97400000    2.12390000   12.74400000     166
Ni    14.51534941    0.35510865   10.97463120     167
Ni    16.28676736    2.12633952   10.97633952     168
Ni    16.28813102    0.35813102   12.74400000     169
Ni    14.51252049    2.12330100   12.74400000     170
Ni     0.36371672    3.89400000   10.98371672     171
Ni     2.12400000    5.65428328   10.98371672     172
Ni     0.36371672    5.65428328   12.74400000     173
Ni     3.88428328    3.89400000   10.98371672     174
Ni     5.66123264    5.66166048   10.97633952     175
Ni     5.67320797    3.89400000   12.74400000     176
Ni     3.88428328    5.65428328   12.74400000     177
Ni     7.43547951    3.89400000   10.97330100     178
Ni     9.20443497    5.66418381   10.97381619     179
Ni     9.20426643    3.89400000   12.74400000     180
Ni     7.43547951    5.66469900   12.74400000     181
Ni    10.97400000    3.89400000   10.97390000     182
Ni    12.74356503    5.66418381   10.97381619     183
Ni    12.74373357    3.89400000   12.74400000     184
Ni    10.97400000    5.66410000   12.74400000     185
Ni    14.51252049    3.89400000   10.97330100     186
Ni    16.28676736    5.66166048   10.97633952     187
Ni    16.27479203    3.89400000   12.74400000     188
Ni    14.51252049    5.66469900   12.74400000     189
Ni     0.35633952    7.43123264   10.97633952     190
Ni     2.12400000    7.44320797   12.74400000     191
Ni     3.89166048    7.43123264   10.97633952     192
Ni     5.65986898    7.42986898   12.74400000     193
Ni     7.43265059    7.43289135   10.97463120     194
Ni     9.20422908    7.43417862   12.74400000     195
Ni    10.97400000    7.43416444   10.97390272     196
Ni    12.74377092    7.43417862   12.74400000     197
Ni    14.51534941    7.43289135   10.97463120     198
Ni    16.28813102    7.42986898   12.74400000     199
Ni     0.35633952    0.35676736   14.51166048     200
Ni     2.12400000    2.13371672   14.50428328     201
Ni     2.12400000    0.35813102   16.27986898     202
Ni     0.35633952    2.12633952   16.28123264     203
Ni     3.89166048    0.35676736   14.51166048     204
Ni     5.66123264    2.12633952   14.51166048     205
Ni     5.66232086    0.35567914   16.28232086     206
Ni     3.89166048    2.12633952   16.28123264     207
Ni     7.43265059    0.35510865   14.51336880     208
Ni     9.20443497    2.12381619   14.51418381     209
Ni     9.20339988    0.35432038   16.28367962     210
Ni     7.43265059    2.12463120   16.28289135     211
Ni    10.97400000    0.35383556   14.51409728     212
Ni    12.74356503    2.12381619   14.51418381     213
Ni    12.74460012    0.35432038   16.28367962     214
Ni    10.97400000    2.12390272   16.28416444     215
Ni    14.51534941    0.35510865   14.51336880     216
Ni    16.28676736    2.12633952   14.51166048     217
Ni    16.28567914    0.35567914   16.28232086     218
Ni    14.51534941    2.12463120   16.28289135     219
Ni     0.36371672    3.89400000   14.50428328     220
Ni     2.12400000    5.65428328   14.50428328     221
Ni     2.12400000    3.89400000   16.29320797     222
Ni     0.35633952    5.66166048   16.28123264     223
Ni     3.88428328    3.89400000   14.50428328     224
Ni     5.66123264    5.66166048   14.51166048     225
Ni     5.65986898    3.89400000   16.27986898     226
Ni     3.89166048    5.66166048   16.28123264     227
Ni     7.43547951    3.89400000   14.51469900     228
Ni     9.20443497    5.66418381   14.51418381     229
Ni     9.20422908    3.89400000   16.28417862     230
Ni     7.43265059    5.66336880   16.28289135     231
Ni    10.97400000    3.89400000   14.51410000     232
Ni    12.74356503    5.66418381   14.51418381     233
Ni    12.74377092    3.89400000   16.28417862     234
Ni    10.97400000    5.66409728   16.28416444     235
Ni    14.51252049    3.89400000   14.51469900     236
Ni    16.28676736    5.66166048   14.51166048     237
Ni    16.28813102    3.89400000   16.27986898     238
Ni    14.51534941    5.66336880   16.28289135     239
Ni     0.35633952    7.43123264   14.51166048     240
Ni     2.12400000    7.42986898   16.27986898     241
Ni     3.89166048    7.43123264   14.51166048     242
Ni     5.66232086    7.43232086   16.28232086     243
Ni     7.43265059    7.43289135   14.51336880     244
Ni     9.20339988    7.43367962   16.28367962     245
Ni    10.97400000    7.43416444   14.51409728     246
Ni    12.74460012    7.43367962   16.28367962     247
Ni    14.51534941    7.43289135   14.51336880     248
Ni    16.28567914    7.43232086   16.28232086     249
Ni     2.12400000    9.20240231    0.35240231     250
Ni     0.35417651    9.20352181    2.12337457     251
Ni     5.66341622    9.20314371    0.35314371     252
Ni     3.89382349    9.20352181    2.12337457     253
Ni     9.20363461    9.20363155    0.35363155     254
Ni     7.43363155    9.20363155    2.12363461     255
Ni    12.74436539    9.20363155    0.35363155     256
Ni    10.97400000    9.20374523    2.12380155     257
Ni    16.28458378    9.20314371    0.35314371     258
Ni    14.51436845    9.20363155    2.12363461     259
Ni     0.35417651   10.97337457    0.35352181     260
Ni     2.12400000   12.74400000    0.35403909     261
Ni     2.12400000   10.97344425    2.12344425     262
Ni     0.35414547   12.74400000    2.12374177     263
Ni     3.89382349   10.97337457    0.35352181     264
Ni     5.66377838   12.74400000    0.35372811     265
Ni     5.66373231   10.97367779    2.12367779     266
Ni     3.89385453   12.74400000    2.12374177     267
Ni     7.43363155   10.97363461    0.35363155     268
Ni     9.20380155   12.74400000    0.35374523     269
Ni     9.20381139   10.97381139    2.12381139     270
Ni     7.43374523   12.74400000    2.12380155     271
Ni    10.97400000   10.97380155    0.35374523     272
Ni    12.74419845   12.74400000    0.35374523     273
Ni    12.74418861   10.97381139    2.12381139     274
Ni    10.97400000   12.74400000    2.12384709     275
Ni    14.51436845   10.97363461    0.35363155     276
Ni    16.28422162   12.74400000    0.35372811     277
Ni    16.28426769   10.97367779    2.12367779     278
Ni    14.51425477   12.74400000    2.12380155     279
Ni     0.35417651   14.51462543    0.35352181     280
Ni     2.12400000   16.28559769    0.35240231     281
Ni     2.12400000   14.51455575    2.12344425     282
Ni     0.35417651   16.28447819    2.12337457     283
Ni     3.89382349   14.51462543    0.35352181     284
Ni     5.66341622   16.28485629    0.35314371     285
Ni     5.66373231   14.51432221    2.12367779     286
Ni     3.89382349   16.28447819    2.12337457     287
Ni     7.43363155   14.51436539    0.35363155     288
Ni     9.20363461   16.28436845    0.35363155     289
Ni     9.20381139   14.51418861    2.12381139     290
Ni     7.43363155   16.28436845    2.12363461     291
Ni    10.97400000   14.51419845    0.35374523     292
Ni    12.74436539   16.28436845    0.35363155     293
Ni    12.74418861   14.51418861    2.12381139     294
Ni    10.97400000   16.28425477    2.12380155     295
Ni    14.51436845   14.51436539    0.35363155     296
Ni    16.28458378   16.28485629    0.35314371     297
Ni    16.28426769   14.51432221    2.12367779     298
Ni    14.51436845   16.28436845    2.12363461     299
Ni     2.12400000    9.20403909    3.89400000     300
Ni     0.35417651    9.20352181    5.66462543     301
Ni     5.66377838    9.20372811    3.89400000     302
Ni     3.89382349    9.20352181    5.66462543     303
Ni     9.20380155    9.20374523    3.89400000     304
Ni     7.43363155    9.20363155    5.66436539     305
Ni    12.74419845    9.20374523    3.89400000     306
Ni    10.97400000    9.20374523    5.66419845     307
Ni    16.28422162    9.20372811    3.89400000     308
Ni    14.51436845    9.20363155    5.66436539     309
Ni     0.35414547   10.97374177    3.89400000     310
Ni     2.12400000   12.74400000    3.89400000     311
Ni     2.12400000   10.97344425    5.66455575     312
Ni     0.35414547   12.74400000    5.66425823     313
Ni     3.89385453   10.97374177    3.89400000     314
Ni     5.66376766   12.74400000    3.89400000     315
Ni     5.66373231   10.97367779    5.66432221     316
Ni     3.89385453   12.74400000    5.66425823     317
Ni     7.43374523   10.97380155    3.89400000     318
Ni     9.20384709   12.74400000    3.89400000     319
Ni     9.20381139   10.97381139    5.66418861     320
Ni     7.43374523   12.74400000    5.66419845     321
Ni    10.97400000   10.97384709    3.89400000     322
Ni    12.74415291   12.74400000    3.89400000     323
Ni    12.74418861   10.97381139    5.66418861     324
Ni    10.97400000   12.74400000    5.66415291     325
Ni    14.51425477   10.97380155    3.89400000     326
Ni    16.28423234   12.74400000    3.89400000     327
Ni    16.28426769   10.97367779    5.66432221     328
Ni    14.51425477   12.74400000    5.66419845     329
Ni     0.35414547   14.51425823    3.89400000     330
Ni     2.12400000   16.28396091    3.89400000     331
Ni     2.12400000   14.51455575    5.66455575     332
Ni     0.35417651   16.28447819    5.66462543     333
Ni     3.89385453   14.51425823    3.89400000     334
Ni     5.66377838   16.28427189    3.89400000     335
Ni     5.66373231   14.51432221    5.66432221     336
Ni     3.89382349   16.28447819    5.66462543     337
Ni     7.43374523   14.51419845    3.89400000     338
Ni     9.20380155   16.28425477    3.89400000     339
Ni     9.20381139   14.51418861    5.66418861     340
Ni     7.43363155   16.28436845    5.66436539     341
Ni    10.97400000   14.51415291    3.89400000     342
Ni    12.74419845   16.28425477    3.89400000     343
Ni    12.74418861   14.51418861    5.66418861     344
Ni    10.97400000   16.28425477    5.66419845     345
Ni    14.51425477   14.51419845    3.89400000     346
Ni    16.28422162   16.28427189    3.89400000     347
Ni    16.28426769   14.51432221    5.66432221     348
Ni    14.51436845   16.28436845    5.66436539     349
Ni     2.12400000    9.20240231    7.43559769     350
Ni     5.66341622    9.20314371    7.43485629     351
Ni     9.20363461    9.20363155    7.43436845     352
Ni    12.74436539    9.20363155    7.43436845     353
Ni    16.28458378    9.20314371    7.43485629     354
Ni     0.35417651   10.97337457    7.43447819     355
Ni     2.12400000   12.74400000    7.43396091     356
Ni     3.89382349   10.97337457    7.43447819     357
Ni     5.66377838   12.74400000    7.43427189     358
Ni     7.43363155   10.97363461    7.43436845     359
Ni     9.20380155   12.74400000    7.43425477     360
Ni    10.97400000   10.97380155    7.43425477     361
Ni    12.74419845   12.74400000    7.43425477     362
Ni    14.51436845   10.97363461    7.43436845     363
Ni    16.28422162   12.74400000    7.43427189     364
Ni     0.35417651   14.51462543    7.43447819     365
Ni     2.12400000   16.28559769    7.43559769     366
Ni     3.89382349   14.51462543    7.43447819     367
Ni     5.66341622   16.28485629    7.43485629     368
Ni     7.43363155   14.51436539    7.43436845     369
Ni     9.20363461   16.28436845    7.43436845     370
Ni    10.97400000   14.51419845    7.43425477     371
Ni    12.74436539   16.28436845    7.43436845     372
Ni    14.51436845   14.51436539    7.43436845     373
Ni    16.28458378   16.28485629    7.43485629     374
Ni     0.35463120    9.20265059    9.20510865     375
Ni     3.89336880    9.20265059    9.20510865     376
Ni     7.43314371    9.20314371    9.20458378     377
Ni    10.97400000    9.20372811    9.20422162     378
Ni    14.51485629    9.20314371    9.20458378     379
Ni     2.12400000   10.97422908    9.20382138     380
Ni     0.35390272   12.74400000    9.20383556     381
Ni     5.66367962   10.97339988    9.20432038     382
Ni     3.89409728   12.74400000    9.20383556     383
Ni     9.20367779   10.97367779    9.20426769     384
Ni     7.43372811   12.74400000    9.20422162     385
Ni    12.74432221   10.97367779    9.20426769     386
Ni    10.97400000   12.74400000    9.20423234     387
Ni    16.28432038   10.97339988    9.20432038     388
Ni    14.51427189   12.74400000    9.20422162     389
Ni     2.12400000   14.51377092    9.20382138     390
Ni     0.35463120   16.28534941    9.20510865     391
Ni     5.66367962   14.51460012    9.20432038     392
Ni     3.89336880   16.28534941    9.20510865     393
Ni     9.20367779   14.51432221    9.20426769     394
Ni     7.43314371   16.28485629    9.20458378     395
Ni    12.74432221   14.51432221    9.20426769     396
Ni    10.97400000   16.28427189    9.20422162     397
Ni    16.28432038   14.51460012    9.20432038     398
Ni    14.51485629   16.28485629    9.20458378     399
Ni     2.12400000    9.20547951   10.97330100     400
Ni     0.35330100    9.20547951   12.74400000     401
Ni     5.66289135    9.20265059   10.97463120     402
Ni     3.89469900    9.20547951   12.74400000     403
Ni     9.20337457    9.20352181   10.97417651     404
Ni     7.43240231    9.20240231   12.74400000     405
Ni    12.74462543    9.20352181   10.97417651     406
Ni    10.97400000    9.20403909   12.74400000     407
Ni    16.28510865    9.20265059   10.97463120     408
Ni    14.51559769    9.20240231   12.74400000     409
Ni     0.35381619   10.97443497   10.97381619     410
Ni     2.12400000   12.74400000   10.97390000     411
Ni     2.12400000   10.97426643   12.74400000     412
Ni     0.35390000   12.74400000   12.74400000     413
Ni     3.89418381   10.97443497   10.97381619     414
Ni     5.66416444   12.74400000   10.97390272     415
Ni     5.66417862   10.97422908   12.74400000     416
Ni     3.89410000   12.74400000   12.74400000     417
Ni     7.43352181   10.97337457   10.97417651     418
Ni     9.20374177   12.74400000   10.97414547     419
Ni     9.20344425   10.97344425   12.74400000     420
Ni     7.43403909   12.74400000   12.74400000     421
Ni    10.97400000   10.97374177   10.97414547     422
Ni    12.74425823   12.74400000   10.97414547     423
Ni    12.74455575   10.97344425   12.74400000     424
Ni    10.97400000   12.74400000   12.74400000     425
Ni    14.51447819   10.97337457   10.97417651     426
Ni    16.28383556   12.74400000   10.97390272     427
Ni    16.28382138   10.97422908   12.74400000     428
Ni    14.51396091   12.74400000   12.74400000     429
Ni     0.35381619   14.51356503   10.97381619     430
Ni     2.12400000   16.28252049   10.97330100     431
Ni     2.12400000   14.51373357   12.74400000     432
Ni     0.35330100   16.28252049   12.74400000     433
Ni     3.89418381   14.51356503   10.97381619     434
Ni     5.66289135   16.28534941   10.97463120     435
Ni     5.66417862   14.51377092   12.74400000     436
Ni     3.89469900   16.28252049   12.74400000     437
Ni     7.43352181   14.51462543   10.97417651     438
Ni     9.20337457   16.28447819   10.97417651     439
Ni     9.20344425   14.51455575   12.74400000     440
Ni     7.43240231   16.28559769   12.74400000     441
Ni    10.97400000   14.51425823   10.97414547     442
Ni    12.74462543   16.28447819   10.97417651     443
Ni    12.74455575   14.51455575   12.74400000     444
Ni    10.97400000   16.28396091   12.74400000     445
Ni    14.51447819   14.51462543   10.97417651     446
Ni    16.28510865   16.28534941   10.97463120     447
Ni    16.28382138   14.51377092   12.74400000     448
Ni    14.51559769   16.28559769   12.74400000     449
Ni     2.12400000    9.20547951   14.51469900     450
Ni     0.35463120    9.20265059   16.28289135     451
Ni     5.66289135    9.20265059   14.51336880     452
Ni     3.89336880    9.20265059   16.28289135     453
Ni     9.20337457    9.20352181   14.51382349     454
Ni     7.43314371    9.20314371   16.28341622     455
Ni    12.74462543    9.20352181   14.51382349     456
Ni    10.97400000    9.20372811   16.28377838     457
Ni    16.28510865    9.20265059   14.51336880     458
Ni    14.51485629    9.20314371   16.28341622     459
Ni     0.35381619   10.97443497   14.51418381     460
Ni     2.12400000   12.74400000   14.51410000     461
Ni     2.12400000   10.97422908   16.28417862     462
Ni     0.35390272   12.74400000   16.28416444     463
Ni     3.89418381   10.97443497   14.51418381     464
Ni     5.66416444   12.74400000   14.51409728     465
Ni     5.66367962   10.97339988   16.28367962     466
Ni     3.89409728   12.74400000   16.28416444     467
Ni     7.43352181   10.97337457   14.51382349     468
Ni     9.20374177   12.74400000   14.51385453     469
Ni     9.20367779   10.97367779   16.28373231     470
Ni     7.43372811   12.74400000   16.28377838     471
Ni    10.97400000   10.97374177   14.51385453     472
Ni    12.74425823   12.74400000   14.51385453     473
Ni    12.74432221   10.97367779   16.28373231     474
Ni    10.97400000   12.74400000   16.28376766     475
Ni    14.51447819   10.97337457   14.51382349     476
Ni    16.28383556   12.74400000   14.51409728     477
Ni    16.28432038   10.97339988   16.28367962     478
Ni    14.51427189   12.74400000   16.28377838     479
Ni     0.35381619   14.51356503   14.51418381     480
Ni     2.12400000   16.28252049   14.51469900     481
Ni     2.12400000   14.51377092   16.28417862     482
Ni     0.35463120   16.28534941   16.28289135     483
Ni     3.89418381   14.51356503   14.51418381     484
Ni     5.66289135   16.28534941   14.51336880     485
Ni     5.66367962   14.51460012   16.28367962     486
Ni     3.89336880   16.28534941   16.28289135     487
Ni     7.43352181   14.51462543   14.51382349     488
Ni     9.20337457   16.28447819   14.51382349     489
Ni     9.20367779   14.51432221   16.28373231     490
Ni     7.43314371   16.28485629   16.28341622     491
Ni    10.97400000   14.51425823   14.51385453     492
Ni    12.74462543   16.28447819   14.51382349     493
Ni    12.74432221   14.51432221   16.28373231     494
Ni    10.97400000   16.28427189   16.28377838     495
Ni    14.51447819   14.51462543   14.51382349     496
Ni    16.28510865   16.28534941   14.51336880     497
Ni    16.28432038   14.51460012   16.28367962     498
Ni    14.51485629   16.28485629   16.28341622     499
         499
Lattice="  17.7000   0.0000   0.0000   0.0000  17.7000   0.0000   0.0000   0.0000  17.7000 " Time=5.159E+02  Step=0.5  Energy=-2216.998  Barrier=1.021
Ni     0.35249777    0.35261847    0.35667603       1
Ni     2.12029968    2.11250941    0.37767518       2
Ni     2.12276404    0.34592525    2.13209538       3
Ni     0.34891372    2.11891538    2.13327826       4
Ni     3.89709548    0.34153092    0.37023465       5
Ni     5.67693398    2.11453746    0.37321802       6
Ni     5.67161297    0.34647498    2.13060289       7
Ni     3.89844985    2.11822876    2.13203884       8
Ni     7.44132286    0.35032928    0.35658228       9
Ni     9.20943513    2.12298178    0.35433596      10
Ni     9.21146551    0.35097844    2.12340248      11
Ni     7.44513214    2.12005358    2.13056699      12
Ni    10.97711571    0.35414344    0.34913851      13
Ni    12.74556069    2.12480971    0.34893168      14
Ni    12.74543931    0.35290114    2.12061000      15
Ni    10.97896159    2.12296801    2.12164756      16
Ni    14.51531153    0.35478809    0.34907292      17
Ni    16.28268814    2.12257500    0.35660743      18
Ni    16.28083053    0.35092233    2.12377946      19
Ni    14.51105394    2.12215218    2.12279499      20
Ni     0.34260960    3.89032635    0.37765117      21
Ni     2.11907667    5.67241928    0.37466851      22
Ni     2.12377199    3.89375307    2.13064848      23
Ni     0.34830345    5.66846731    2.13205014      24
Ni     3.90233855    3.88903394    0.37465802      25
Ni     5.67884234    5.67113701    0.37773022      26
Ni     5.67319335    3.89302176    2.13206566      27
Ni     3.89767101    5.66769011    2.13068944      28
Ni     7.44983762    3.89443107    0.37014713      29
Ni     9.20672053    5.66778189    0.35307795      30
Ni     9.21455387    3.89498103    2.12742733      31
Ni     7.44555029    5.66871514    2.13204618      32
Ni    10.97503805    3.89576905    0.35004369      33
Ni    12.74659888    5.66588527    0.35001850      34
Ni    12.74366783    3.89433078    2.12070970      35
Ni    10.97799346    5.66728455    2.12074388      36
Ni    14.51484468    3.89380953    0.35301478      37
Ni    16.27168839    5.66712754    0.37014915      38
Ni    16.27599601    3.89280636    2.13205507      39
Ni    14.50705756    5.66662814    2.12743892      40
Ni     0.34461606    7.44702311    0.37324834      41
Ni     2.12305600    7.44325746    2.13212579      42
Ni     3.90110970    7.44898950    0.37777166      43
Ni     5.67254718    7.44255493    2.13331800      44
Ni     7.43874922    7.43892369    0.35667880      45
Ni     9.21050805    7.43940116    2.12281990      46
Ni    10.97603392    7.43680210    0.34896957      47
Ni    12.74270430    7.43866081    2.12164195      48
Ni    14.51219641    7.43865580    0.35432988      49
Ni    16.27650343    7.44153849    2.13061602      50