         179
Lattice="  10.6200   0.0000   0.0000   0.0000  10.6200   0.0000   0.0000   0.0000  17.7000 " Time=0.000E+00  Step=0  Energy=-794.580  Barrier=0.000
Ni     0.35400000    0.35400000    0.35400000       1
Ni     2.12451263    2.12321335    0.35400000       2
Ni     2.12417834    0.35400000    2.12556821       3
Ni     0.35400000    2.12300734    2.12444556       4
Ni     3.89431264    0.35400000    0.35400000       5
Ni     3.89426753    2.12373247    2.12542339       6
Ni     0.35400000    3.89326931    0.35400000       7
Ni     2.12473069    5.66400000    0.35400000       8
Ni     2.12465514    3.89334486    2.12371466       9
Ni     0.35400000    5.66400000    2.12330207      10
Ni     3.89478665    3.89348737    0.35400000      11
Ni     3.89499266    5.66400000    2.12444556      12
Ni     0.35400000    7.43473069    0.35400000      13
Ni     2.12451263    9.20478665    0.35400000      14
Ni     2.12465514    7.43465514    2.12371466      15
Ni     0.35400000    9.20499266    2.12444556      16
Ni     3.89478665    7.43451263    0.35400000      17
Ni     3.89426753    9.20426753    2.12542339      18
Ni     0.35400000    0.35400000    3.89740522      19
Ni     2.12368760    2.12437842    3.89611467      20
Ni     2.12327746    0.35400000    5.66646578      21
Ni     0.35400000    2.12823295    5.66792332      22
Ni     3.89382578    0.35400000    3.89657614      23
Ni     3.89294248    2.12505752    5.66668544      24
Ni     0.35400000    3.89314648    3.89222451      25
Ni     2.12485352    5.66400000    3.89222451      26
Ni     2.12171742    3.89628258    5.66655802      27
Ni     0.35400000    5.66400000    5.65451539      28
Ni     3.89362158    3.89431240    3.89611467      29
Ni     3.88976705    5.66400000    5.66792332      30
Ni     0.35400000    7.43485352    3.89222451      31
Ni     2.12368760    9.20362158    3.89611467      32
Ni     2.12171742    7.43171742    5.66655802      33
Ni     0.35400000    9.19976705    5.66792332      34
Ni     3.89362158    7.43368760    3.89611467      35
Ni     3.89294248    9.20294248    5.66668544      36
Ni     0.35400000    0.35400000    7.43252849      37
Ni     2.12195518    2.12694453    7.43616611      38
Ni     3.89301584    0.35400000    7.43572582      39
Ni     0.35400000    3.90369324    7.44360373      40
Ni     2.11430676    5.66400000    7.44360373      41
Ni     3.89105547    3.89604482    7.43616611      42
Ni     0.35400000    7.42430676    7.44360373      43
Ni     2.12195518    9.20105547    7.43616611      44
Ni     3.89105547    7.43195518    7.43616611      45
Ni     2.12541292    0.35400000    9.20400000      46
Ni     0.35400000    2.11500468    9.20400000      47
Ni     3.89037788    2.12762212    9.20400000      48
Ni     2.11446154    3.90353846    9.20400000      49
Ni     3.90299532    5.66400000    9.20400000      50
Ni     2.11446154    7.42446154    9.20400000      51
Ni     0.35400000    9.21299532    9.20400000      52
Ni     3.89037788    9.20037788    9.20400000      53
Ni     0.35400000    0.35400000   10.97547151      54
Ni     2.12195518    2.12694453   10.97183389      55
Ni     2.12327746    0.35400000   12.74153422      56
Ni     0.35400000    2.12823295   12.74007668      57
Ni     3.89301584    0.35400000   10.97227418      58
Ni     3.89294248    2.12505752   12.74131456      59
Ni     0.35400000    3.90369324   10.96439627      60
Ni     2.11430676    5.66400000   10.96439627      61
Ni     2.12171742    3.89628258   12.74144198      62
Ni     0.35400000    5.66400000   12.75348461      63
Ni     3.89105547    3.89604482   10.97183389      64
Ni     3.88976705    5.66400000   12.74007668      65
Ni     0.35400000    7.42430676   10.96439627      66
Ni     2.12195518    9.20105547   10.97183389      67
Ni     2.12171742    7.43171742   12.74144198      68
Ni     0.35400000    9.19976705   12.74007668      69
Ni     3.89105547    7.43195518   10.97183389      70
Ni     3.89294248    9.20294248   12.74131456      71
Ni     0.35400000    0.35400000   14.51059478      72
Ni     2.12368760    2.12437842   14.51188533      73
Ni     2.12417834    0.35400000   16.28243179      74
Ni     0.35400000    2.12300734   16.28355444      75
Ni     3.89382578    0.35400000   14.51142386      76
Ni     3.89426753    2.12373247   16.28257661      77
Ni     0.35400000    3.89314648   14.51577549      78
Ni     2.12485352    5.66400000   14.51577549      79
Ni     2.12465514    3.89334486   16.28428534      80
Ni     0.35400000    5.66400000   16.28469793      81
Ni     3.89362158    3.89431240   14.51188533      82
Ni     3.89499266    5.66400000   16.28355444      83
Ni     0.35400000    7.43485352   14.51577549      84
Ni     2.12368760    9.20362158   14.51188533      85
Ni     2.12465514    7.43465514   16.28428534      86
Ni     0.35400000    9.20499266   16.28355444      87
Ni     3.89362158    7.43368760   14.51188533      88
Ni     3.89426753    9.20426753   16.28257661      89
Ni     5.66400000    2.12368736    0.35400000      90
Ni     5.66400000    0.35400000    2.12557839      91
Ni     7.43368736    0.35400000    0.35400000      92
Ni     9.20348737    2.12321335    0.35400000      93
Ni     9.20382166    0.35400000    2.12556821      94
Ni     7.43373247    2.12373247    2.12542339      95
Ni     5.66400000    5.66400000    0.35400000      96
Ni     5.66400000    3.89382166    2.12556821      97
Ni     7.43321335    3.89348737    0.35400000      98
Ni     9.20326931    5.66400000    0.35400000      99
Ni     9.20334486    3.89334486    2.12371466     100
Ni     7.43300734    5.66400000    2.12444556     101
Ni     5.66400000    9.20431264    0.35400000     102
Ni     5.66400000    7.43417834    2.12556821     103
Ni     7.43321335    7.43451263    0.35400000     104
Ni     9.20348737    9.20478665    0.35400000     105
Ni     9.20334486    7.43465514    2.12371466     106
Ni     7.43373247    9.20426753    2.12542339     107
Ni     5.66400000    2.12417422    3.89657614     108
Ni     5.66400000    0.35400000    5.66660909     109
Ni     7.43417422    0.35400000    3.89657614     110
Ni     9.20431240    2.12437842    3.89611467     111
Ni     9.20472254    0.35400000    5.66646578     112
Ni     7.43505752    2.12505752    5.66668544     113
Ni     5.66400000    5.66400000    3.89740522     114
Ni     5.66400000    3.89472254    5.66646578     115
Ni     7.43437842    3.89431240    3.89611467     116
Ni     9.20314648    5.66400000    3.89222451     117
Ni     9.20628258    3.89628258    5.66655802     118
Ni     7.43823295    5.66400000    5.66792332     119
Ni     5.66400000    9.20382578    3.89657614     120
Ni     5.66400000    7.43327746    5.66646578     121
Ni     7.43437842    7.43368760    3.89611467     122
Ni     9.20431240    9.20362158    3.89611467     123
Ni     9.20628258    7.43171742    5.66655802     124
Ni     7.43505752    9.20294248    5.66668544     125
Ni     5.66400000    2.12498416    7.43572582     126
Ni     7.43498416    0.35400000    7.43572582     127
Ni     9.20604482    2.12694453    7.43616611     128
Ni     5.66400000    5.66400000    7.43252849     129
Ni     7.43694453    3.89604482    7.43616611     130
Ni     9.21369324    5.66400000    7.44360373     131
Ni     5.66400000    9.20301584    7.43572582     132
Ni     7.43694453    7.43195518    7.43616611     133
Ni     9.20604482    9.20105547    7.43616611     134
Ni     5.66400000    0.35400000    9.20400000     135
Ni     9.20258708    0.35400000    9.20400000     136
Ni     7.43762212    2.12762212    9.20400000     137
Ni     5.66400000    3.89258708    9.20400000     138
Ni     9.21353846    3.90353846    9.20400000     139
Ni     7.42500468    5.66400000    9.20400000     140
Ni     5.66400000    7.43541292    9.20400000     141
Ni     9.21353846    7.42446154    9.20400000     142
Ni     7.43762212    9.20037788    9.20400000     143
Ni     5.66400000    2.12498416   10.97227418     144
Ni     5.66400000    0.35400000   12.74139091     145
Ni     7.43498416    0.35400000   10.97227418     146
Ni     9.20604482    2.12694453   10.97183389     147
Ni     9.20472254    0.35400000   12.74153422     148
Ni     7.43505752    2.12505752   12.74131456     149
Ni     5.66400000    5.66400000   10.97547151     150
Ni     5.66400000    3.89472254   12.74153422     151
Ni     7.43694453    3.89604482   10.97183389     152
Ni     9.21369324    5.66400000   10.96439627     153
Ni     9.20628258    3.89628258   12.74144198     154
Ni     7.43823295    5.66400000   12.74007668     155
Ni     5.66400000    9.20301584   10.97227418     156
Ni     5.66400000    7.43327746   12.74153422     157
Ni     7.43694453    7.43195518   10.97183389     158
Ni     9.20604482    9.20105547   10.97183389     159
Ni     9.20628258    7.43171742   12.74144198     160
Ni     7.43505752    9.20294248   12.74131456     161
Ni     5.66400000    2.12417422   14.51142386     162
Ni     5.66400000    0.35400000   16.28242161     163
Ni     7.43417422    0.35400000   14.51142386     164
Ni     9.20431240    2.12437842   14.51188533     165
Ni     9.20382166    0.35400000   16.28243179     166
Ni     7.43373247    2.12373247   16.28257661     167
Ni     5.66400000    5.66400000   14.51059478     168
Ni     5.66400000    3.89382166   16.28243179     169
Ni     7.43437842    3.89431240   14.51188533     170
Ni     9.20314648    5.66400000   14.51577549     171
Ni     9.20334486    3.89334486   16.28428534     172
Ni     7.43300734    5.66400000   16.28355444     173
Ni     5.66400000    9.20382578   14.51142386     174
Ni     5.66400000    7.43417834   16.28243179     175
Ni     7.43437842    7.43368760   14.51188533     176
Ni     9.20431240    9.20362158   14.51188533     177
Ni     9.20334486    7.43465514   16.28428534     178
Ni     7.43373247    9.20426753   16.28257661     179
         179
Lattice="  10.6200   0.0000   0.0000   0.0000  10.6200   0.0000   0.0000   0.0000  17.7000 " Time=7.556E+02  Step=0.5  Energy=-793.547  Barrier=1.032
Ni     0.35147828    0.34936783    0.35400617       1
Ni     2.12127129    2.11693106    0.35395937       2
Ni     2.12388816    0.34520417    2.12081620       3
Ni     0.35198408    2.11478615    2.12156598       4
Ni     3.89111280    0.34700741    0.35396837       5
Ni     3.89289512    2.11430184    2.12065267       6
Ni     0.35000038    3.88838199    0.35399851       7
Ni     2.11828441    5.65867726    0.35399517       8
Ni     2.12339135    3.88643730    2.12154707       9
Ni     0.35044736    5.65999153    2.12397790      10
Ni     3.88876430    3.88693522    0.35396825      11
Ni     3.89049336    5.66108519    2.11523156      12
Ni     0.34923876    7.42772966    0.35399964      13
Ni     2.12258069    9.19947861    0.35399663      14
Ni     2.12329015    7.43285133    2.11851269      15
Ni     0.35161369    9.20011179    2.11534683      16
Ni     3.89018026    7.43203832    0.35400288      17
Ni     3.89078902    9.20040828    2.12449463      18
Ni     0.35213695    0.33604443    3.88353694      19
Ni     2.13034776    2.10771362    3.88377524      20
Ni     2.12348432    0.34318145    5.67020905      21
Ni     0.35305354    2.08764401    5.62287768      22
Ni     3.89281474    0.34531028    3.89899466      23
Ni     3.89473002    2.11443089    5.67003074      24
Ni     0.35603698    3.88222948    3.88195671      25
Ni     2.13348938    5.66493540    3.87841983      26
Ni     2.15051327    3.88497991    5.62289153      27
Ni     0.36154394    5.67175371    5.60681746      28
Ni     3.90202582    3.88598284    3.88327901      29
Ni     3.89044023    5.66146477    5.67016367      30
Ni     0.35510356    7.44334695    3.87850275      31
Ni     2.12417771    9.19987735    3.89542964      32
Ni     2.12023886    7.43042981    5.66638155      33
Ni     0.35125335    9.20051500    5.67045370      34
Ni     3.88997459    7.43406496    3.89532319      35
Ni     3.88843298    9.19864809    5.67844027      36
Ni     0.34269396    0.36363765    7.44063235      37
Ni     2.11608765    2.12191063    7.43287497      38
Ni     3.88685519    0.35107029    7.44873586      39
Ni     0.38289049    3.85517297    7.27414002      40
Ni     2.08571718    5.64743298    7.43392519      41
Ni     3.87439542    3.89511795    7.44056466      42
Ni     0.33675484    7.39583805    7.43414393      43
Ni     2.10753575    9.19222825    7.44548338      44
Ni     3.88184627    7.41802586    7.44528164      45
Ni     2.09897818    0.36404887    9.20400581      46
Ni     0.31211622    2.19324473    9.20402638      47
Ni     3.87388577    2.13894228    9.20403581      48
Ni     2.04464108    3.92577410    9.20400576      49
Ni     3.88311824    5.65116978    9.20399886      50
Ni     2.08694490    7.39734711    9.20399212      51
Ni     0.34046729    9.19341010    9.20400372      52
Ni     3.87896058    9.18948872    9.20400738      53
Ni     0.34273541    0.36360392   10.96734350      54
Ni     2.11613464    2.12187480   10.97524173      55
Ni     2.12353725    0.34311008   12.73780041      56
Ni     0.35319095    2.08760711   12.78513200      57
Ni     3.88691850    0.35107590   10.95930309      58
Ni     3.89483596    2.11440198   12.73804019      59
Ni     0.38296336    3.85518938   11.13386643      60
Ni     2.08585780    5.64741054   10.97408729      61
Ni     2.15058544    3.88496619   12.78515125      62
Ni     0.36161046    5.67174306   12.80118189      63
Ni     3.87449047    3.89507362   10.96749762      64
Ni     3.89055698    5.66141070   12.73784042      65
Ni     0.33686028    7.39581339   10.97390135      66
Ni     2.10759936    9.19222319   10.96251948      67
Ni     2.12035148    7.43040097   12.74163243      68
Ni     0.35131805    9.20049564   12.73757004      69
Ni     3.88190900    7.41801980   10.96270221      70
Ni     3.88851134    9.19864951   12.72952444      71
Ni     0.35218314    0.33600318   14.52445733      72
Ni     2.13041622    2.10767969   14.52423091      73
Ni     2.12391245    0.34518657   16.28713367      74
Ni     0.35201012    2.11476234   16.28642191      75
Ni     3.89289833    0.34525484   14.50899136      76
Ni     3.89292627    2.11430311   16.28726389      77
Ni     0.35609678    3.88221958   14.52606500      78
Ni     2.13354261    5.66491952   14.52957419      79
Ni     2.12343586    3.88644202   16.28641609      80
Ni     0.35050631    5.65997491   16.28404870      81
Ni     3.90211705    3.88598896   14.52471546      82
Ni     3.89056399    5.66108467   16.29275917      83
Ni     0.35516085    7.44331798   14.52952672      84
Ni     2.12424373    9.19984497   14.51256436      85
Ni     2.12339669    7.43283614   16.28946623      86
Ni     0.35166974    9.20010524   16.29267175      87
Ni     3.89006348    7.43403496   14.51265096      88
Ni     3.89083944    9.20038950   16.28350447      89
Ni     5.65876226    2.11570540    0.35398377      90
Ni     5.65782353    0.34739512    2.12436509      91
Ni     7.42644778    0.34819581    0.35400650      92
Ni     9.19989316    2.11991933    0.35399634      93
Ni     9.19737256    0.34766595    2.11530779      94
Ni     7.42554034    2.11495457    2.11838831      95
Ni     5.66000021    5.66081123    0.35401819      96
Ni     5.65809194    3.88668636    2.11518763      97
Ni     7.43064107    3.88906805    0.35400564      98
Ni     9.19901924    5.65940209    0.35402138      99
Ni     9.19845642    3.88786733    2.12382403     100
Ni     7.42529747    5.66137763    2.12149358     101
Ni     5.65766418    9.20071283    0.35401068     102
Ni     5.65568814    7.43352739    2.12071192     103
Ni     7.42762434    7.43080919    0.35406570     104
Ni     9.19760671    9.19829875    0.35404121     105
Ni     9.19696171    7.43301707    2.12165457     106
Ni     7.42491647    9.20258916    2.12076486     107
Ni     5.65825958    2.11393611    3.89516117     108
Ni     5.65938246    0.34965785    5.67829729     109
Ni     7.42417450    0.34811993    3.89516891     110
Ni     9.19331805    2.10465945    3.87819172     111
Ni     9.19648884    0.34766427    5.67025578     112
Ni     7.42757541    2.11777545    5.66614897     113
Ni     5.64609957    5.66198801    3.88319736     114
Ni     5.65738945    3.88668527    5.67002684     115
Ni     7.41479576    3.88310562    3.87814457     116
Ni     9.19234338    5.66583617    3.88190965     117
Ni     9.18616653    3.87643480    5.60655603     118
Ni     7.39718471    5.66327437    5.62263120     119
Ni     5.65540404    9.20273414    3.89891746     120
Ni     5.65294901    7.43380764    5.66998041     121
Ni     7.41786164    7.44028921    3.88359681     122
Ni     9.19631704    9.21193708    3.88347501     123
Ni     9.19464620    7.46064020    5.62288383     124
Ni     7.42421092    9.20508174    5.66999839     125
Ni     5.66562383    2.13040170    7.44524358     126
Ni     7.43987144    0.35625410    7.44527279     127
Ni     9.21055305    2.15261617    7.43384198     128
Ni     5.67313274    5.65324543    7.44048437     129
Ni     7.46180817    3.90097465    7.43373632     130
Ni     9.16432300    5.69324410    7.27403634     131
Ni     5.66054046    9.19745834    7.44877386     132
Ni     7.43090969    7.42659656    7.43238182     133
Ni     9.20459504    9.18485761    7.44059948     134
Ni     5.66851299    0.35922032    9.20401867     135
Ni     9.20650048    0.35512900    9.20397595     136
Ni     7.46064335    2.15138584    9.20399021     137
Ni     5.66434193    3.89721330    9.20400456     138
Ni    10.08354578    4.77436157    9.20399110     139
Ni     7.50225892    5.62246868    9.20398826     140
Ni     5.67341771    7.40959927    9.20399252     141
Ni     9.23425439    7.35547170    9.20382245     142
Ni     7.44803247    9.18478701    9.20400744     143
Ni     5.66567056    2.13038044   10.96274322     144
Ni     5.65950375    0.34961359   12.72974565     145
Ni     7.43993617    0.35622185   10.96272002     146
Ni     9.21064429    2.15256091   10.97417165     147
Ni     9.19656347    0.34762415   12.73772881     148
Ni     7.42765505    2.11775888   12.74179898     149
Ni     5.67321009    5.65325443   10.96753148     150
Ni     5.65752034    3.88668754   12.73799174     151
Ni     7.46189113    3.90095425   10.97425105     152
Ni     9.16437406    5.69328010   11.13390085     153
Ni     9.18625258    3.87642965   12.80143377     154
Ni     7.39728811    5.66328855   12.78538609     155
Ni     5.66064089    9.19743324   10.95926588     156
Ni     5.65307037    7.43380105   12.73804440     157
Ni     7.43113788    7.42657846   10.97535832     158
Ni     9.20463772    9.18473858   10.96725769     159
Ni     9.19471472    7.46062416   12.78508135     160
Ni     7.42434507    9.20502367   12.73800123     161
Ni     5.65838686    2.11391251   14.51283321     162
Ni     5.65788082    0.34737795   16.28362703     163
Ni     7.42431254    0.34809736   14.51284433     164
Ni     9.19346718    2.10462287   14.52974236     165
Ni     9.19742548    0.34763120   16.29269433     166
Ni     7.42560679    2.11493541   16.28960841     167
Ni     5.64620353    5.66198118   14.52483007     168
Ni     5.65816402    3.88667953   16.29279510     169
Ni     7.41492015    3.88306926   14.52986333     170
Ni     9.19243405    5.66585996   14.52614291     171
Ni     9.19850449    3.88784336   16.28417245     172
Ni     7.42534189    5.66137557   16.28654337     173
Ni     5.65550032    9.20268826   14.50910531     174
Ni     5.65578571    7.43351000   16.28729252     175
Ni     7.41803535    7.44027309   14.52443485     176
Ni     9.19641200    9.21185404   14.52456634     177
Ni     9.19701296    7.43300661   16.28648463     178
Ni     7.42496933    9.20255634   16.28727708     179
         179
Lattice="  10.6200   0.0000   0.0000   0.0000  10.6200   0.0000   0.0000   0.0000  17.7000 " Time=7.556E+02  Step=1  Energy=-794.580  Barrier=0.000
Ni     0.34489360    0.34360467    0.35400166       1
Ni     2.11480421    2.11396677    0.35400148       2
Ni     2.11467805    0.34381918    2.12536045       3
Ni     0.34498711    2.11340184    2.12395790       4
Ni     3.88446522    0.34415473    0.35399660       5
Ni     3.88414295    2.11394705    2.12557327       6
Ni     0.34478086    3.88441041    0.35400209       7
Ni     2.11467716    5.65453247    0.35400212       8
Ni     2.11513057    3.88421451    2.12468556       9
Ni     0.34498470    5.65498594    2.12419617      10
Ni     3.88394788    3.88430135    0.35401411      11
Ni     3.88397556    5.65452819    2.12524370      12
Ni     0.34454059    7.42466305    0.35400653      13
Ni     2.11461593    9.19430795    0.35399673      14
Ni     2.11453876    7.42453630    2.12505385      15
Ni     0.34452346    9.19396289    2.12524730      16
Ni     3.88434034    7.42459172    0.35398469      17
Ni     3.88433732    9.19433988    2.12534163      18
Ni     0.34366842    0.34404624    3.89603924      19
Ni     2.11398410    2.11408601    3.89624520      20
Ni     2.11293500    0.34499941    5.66637899      21
Ni     0.34189143    2.11628457    5.66666689      22
Ni     3.88431420    0.34413085    3.89655674      23
Ni     3.88448341    2.11496426    5.66627187      24
Ni     0.34522129    3.88389518    3.89228157      25
Ni     2.11391933    5.65403048    3.89638289      26
Ni     2.10987382    3.88399774    5.66790004      27
Ni     0.34147308    5.65148069    5.66650415      28
Ni     3.88411759    3.88414795    3.89730967      29
Ni     3.88407785    5.65332786    5.66672863      30
Ni     0.34401185    7.42392028    3.89637975      31
Ni     2.11393992    9.19399010    3.89639544      32
Ni     2.11299300    7.42300564    5.66691666      33
Ni     0.34330913    9.19407256    5.66672137      34
Ni     3.88396447    7.42396992    3.89639792      35
Ni     3.88382719    9.19383964    5.66654599      36
Ni     0.34234951    0.34684338    7.43632621      37
Ni     2.11127079    2.11618671    7.43588265      38
Ni     3.88381531    0.34505748    7.43531300      39
Ni     0.33425415    3.88394878    7.44395115      40
Ni     2.11107496    5.65185457    7.43593288      41
Ni     3.88418095    3.88390450    7.43270049      42
Ni     0.34184417    7.42106896    7.43592586      43
Ni     2.11320942    9.19398025    7.43592706      44
Ni     3.88399916    7.42320154    7.43594111      45
Ni     2.11064226    0.34758784    9.20399320      46
Ni     0.33488675    2.12327599    9.20402046      47
Ni     3.88397482    2.11243720    9.20399292      48
Ni     2.12311448    3.88401687    9.20400840      49
Ni     3.88382168    5.65533707    9.20400493      50
Ni     2.11064608    7.42064726    9.20400078      51
Ni     0.34533072    9.19384171    9.20399122      52
Ni     3.88426694    9.19423541    9.20400415      53
Ni     0.34236136    0.34684954   10.97168066      54
Ni     2.11126742    2.11617216   10.97212441      55
Ni     2.11293849    0.34499530   12.74162679      56
Ni     0.34190790    2.11627623   12.74134568      57
Ni     3.88380663    0.34505786   10.97267923      58
Ni     3.88449079    2.11494188   12.74171049      59
Ni     0.33426758    3.88395549   10.96405396      60
Ni     2.11106658    5.65185066   10.97208635      61
Ni     2.10987861    3.88398232   12.74009280      62
Ni     0.34146639    5.65148704   12.74150859      63
Ni     3.88418347    3.88387845   10.97529530      64
Ni     3.88408203    5.65330923   12.74125829      65
Ni     0.34185543    7.42107281   10.97206007      66
Ni     2.11320914    9.19399408   10.97206452      67
Ni     2.11300769    7.42299008   12.74108193      68
Ni     0.34332714    9.19406830   12.74125856      69
Ni     3.88398694    7.42319120   10.97206503      70
Ni     3.88382133    9.19384591   12.74146393      71
Ni     0.34367751    0.34403805   14.51195735      72
Ni     2.11399390    2.11407780   14.51175285      73
Ni     2.11469495    0.34380270   16.28263993      74
Ni     0.34500346    2.11338649   16.28403528      75
Ni     3.88432711    0.34410337   14.51144861      76
Ni     3.88413024    2.11394167   16.28243146      77
Ni     0.34521560    3.88390691   14.51571806      78
Ni     2.11393122    5.65401076   14.51160442      79
Ni     2.11513148    3.88420312   16.28330622      80
Ni     0.34498921    5.65499144   16.28380851      81
Ni     3.88410979    3.88412047   14.51067669      82
Ni     3.88396315    5.65452172   16.28274856      83
Ni     0.34402024    7.42392299   14.51162869      84
Ni     2.11396447    9.19397533   14.51160743      85
Ni     2.11453917    7.42452812   16.28294506      86
Ni     0.34452958    9.19397559   16.28275569      87
Ni     3.88397679    7.42394818   14.51161039      88
Ni     3.88435887    9.19431630   16.28265479      89
Ni     5.65354655    2.11404272    0.35400654      90
Ni     5.65418532    0.34418030    2.12538302      91
Ni     7.42404948    0.34352375    0.35400187      92
Ni     9.19448667    2.11387353    0.35400264      93
Ni     9.19430778    0.34310179    2.12425473      94
Ni     7.42371515    2.11371518    2.12380366      95
Ni     5.65361669    5.65489216    0.35400605      96
Ni     5.65312130    3.88431981    2.12425211      97
Ni     7.42389183    3.88447270    0.35399685      98
Ni     9.19442558    5.65476848    0.35399628      99
Ni     9.19425038    3.88425715    2.12392418     100
Ni     7.42340108    5.65498743    2.12395794     101
Ni     5.65417543    9.19442757    0.35398518     102
Ni     5.65380887    7.42468404    2.12536666     103
Ni     7.42396734    7.42479023    0.35400653     104
Ni     9.19429434    9.19395881    0.35401380     105
Ni     9.19420354    7.42511303    2.12468224     106
Ni     7.42394159    9.19412502    2.12556922     107
Ni     5.65457745    2.11454105    3.89610513     108
Ni     5.65495519    0.34496881    5.66667739     109
Ni     7.42452624    0.34457912    3.89610466     110
Ni     9.19418710    2.11294889    3.89256217     111
Ni     9.19415853    0.34831720    5.66840551     112
Ni     7.42612225    2.11612787    5.66676048     113
Ni     5.65403775    5.65369329    3.89604105     114
Ni     5.65832066    3.88417742    5.66840662     115
Ni     7.42295034    3.88419690    3.89256821     116
Ni     9.19388315    5.65521790    3.89228467     117
Ni     9.19401407    3.88402334    5.65444545     118
Ni     7.42627204    5.65190253    5.66666661     119
Ni     5.65410266    9.19434144    3.89655650     120
Ni     5.65498296    7.42295658    5.66637609     121
Ni     7.42406258    7.42399374    3.89624398     122
Ni     9.19412542    9.19409973    3.89730870     123
Ni     9.19397485    7.41986688    5.66789750     124
Ni     7.42494715    9.19448639    5.66627322     125
Ni     5.65693469    2.11576376    7.43645628     126
Ni     7.42575073    0.34693265    7.43646401     127
Ni     9.19405925    2.12365625    7.44369010     128
Ni     5.65684224    5.65236132    7.43632486     129
Ni     7.43365562    3.88405877    7.44368483     130
Ni     9.19394854    5.64425804    7.44394592     131
Ni     5.65506253    9.19379907    7.43532741     132
Ni     7.42617333    7.42127575    7.43587977     133
Ni     9.19387733    9.19419635    7.43269835     134
Ni     5.65713254    0.34713770    9.20399990     135
Ni     9.19402692    0.33508055    9.20400980     136
Ni     7.43352114    2.12352759    9.20400513     137
Ni     5.64507895    3.88402820    9.20398898     138
Ni    10.95484050    5.64485032    9.20400310     139
Ni     7.43328564    5.64488535    9.20398992     140
Ni     5.65760206    7.42062402    9.20400675     141
Ni     9.19402482    7.43312066    9.20398888     142
Ni     7.42242975    9.19399184    9.20400317     143
Ni     5.65693695    2.11575386   10.97152985     144
Ni     5.65497444    0.34495453   12.74132267     145
Ni     7.42575618    0.34694064   10.97155532     146
Ni     9.19404625    2.12364849   10.96431711     147
Ni     9.19416994    0.34831539   12.73958811     148
Ni     7.42611486    2.11613997   12.74125220     149
Ni     5.65684490    5.65235716   10.97167352     150
Ni     5.65832423    3.88416741   12.73958108     151
Ni     7.43365397    3.88407292   10.96430973     152
Ni     9.19393761    5.64426423   10.96405133     153
Ni     9.19397990    3.88405885   12.75358633     154
Ni     7.42628500    5.65188956   12.74134538     155
Ni     5.65507482    9.19380795   10.97267633     156
Ni     5.65498711    7.42295294   12.74161864     157
Ni     7.42617934    7.42127398   10.97211660     158
Ni     9.19390198    9.19419401   10.97529514     159
Ni     9.19398701    7.41986554   12.74008855     160
Ni     7.42496589    9.19448093   12.74171060     161
Ni     5.65457570    2.11453069   14.51190538     162
Ni     5.65419110    0.34417814   16.28261515     163
Ni     7.42454705    0.34457175   14.51188077     164
Ni     9.19417946    2.11295952   14.51543709     165
Ni     9.19432059    0.34310277   16.28373551     166
Ni     7.42371131    2.11370918   16.28419952     167
Ni     5.65403273    5.65367395   14.51195929     168
Ni     5.65310129    3.88430580   16.28375959     169
Ni     7.42295657    3.88420861   14.51543143     170
Ni     9.19387272    5.65521396   14.51571441     171
Ni     9.19426519    3.88424303   16.28407642     172
Ni     7.42340602    5.65498345   16.28405612     173
Ni     5.65412527    9.19433037   14.51144881     174
Ni     5.65383059    7.42466508   16.28262974     175
Ni     7.42408052    7.42400049   14.51175429     176
Ni     9.19415213    9.19410933   14.51067565     177
Ni     9.19421467    7.42513918   16.28332892     178
Ni     7.42394765    9.19414205   16.28242088     179
