ITEM: TIMESTEP
0
ITEM: NUMBER OF ATOMS
74
ITEM: BOX BOUNDS xy xz yz pp pp pp
                     0.00000000000000e+00 1.06200000000000e+01 0.00000000000000e+00
0.00000000000000e+00	1.06200000000000e+01	0.00000000000000e+00
0.00000000000000e+00	1.06200000000000e+01	0.00000000000000e+00
ITEM: ATOMS id type x y z DisplacementX DisplacementY DisplacementZ
1 1 1.748e+00 -5.277e+00 3.135e-04 3.593e-03 1.679e-02 5.341e-03
2 1 5.276e+00 -1.746e+00 -5.497e-04 -8.585e-03 -1.850e-02 -9.976e-03
3 1 3.495e+00 -3.495e+00 -1.633e-04 3.669e-02 8.659e-03 -2.093e-03
4 1 -5.292e+00 1.774e+00 -4.237e-04 1.777e-03 8.853e-03 -1.729e-04
5 1 -1.773e+00 5.294e+00 -2.800e-04 4.372e-03 -6.051e-03 4.713e-03
6 1 -5.293e+00 1.247e-02 1.761e+00 -8.348e-03 -9.241e-03 -7.473e-03
7 1 -5.293e+00 1.277e-02 -1.759e+00 1.878e-03 -2.494e-03 -1.151e-03
8 1 -1.316e-02 5.293e+00 1.761e+00 -8.587e-04 -1.709e-02 -4.192e-03
9 1 -1.186e-02 5.294e+00 -1.761e+00 6.083e-03 -1.623e-02 8.045e-03
10 1 1.748e+00 5.294e+00 -3.573e-04 -5.736e-03 5.839e-03 -2.603e-03
11 1 -5.291e+00 -1.749e+00 1.631e-03 -2.764e-03 2.548e-03 3.412e-03
12 1 -1.767e+00 -5.261e+00 1.436e-03 -2.881e-04 2.113e-03 -1.043e-03
13 1 5.261e+00 1.768e+00 -9.765e-04 8.960e-04 1.528e-03 2.290e-04
14 1 -8.160e-03 -5.263e+00 1.756e+00 -3.298e-04 -1.051e-02 -5.303e-03
15 1 -9.918e-03 -5.267e+00 -1.757e+00 -1.240e-02 -9.203e-03 -1.653e-03
16 1 5.263e+00 1.117e-02 -1.756e+00 1.240e-02 -1.260e-02 4.576e-03
17 1 5.263e+00 9.564e-03 1.757e+00 -1.004e-02 1.529e-02 -1.483e-02
18 1 -3.529e+00 3.529e+00 4.722e-04 -1.784e-03 7.792e-03 -2.461e-03
19 1 -3.534e+00 -3.508e+00 -6.042e-04 2.233e-03 3.085e-03 -1.103e-03
20 1 3.507e+00 3.534e+00 -8.910e-04 -1.991e-03 -2.456e-02 -9.051e-03
21 1 -3.529e+00 1.332e-02 3.519e+00 2.305e-03 5.754e-03 3.563e-03
22 1 -3.529e+00 1.149e-02 -3.518e+00 -3.294e-03 7.449e-03 2.110e-03
23 1 -1.212e-02 3.530e+00 3.522e+00 3.655e-03 -5.652e-03 -3.179e-03
24 1 -9.575e-03 3.532e+00 -3.521e+00 -7.697e-04 -8.123e-03 3.269e-03
25 1 -9.018e-03 -3.502e+00 3.518e+00 -4.943e-03 -3.351e-03 -5.922e-03
26 1 -8.649e-03 -3.506e+00 -3.515e+00 -1.405e-03 8.719e-03 -8.245e-04
27 1 3.505e+00 9.035e-03 3.517e+00 4.510e-03 -8.396e-03 1.289e-02
28 1 3.502e+00 1.096e-02 -3.516e+00 5.372e-03 -8.116e-03 7.938e-03
29 1 1.748e+00 -3.495e+00 -1.747e+00 -6.685e-02 8.378e-02 1.572e-01
30 1 1.746e+00 -3.495e+00 1.747e+00 8.898e-03 4.181e-02 1.696e-02
31 1 3.496e+00 -1.747e+00 1.747e+00 6.403e-04 9.767e-03 5.941e-03
32 1 3.494e+00 -1.748e+00 -1.749e+00 3.326e-04 2.405e-03 1.094e-04
33 1 -3.532e+00 1.770e+00 1.760e+00 -2.356e-03 6.260e-03 1.136e-03
34 1 -3.531e+00 1.770e+00 -1.761e+00 1.618e-02 1.826e-02 1.481e-02
35 1 -1.772e+00 3.530e+00 -1.759e+00 1.441e-04 3.018e-02 8.353e-03
36 1 -1.769e+00 3.529e+00 1.759e+00 1.921e-03 1.720e-02 1.936e-02
37 1 -3.533e+00 -1.747e+00 1.761e+00 3.134e-03 5.095e-03 -3.193e-03
38 1 -3.533e+00 -1.747e+00 -1.762e+00 -1.546e-03 9.503e-03 -1.920e-02
39 1 1.745e+00 3.532e+00 -1.760e+00 -7.711e-04 8.304e-03 -8.966e-04
40 1 1.747e+00 3.534e+00 1.762e+00 1.892e-04 7.096e-05 -7.106e-03
41 1 -1.768e+00 -3.503e+00 -1.756e+00 5.312e-04 -3.445e-04 2.643e-03
42 1 -1.769e+00 -3.506e+00 1.758e+00 6.085e-03 1.266e-02 1.714e-02
43 1 3.502e+00 1.768e+00 1.757e+00 -4.179e-03 1.161e-02 -3.993e-03
44 1 3.504e+00 1.770e+00 -1.757e+00 -4.975e-03 1.281e-02 -2.871e-03
45 1 -1.770e+00 1.770e+00 -3.522e+00 7.828e-04 1.242e-02 -3.687e-04
46 1 -1.769e+00 1.769e+00 3.519e+00 -1.008e-02 -9.411e-03 1.764e-03
47 1 -1.768e+00 -1.747e+00 -3.515e+00 -6.669e-04 -5.787e-03 -4.225e-03
48 1 -1.765e+00 -1.749e+00 3.514e+00 1.459e-03 1.176e-02 8.414e-03
49 1 1.747e+00 1.768e+00 3.518e+00 -1.595e-03 1.973e-02 1.204e-02
50 1 1.747e+00 1.770e+00 -3.513e+00 -4.883e-03 2.248e-02 2.258e-03
51 1 1.749e+00 -1.748e+00 -3.529e+00 -3.797e-03 1.625e-02 6.689e-03
52 1 1.749e+00 -1.745e+00 3.530e+00 -3.360e-04 -5.644e-03 -2.010e-02
53 1 -1.419e-02 -1.748e+00 5.280e+00 1.779e-04 -1.553e-02 -1.316e-02
54 1 1.749e+00 1.553e-02 5.279e+00 -5.054e-03 -2.406e-02 -8.974e-03
55 1 -1.769e+00 1.054e-02 5.281e+00 -5.514e-03 7.725e-03 1.635e-03
56 1 -1.130e-02 1.770e+00 5.281e+00 3.548e-03 -4.515e-03 3.416e-03
57 1 -1.540e-03 -2.281e-03 -1.064e-03 1.288e+00 -1.375e+00 -1.994e-02
58 1 1.711e-04 -3.495e+00 5.503e-04 -3.165e-02 1.084e-03 -1.066e-02
59 1 3.495e+00 -3.462e-04 2.658e-04 4.630e-03 1.342e-03 4.154e-03
60 1 1.075e-05 -1.748e+00 1.746e+00 -3.011e-04 -1.276e-02 -1.190e-02
61 1 -2.241e-04 -1.746e+00 -1.748e+00 -7.415e-05 -7.330e-03 -7.602e-03
62 1 1.747e+00 -1.354e-04 -1.747e+00 2.547e-02 -6.971e-02 6.088e-02
63 1 1.749e+00 6.994e-04 1.748e+00 8.466e-04 1.470e-02 9.853e-03
64 1 -8.861e-03 8.382e-03 3.517e+00 -4.067e-03 5.040e-03 5.296e-03
65 1 -1.096e-02 8.127e-03 -3.516e+00 -2.685e-03 1.135e-02 4.454e-03
66 1 -3.532e+00 1.401e-02 -9.968e-04 1.058e-03 -9.039e-03 -1.054e-02
67 1 -1.340e-02 3.534e+00 7.272e-05 -1.459e-04 1.795e-02 6.135e-03
68 1 -1.766e+00 1.767e+00 -6.974e-04 -1.209e-02 1.351e-02 -1.042e-02
69 1 -1.769e+00 8.352e-03 -1.756e+00 -4.249e-03 -4.915e-03 3.469e-03
70 1 -1.770e+00 1.032e-02 1.756e+00 -4.296e-03 1.683e-02 9.940e-04
71 1 -8.919e-03 1.771e+00 1.758e+00 2.602e-03 7.747e-03 8.981e-03
72 1 -1.030e-02 1.768e+00 -1.756e+00 -1.450e-03 1.092e-03 -1.726e-03
73 1 -1.782e+00 -1.748e+00 5.882e-04 1.046e-02 -1.315e-04 -1.073e-02
74 1 1.748e+00 1.782e+00 1.719e-04 3.522e-03 -9.093e-05 1.979e-03
ITEM: TIMESTEP
0
ITEM: NUMBER OF ATOMS
74
ITEM: BOX BOUNDS xy xz yz pp pp pp
                     0.00000000000000e+00 1.06200000000000e+01 0.00000000000000e+00
0.00000000000000e+00	1.06200000000000e+01	0.00000000000000e+00
0.00000000000000e+00	1.06200000000000e+01	0.00000000000000e+00
ITEM: ATOMS id type x y z DisplacementX DisplacementY DisplacementZ
75 1 5.276e+00 -8.819e-04 -1.745e+00 -3.118e-02 1.979e-02 -1.798e-02
76 1 3.494e+00 8.280e-04 -3.494e+00 1.630e-02 -1.832e-02 2.640e-03
77 1 -1.214e-02 -5.282e+00 -1.748e+00 1.174e-03 8.410e-03 6.023e-03
78 1 -1.368e-02 5.282e+00 -1.747e+00 1.407e-02 -1.115e-02 2.972e-03
79 1 1.749e+00 -5.282e+00 1.321e-02 5.564e-03 -7.900e-03 -2.459e-03
80 1 1.747e+00 5.282e+00 1.477e-02 -3.017e-03 -2.295e-03 -2.640e-03
81 1 5.262e+00 6.078e-04 1.767e+00 -5.221e-03 3.956e-03 -1.822e-03
82 1 -5.292e+00 -1.065e-03 -1.748e+00 2.178e-05 -1.361e-02 4.659e-03
83 1 -5.292e+00 -1.772e-03 1.775e+00 -9.915e-03 -2.392e-02 -1.755e-02
84 1 -5.294e+00 -1.759e+00 1.417e-02 -2.830e-03 2.608e-02 5.957e-03
85 1 -5.294e+00 1.760e+00 1.228e-02 -3.309e-03 -7.600e-04 -5.056e-03
86 1 -1.279e-02 5.279e+00 1.770e+00 -1.965e-03 -1.541e-02 -7.034e-03
87 1 -1.181e-02 -5.278e+00 1.772e+00 -2.378e-03 9.300e-04 -1.048e-03
88 1 -1.770e+00 -5.278e+00 1.236e-02 -2.744e-03 -1.364e-02 1.666e-03
89 1 -1.771e+00 5.279e+00 1.360e-02 -1.574e-03 4.634e-03 2.386e-05
90 1 5.262e+00 -1.758e+00 8.616e-03 -1.786e-03 -1.506e-02 -9.265e-03
91 1 5.263e+00 1.758e+00 9.144e-03 3.507e-03 2.288e-02 2.473e-03
92 1 3.508e+00 -9.966e-04 3.534e+00 -1.317e-02 1.060e-02 -2.160e-03
93 1 -3.535e+00 2.317e-03 -3.508e+00 1.109e-02 4.155e-03 -3.632e-03
94 1 -3.527e+00 1.114e-03 3.531e+00 -7.696e-03 1.005e-02 3.305e-03
95 1 -3.532e+00 3.517e+00 1.216e-02 6.089e-03 1.407e-02 9.695e-03
96 1 -3.531e+00 -3.519e+00 1.302e-02 1.129e-02 1.388e-02 1.336e-02
97 1 -1.070e-02 -3.519e+00 3.532e+00 -8.127e-04 1.927e-03 7.807e-03
98 1 -1.201e-02 3.517e+00 3.533e+00 7.148e-03 -4.286e-03 1.539e-02
99 1 3.506e+00 3.515e+00 1.154e-02 -6.581e-03 2.603e-02 -1.729e-03
100 1 3.504e+00 -3.518e+00 9.888e-03 -2.469e-03 7.473e-04 -9.085e-03
101 1 -1.237e-02 -3.516e+00 -3.505e+00 -1.156e-02 -1.119e-02 -1.524e-02
102 1 -1.137e-02 3.518e+00 -3.504e+00 2.249e-03 1.377e-02 2.386e-03
103 1 1.746e+00 1.748e+00 -3.495e+00 -3.000e-02 1.222e-01 -6.364e-02
104 1 1.746e+00 -1.747e+00 -3.495e+00 4.297e-02 -1.630e-02 4.178e-03
105 1 3.494e+00 -1.747e+00 -1.747e+00 2.070e-02 3.718e-02 2.387e-02
106 1 3.494e+00 1.746e+00 -1.748e+00 5.012e-04 6.439e-03 3.306e-03
107 1 1.746e+00 1.762e+00 3.532e+00 -7.062e-03 -1.968e-02 -1.402e-02
108 1 1.749e+00 -1.761e+00 3.533e+00 1.313e-02 2.819e-03 -1.595e-03
109 1 -1.769e+00 1.758e+00 -3.504e+00 -8.611e-03 1.164e-03 -3.039e-03
110 1 -1.769e+00 -1.756e+00 -3.505e+00 -6.712e-03 -6.901e-03 -6.339e-03
111 1 -1.771e+00 1.757e+00 3.533e+00 1.901e-03 -6.200e-03 4.614e-03
112 1 -1.771e+00 -1.758e+00 3.533e+00 -1.214e-03 6.492e-03 -4.343e-03
113 1 3.506e+00 -1.755e+00 1.768e+00 3.575e-05 -6.789e-03 -6.968e-05
114 1 3.505e+00 1.756e+00 1.768e+00 -1.299e-03 -1.463e-02 2.627e-03
115 1 -3.535e+00 -1.761e+00 -1.746e+00 3.571e-03 1.012e-03 -7.402e-03
116 1 -3.534e+00 1.760e+00 -1.747e+00 1.164e-02 1.554e-04 5.939e-03
117 1 -3.531e+00 -1.760e+00 1.772e+00 -1.151e-02 8.410e-03 1.770e-03
118 1 -3.528e+00 1.757e+00 1.772e+00 -7.105e-04 3.721e-03 -2.896e-04
119 1 -1.770e+00 -3.517e+00 1.772e+00 2.473e-04 1.128e-03 5.919e-03
120 1 -1.769e+00 3.518e+00 1.772e+00 -4.466e-03 -3.711e-03 -3.927e-04
121 1 1.748e+00 3.516e+00 1.768e+00 -3.324e-03 -2.583e-03 2.889e-04
122 1 1.747e+00 -3.515e+00 1.767e+00 -2.558e-03 4.211e-03 -1.303e-03
123 1 -1.769e+00 -3.514e+00 -1.749e+00 -2.761e-03 5.681e-03 2.712e-03
124 1 -1.766e+00 3.516e+00 -1.746e+00 7.386e-03 -5.918e-03 3.379e-03
125 1 1.747e+00 -3.530e+00 -1.746e+00 1.396e-03 9.027e-03 -1.745e-03
126 1 1.747e+00 3.530e+00 -1.746e+00 -1.872e-03 -2.141e-02 -9.251e-03
127 1 1.747e+00 1.109e-03 -5.276e+00 -4.740e-03 1.716e-03 -2.744e-03
128 1 -1.767e+00 -3.600e-04 -5.261e+00 -3.135e-03 -1.159e-02 -1.224e-02
129 1 -8.359e-03 1.758e+00 -5.264e+00 -4.096e-03 -1.402e-02 -3.256e-03
130 1 -1.168e-02 -1.757e+00 -5.263e+00 -1.016e-02 2.142e-02 -1.086e-02
131 1 1.563e-03 1.672e-03 1.474e-03 1.219e+00 -1.374e-01 -1.369e+00
132 1 9.501e-04 -6.336e-04 -3.494e+00 7.975e-04 1.353e-02 8.921e-03
133 1 3.493e+00 -7.551e-04 1.132e-03 8.876e-04 1.568e-02 1.063e-02
134 1 1.717e-03 1.749e+00 -1.747e+00 9.497e-04 1.028e-02 1.341e-02
135 1 9.093e-04 -1.747e+00 -1.747e+00 -6.146e-03 -4.223e-02 -2.050e-02
136 1 1.747e+00 -1.748e+00 -9.431e-04 2.053e-02 -4.453e-02 -5.064e-04
137 1 1.747e+00 1.747e+00 -6.150e-04 9.535e-04 1.726e-02 1.188e-02
138 1 -9.065e-03 -3.516e+00 9.948e-03 6.071e-03 -3.004e-03 1.111e-02
139 1 -1.096e-02 3.517e+00 9.552e-03 9.139e-04 7.805e-03 6.720e-03
140 1 -1.156e-02 1.458e-03 3.534e+00 3.599e-03 -3.426e-03 5.161e-03
141 1 -3.534e+00 -5.630e-04 1.353e-02 -2.449e-03 -1.157e-04 -4.317e-03
142 1 -1.782e+00 1.641e-04 -1.747e+00 3.463e-03 1.213e-04 -2.792e-03
143 1 1.747e+00 -6.005e-04 1.783e+00 -3.050e-03 1.401e-02 -5.647e-03
144 1 -1.770e+00 -3.911e-04 1.767e+00 -1.594e-03 1.247e-02 -3.940e-04
145 1 -9.608e-03 1.757e+00 1.770e+00 1.477e-04 1.656e-02 1.315e-02
146 1 -9.541e-03 -1.758e+00 1.769e+00 -4.926e-03 3.326e-03 -3.997e-03
147 1 -1.767e+00 -1.758e+00 1.034e-02 -2.650e-04 8.848e-05 -6.993e-04
148 1 -1.768e+00 1.758e+00 1.045e-02 9.213e-04 -1.147e-02 -6.961e-04
ITEM: TIMESTEP
0
ITEM: NUMBER OF ATOMS
74
ITEM: BOX BOUNDS xy xz yz pp pp pp
                     0.00000000000000e+00 1.06200000000000e+01 0.00000000000000e+00
0.00000000000000e+00	1.06200000000000e+01	0.00000000000000e+00
0.00000000000000e+00	1.06200000000000e+01	0.00000000000000e+00
ITEM: ATOMS id type x y z DisplacementX DisplacementY DisplacementZ
149 1 -5.275e+00 -1.746e+00 -2.126e-04 8.192e-03 -1.215e-02 -1.380e-02
150 1 -1.748e+00 -5.277e+00 -9.525e-04 7.336e-03 9.280e-03 -6.720e-04
151 1 -3.497e+00 -3.493e+00 2.834e-04 2.155e-02 -1.491e-02 -4.897e-04
152 1 1.772e+00 5.293e+00 1.162e-03 -4.910e-03 -1.206e-02 -3.862e-03
153 1 5.291e+00 1.773e+00 -4.239e-04 -4.702e-03 7.352e-03 -1.561e-03
154 1 1.249e-02 5.293e+00 1.761e+00 -4.780e-03 -8.907e-03 -4.191e-03
155 1 1.311e-02 5.293e+00 -1.760e+00 -3.797e-03 4.015e-03 -3.817e-03
156 1 5.293e+00 1.120e-02 1.762e+00 3.354e-03 -6.999e-03 -1.022e-03
157 1 5.293e+00 1.242e-02 -1.761e+00 -6.171e-03 -5.790e-03 -6.353e-03
158 1 5.292e+00 -1.747e+00 1.210e-03 2.104e-03 -4.935e-03 -9.059e-04
159 1 -1.746e+00 5.294e+00 -1.375e-03 4.964e-03 1.701e-02 7.112e-03
160 1 -5.263e+00 1.767e+00 -2.629e-04 -3.982e-04 -7.478e-03 5.767e-03
161 1 1.767e+00 -5.262e+00 -5.116e-04 1.086e-02 2.506e-04 7.628e-03
162 1 -5.263e+00 9.168e-03 1.758e+00 7.623e-04 5.849e-03 4.662e-03
163 1 -5.264e+00 9.610e-03 -1.758e+00 5.133e-03 5.677e-03 3.386e-03
164 1 1.165e-02 -5.264e+00 -1.757e+00 -3.592e-03 1.787e-03 7.526e-03
165 1 9.386e-03 -5.262e+00 1.756e+00 1.644e-03 4.383e-03 -1.504e-03
166 1 3.532e+00 3.529e+00 -2.195e-03 5.246e-03 8.140e-03 9.629e-03
167 1 -3.508e+00 3.534e+00 -8.722e-04 3.917e-03 8.288e-03 6.299e-03
168 1 3.534e+00 -3.507e+00 -5.578e-04 7.770e-04 2.359e-03 -3.469e-03
169 1 1.265e-02 3.530e+00 3.519e+00 -3.318e-03 1.777e-03 -8.925e-03
170 1 1.175e-02 3.530e+00 -3.519e+00 2.233e-03 -1.019e-02 2.277e-03
171 1 3.531e+00 1.313e-02 3.519e+00 -6.358e-03 -2.842e-03 -6.775e-03
172 1 3.531e+00 1.235e-02 -3.520e+00 1.372e-03 4.730e-03 4.376e-03
173 1 -3.504e+00 9.787e-03 3.517e+00 7.522e-03 8.140e-03 7.710e-03
174 1 -3.504e+00 9.652e-03 -3.515e+00 -6.933e-04 5.025e-03 -4.356e-03
175 1 9.924e-03 -3.506e+00 3.516e+00 3.681e-03 -1.181e-02 4.054e-03
176 1 9.849e-03 -3.505e+00 -3.516e+00 2.301e-03 2.750e-02 1.526e-02
177 1 -3.495e+00 -1.745e+00 -1.747e+00 -2.543e-04 -1.164e-02 -1.102e-02
178 1 -3.495e+00 -1.748e+00 1.747e+00 4.486e-04 5.179e-03 2.308e-03
179 1 -1.747e+00 -3.494e+00 1.748e+00 1.314e-02 -4.210e-02 2.089e-02
180 1 -1.747e+00 -3.494e+00 -1.747e+00 3.109e-02 5.165e-02 3.430e-02
181 1 1.770e+00 3.530e+00 1.760e+00 -2.776e-03 -2.109e-02 -8.612e-03
182 1 1.771e+00 3.531e+00 -1.759e+00 -8.250e-03 -5.846e-03 -7.601e-03
183 1 3.530e+00 1.773e+00 -1.761e+00 -2.092e-04 -2.618e-03 -1.297e-04
184 1 3.529e+00 1.770e+00 1.759e+00 -3.321e-03 5.943e-03 1.745e-03
185 1 -1.748e+00 3.535e+00 1.762e+00 1.922e-03 -1.339e-02 -6.136e-03
186 1 -1.748e+00 3.533e+00 -1.760e+00 -8.124e-04 -1.062e-02 -8.895e-03
187 1 3.535e+00 -1.746e+00 -1.761e+00 -4.726e-04 -8.499e-04 -6.256e-03
188 1 3.533e+00 -1.747e+00 1.761e+00 -6.592e-03 -4.903e-03 -6.787e-03
189 1 -3.503e+00 1.771e+00 -1.758e+00 4.606e-03 -2.840e-03 -7.411e-03
190 1 -3.504e+00 1.769e+00 1.757e+00 4.758e-03 -1.628e-02 -5.999e-05
191 1 1.769e+00 -3.505e+00 1.757e+00 -7.839e-03 -1.438e-02 -2.554e-03
192 1 1.769e+00 -3.504e+00 -1.758e+00 5.582e-04 5.559e-03 3.690e-03
193 1 1.770e+00 1.769e+00 -3.521e+00 -3.695e-03 2.097e-03 -3.274e-03
194 1 1.771e+00 1.769e+00 3.519e+00 3.365e-03 6.986e-03 -1.836e-03
195 1 -1.747e+00 1.768e+00 -3.515e+00 2.484e-03 2.360e-03 -1.304e-03
196 1 -1.748e+00 1.768e+00 3.514e+00 -6.696e-03 3.061e-02 1.207e-02
197 1 1.767e+00 -1.748e+00 3.515e+00 8.825e-03 -1.300e-02 1.483e-02
198 1 1.767e+00 -1.746e+00 -3.515e+00 -1.369e-03 -4.608e-04 -8.082e-03
199 1 -1.748e+00 -1.746e+00 -3.528e+00 6.771e-04 5.601e-03 8.365e-03
200 1 -1.749e+00 -1.747e+00 3.530e+00 1.731e-03 -5.746e-03 -2.059e-02
201 1 -1.746e+00 1.496e-02 5.279e+00 -1.107e-02 1.473e-02 4.760e-04
202 1 1.445e-02 -1.749e+00 5.281e+00 -7.186e-03 -1.127e-02 -2.240e-03
203 1 9.794e-03 1.770e+00 5.279e+00 -4.458e-03 -1.699e-02 -1.066e-02
204 1 1.770e+00 1.073e-02 5.280e+00 -2.323e-03 -1.738e-02 -1.113e-02
205 1 -7.677e-04 7.101e-04 -1.078e-04 -1.200e+00 -1.476e+00 2.315e-01
206 1 -3.495e+00 -5.010e-04 -9.400e-04 -5.141e-02 1.517e-02 1.748e-03
207 1 2.461e-04 -3.495e+00 2.925e-04 9.680e-04 -6.632e-03 -1.582e-02
208 1 -1.745e+00 -1.903e-04 1.746e+00 2.821e-02 -2.511e-02 1.098e-02
209 1 -1.746e+00 3.910e-04 -1.747e+00 8.093e-03 -5.916e-02 2.715e-02
210 1 -1.378e-03 -1.749e+00 -1.747e+00 1.603e-03 1.807e-03 1.094e-03
211 1 -9.590e-04 -1.748e+00 1.747e+00 6.229e-04 9.351e-03 5.612e-03
212 1 9.774e-03 8.455e-03 3.516e+00 3.113e-03 7.263e-03 -1.190e-03
213 1 9.077e-03 1.115e-02 -3.514e+00 -3.787e-03 -9.207e-03 1.414e-04
214 1 1.362e-02 3.535e+00 -4.815e-04 -7.097e-03 1.468e-03 -2.200e-03
215 1 3.535e+00 1.254e-02 -1.672e-03 1.630e-03 -7.583e-03 -2.744e-03
216 1 1.768e+00 1.769e+00 -6.371e-04 -5.964e-04 2.689e-02 2.982e-03
217 1 1.090e-02 1.770e+00 -1.757e+00 5.324e-03 -5.633e-03 1.017e-02
218 1 7.604e-03 1.769e+00 1.757e+00 6.039e-03 -2.314e-03 1.061e-02
219 1 1.770e+00 1.135e-02 1.758e+00 3.504e-03 5.253e-03 4.391e-03
220 1 1.770e+00 1.064e-02 -1.757e+00 -7.911e-04 -1.480e-02 3.882e-03
221 1 -1.748e+00 1.784e+00 1.140e-03 1.215e-02 -2.762e-02 1.242e-02
222 1 1.781e+00 -1.748e+00 6.064e-04 -3.977e-03 1.117e-02 8.421e-03
ITEM: TIMESTEP
0
ITEM: NUMBER OF ATOMS
74
ITEM: BOX BOUNDS xy xz yz pp pp pp
                     0.00000000000000e+00 1.06200000000000e+01 0.00000000000000e+00
0.00000000000000e+00	1.06200000000000e+01	0.00000000000000e+00
0.00000000000000e+00	1.06200000000000e+01	0.00000000000000e+00
ITEM: ATOMS id type x y z DisplacementX DisplacementY DisplacementZ
223 1 -5.278e+00 6.386e-04 -1.747e+00 1.488e-02 1.229e-02 -4.598e-03
224 1 -3.494e+00 -2.577e-04 -3.494e+00 -8.688e-05 -7.635e-03 -7.843e-03
225 1 1.261e-02 -5.283e+00 -1.748e+00 8.315e-04 -1.935e-02 -4.571e-04
226 1 1.287e-02 5.282e+00 -1.746e+00 -1.671e-02 5.199e-03 -8.603e-03
227 1 -1.746e+00 -5.281e+00 1.343e-02 2.924e-03 3.062e-02 -5.593e-03
228 1 -1.748e+00 5.281e+00 1.211e-02 2.289e-03 -4.920e-03 1.037e-02
229 1 -5.261e+00 1.198e-03 1.767e+00 -1.236e-02 9.656e-03 -2.818e-03
230 1 5.292e+00 1.301e-05 -1.748e+00 -3.153e-03 1.011e-04 -1.418e-02
231 1 5.292e+00 2.370e-04 1.774e+00 -3.770e-05 1.922e-02 1.135e-03
232 1 5.293e+00 -1.759e+00 1.316e-02 -1.551e-03 8.902e-03 1.991e-03
233 1 5.293e+00 1.760e+00 1.491e-02 -2.869e-03 7.490e-03 3.605e-03
234 1 1.259e-02 5.277e+00 1.773e+00 -4.958e-03 9.404e-04 4.003e-03
235 1 1.241e-02 -5.276e+00 1.773e+00 3.749e-03 2.968e-03 7.625e-03
236 1 1.769e+00 -5.279e+00 1.113e-02 2.428e-04 1.467e-03 1.731e-03
237 1 1.770e+00 5.279e+00 1.147e-02 2.351e-03 8.145e-04 1.308e-02
238 1 -5.263e+00 -1.755e+00 1.033e-02 1.506e-03 1.318e-02 -4.255e-03
239 1 -5.263e+00 1.759e+00 9.857e-03 -3.955e-03 7.236e-03 3.387e-03
240 1 -3.508e+00 1.021e-03 3.533e+00 1.010e-02 1.049e-02 -1.769e-03
241 1 3.533e+00 1.988e-03 -3.510e+00 -1.345e-02 5.580e-04 -6.397e-03
242 1 3.529e+00 -3.556e-04 3.534e+00 -1.026e-05 -1.709e-02 -2.290e-03
243 1 3.529e+00 3.517e+00 1.210e-02 4.148e-03 4.997e-03 3.212e-03
244 1 3.531e+00 -3.519e+00 1.226e-02 2.675e-04 -1.182e-02 -4.410e-03
245 1 1.167e-02 -3.514e+00 3.534e+00 -9.178e-03 2.351e-02 -1.377e-02
246 1 1.151e-02 3.518e+00 3.531e+00 -4.313e-03 7.848e-03 3.934e-03
247 1 -3.504e+00 3.516e+00 8.524e-03 -2.497e-03 2.471e-03 3.033e-03
248 1 -3.505e+00 -3.515e+00 8.924e-03 -1.138e-02 1.426e-02 -1.205e-02
249 1 1.145e-02 -3.515e+00 -3.503e+00 3.183e-03 1.535e-02 -2.328e-03
250 1 9.816e-03 3.517e+00 -3.503e+00 -1.665e-04 -3.025e-03 -7.778e-04
251 1 -1.747e+00 1.747e+00 -3.494e+00 -2.367e-02 1.782e-02 -1.294e-02
252 1 -1.748e+00 -1.748e+00 -3.494e+00 1.772e-02 -5.339e-03 -1.460e-02
253 1 -3.495e+00 -1.748e+00 -1.747e+00 2.312e-02 3.783e-02 -1.035e-03
254 1 -3.496e+00 1.748e+00 -1.747e+00 -1.057e-01 7.680e-02 -9.209e-03
255 1 -1.750e+00 1.760e+00 3.531e+00 -5.363e-03 -1.187e-02 -1.162e-02
256 1 -1.749e+00 -1.761e+00 3.534e+00 3.137e-03 2.102e-02 1.189e-02
257 1 1.769e+00 1.757e+00 -3.501e+00 5.858e-03 6.347e-03 3.499e-03
258 1 1.770e+00 -1.757e+00 -3.504e+00 -3.049e-03 9.192e-03 8.593e-03
259 1 1.771e+00 1.757e+00 3.533e+00 2.286e-03 6.686e-04 2.701e-03
260 1 1.769e+00 -1.760e+00 3.532e+00 -2.253e-03 -5.925e-04 -1.402e-03
261 1 -3.505e+00 -1.756e+00 1.770e+00 4.079e-03 -7.122e-03 -7.251e-03
262 1 -3.503e+00 1.758e+00 1.770e+00 -1.257e-04 5.699e-03 6.285e-03
263 1 3.534e+00 -1.761e+00 -1.748e+00 -1.906e-03 4.891e-03 -1.975e-03
264 1 3.535e+00 1.761e+00 -1.747e+00 -5.658e-03 -9.366e-04 -1.000e-02
265 1 3.529e+00 -1.757e+00 1.771e+00 4.958e-03 -6.035e-06 2.788e-03
266 1 3.530e+00 1.760e+00 1.772e+00 1.284e-03 -4.498e-03 1.206e-03
267 1 1.770e+00 -3.516e+00 1.771e+00 -4.678e-03 -2.418e-02 1.660e-04
268 1 1.771e+00 3.517e+00 1.771e+00 -8.304e-04 -1.904e-02 7.430e-04
269 1 -1.747e+00 3.514e+00 1.767e+00 1.649e-03 7.500e-03 6.770e-04
270 1 -1.747e+00 -3.515e+00 1.766e+00 -8.857e-03 7.337e-03 -1.788e-03
271 1 1.767e+00 -3.513e+00 -1.748e+00 7.159e-03 -2.397e-02 2.376e-03
272 1 1.766e+00 3.516e+00 -1.746e+00 8.776e-03 6.993e-03 1.339e-02
273 1 -1.748e+00 -3.530e+00 -1.745e+00 -2.835e-03 1.370e-02 -6.556e-03
274 1 -1.747e+00 3.530e+00 -1.746e+00 1.038e-02 -1.338e-02 9.818e-04
275 1 -1.748e+00 -1.619e-03 -5.276e+00 9.438e-04 -1.127e-02 1.343e-02
276 1 1.768e+00 -1.172e-04 -5.261e+00 2.055e-04 -5.713e-03 -5.705e-03
277 1 1.066e-02 1.757e+00 -5.263e+00 1.023e-02 2.593e-03 4.466e-03
278 1 8.597e-03 -1.756e+00 -5.264e+00 3.452e-04 -2.053e-03 -4.422e-03
279 1 -1.940e-03 9.777e-05 8.663e-04 -1.398e+00 -1.181e-01 -1.437e+00
280 1 -1.226e-03 -1.424e-03 -3.495e+00 1.997e-02 -1.018e-02 1.283e-02
281 1 -3.495e+00 -9.103e-04 -6.437e-04 1.948e-04 -8.930e-04 -2.503e-03
282 1 1.594e-03 1.748e+00 -1.746e+00 2.103e-02 4.825e-03 2.520e-02
283 1 -5.566e-04 -1.747e+00 -1.747e+00 5.797e-03 7.080e-02 -9.505e-03
284 1 -1.747e+00 -1.748e+00 1.954e-04 -1.242e-02 4.622e-02 2.236e-02
285 1 -1.747e+00 1.746e+00 -8.893e-04 3.666e-04 3.218e-03 7.534e-04
286 1 1.111e-02 -3.514e+00 1.045e-02 9.530e-04 -5.164e-03 5.833e-03
287 1 1.033e-02 3.516e+00 9.278e-03 -6.485e-03 -4.915e-03 -7.962e-03
288 1 1.399e-02 -7.781e-04 3.532e+00 1.152e-03 1.916e-02 9.325e-03
289 1 3.534e+00 -2.418e-03 1.131e-02 -6.674e-04 -2.287e-03 7.900e-04
290 1 1.783e+00 -2.238e-04 -1.747e+00 -1.201e-02 4.460e-03 9.150e-03
291 1 -1.749e+00 -1.142e-03 1.783e+00 1.142e-03 5.135e-03 -1.369e-02
292 1 1.770e+00 -6.822e-04 1.766e+00 -5.907e-03 -2.737e-04 -3.399e-03
293 1 9.116e-03 1.756e+00 1.769e+00 -7.084e-04 1.729e-03 -3.331e-03
294 1 9.223e-03 -1.755e+00 1.769e+00 -2.720e-03 -6.003e-03 3.718e-03
295 1 1.769e+00 -1.758e+00 1.112e-02 -7.616e-03 1.113e-03 -3.433e-03
296 1 1.769e+00 1.756e+00 1.009e-02 4.883e-03 4.285e-03 6.266e-03
ITEM: TIMESTEP
0
ITEM: NUMBER OF ATOMS
74
ITEM: BOX BOUNDS xy xz yz pp pp pp
                     0.00000000000000e+00 1.06200000000000e+01 0.00000000000000e+00
0.00000000000000e+00	1.06200000000000e+01	0.00000000000000e+00
0.00000000000000e+00	1.06200000000000e+01	0.00000000000000e+00
ITEM: ATOMS id type x y z DisplacementX DisplacementY DisplacementZ
297 1 1.506e-04 -5.277e+00 -1.746e+00 2.001e-03 -1.029e-02 -1.315e-02
298 1 2.415e-04 -3.494e+00 -3.495e+00 -6.713e-03 5.143e-04 -5.045e-04
299 1 -5.282e+00 1.441e-02 -1.747e+00 -1.852e-03 -8.921e-03 -6.699e-03
300 1 5.283e+00 1.172e-02 -1.748e+00 -2.063e-03 -6.715e-03 -3.065e-04
301 1 -5.280e+00 -1.747e+00 1.534e-02 7.055e-03 6.890e-03 4.613e-04
302 1 5.282e+00 -1.746e+00 1.405e-02 3.002e-03 3.171e-03 3.645e-03
303 1 -4.946e-05 -5.263e+00 1.766e+00 -2.887e-03 -6.030e-03 2.185e-03
304 1 -4.517e-04 5.292e+00 -1.746e+00 -3.354e-03 -1.542e-02 -1.019e-02
305 1 -1.414e-04 5.292e+00 1.773e+00 -2.246e-03 6.379e-03 -4.362e-03
306 1 -1.762e+00 5.291e+00 1.356e-02 3.181e-03 1.057e-03 4.690e-03
307 1 1.759e+00 5.294e+00 1.386e-02 1.781e-03 -5.549e-03 4.886e-03
308 1 5.278e+00 9.806e-03 1.772e+00 -6.577e-03 3.903e-03 -2.689e-03
309 1 -5.277e+00 9.517e-03 1.772e+00 2.426e-03 5.513e-04 5.022e-03
310 1 -5.278e+00 1.770e+00 1.297e-02 8.667e-03 -4.066e-03 3.475e-03
311 1 5.278e+00 1.770e+00 1.203e-02 9.328e-03 5.381e-03 2.183e-03
312 1 -1.759e+00 -5.263e+00 1.026e-02 -1.884e-03 4.940e-03 4.334e-03
313 1 1.758e+00 -5.263e+00 9.700e-03 5.103e-03 -6.554e-03 5.149e-03
314 1 -1.544e-03 -3.508e+00 3.533e+00 -3.954e-03 -6.094e-03 -9.032e-03
315 1 -1.388e-03 3.533e+00 -3.507e+00 3.303e-03 -4.606e-03 2.349e-04
316 1 1.143e-03 3.529e+00 3.532e+00 -4.357e-03 -1.222e-02 -1.693e-03
317 1 3.516e+00 3.530e+00 1.264e-02 -1.276e-02 8.681e-03 -1.762e-02
318 1 -3.518e+00 3.531e+00 1.192e-02 -4.840e-03 1.824e-02 2.676e-03
319 1 -3.518e+00 1.001e-02 3.532e+00 1.103e-03 -1.315e-03 -6.314e-03
320 1 3.519e+00 1.074e-02 3.533e+00 9.773e-03 2.291e-03 1.068e-02
321 1 3.514e+00 -3.502e+00 9.878e-03 5.658e-04 -1.555e-03 6.096e-03
322 1 -3.516e+00 -3.502e+00 7.726e-03 -1.164e-03 -8.572e-03 -7.998e-03
323 1 -3.517e+00 9.549e-03 -3.504e+00 8.814e-03 -8.315e-03 -8.125e-04
324 1 3.517e+00 8.539e-03 -3.504e+00 -5.354e-03 -1.065e-02 3.004e-03
325 1 1.747e+00 -1.748e+00 -3.495e+00 -5.336e-04 -1.833e-02 -1.631e-02
326 1 -1.747e+00 -1.748e+00 -3.495e+00 8.699e-03 5.803e-03 1.206e-02
327 1 -1.747e+00 -3.494e+00 -1.747e+00 -1.291e-02 -2.599e-02 9.275e-03
328 1 1.747e+00 -3.494e+00 -1.746e+00 5.665e-02 -1.562e-02 3.853e-03
329 1 1.761e+00 -1.748e+00 3.532e+00 -5.811e-03 -9.818e-03 -1.781e-03
330 1 -1.760e+00 -1.748e+00 3.534e+00 -4.815e-03 -8.423e-03 -4.295e-03
331 1 1.756e+00 1.768e+00 -3.505e+00 -6.617e-03 -1.117e-03 -6.368e-03
332 1 -1.757e+00 1.768e+00 -3.506e+00 -5.716e-03 1.538e-03 -5.567e-03
333 1 1.760e+00 1.769e+00 3.533e+00 -1.571e-03 3.170e-03 1.029e-03
334 1 -1.757e+00 1.771e+00 3.533e+00 2.561e-04 1.166e-03 -1.613e-03
335 1 -1.757e+00 -3.506e+00 1.769e+00 2.561e-03 2.629e-03 2.179e-02
336 1 1.759e+00 -3.506e+00 1.771e+00 -1.058e-02 -7.493e-03 -4.515e-03
337 1 -1.760e+00 3.534e+00 -1.746e+00 -4.955e-03 -3.586e-03 -7.830e-03
338 1 1.761e+00 3.534e+00 -1.747e+00 -3.771e-03 -5.989e-03 -8.457e-03
339 1 -1.759e+00 3.529e+00 1.774e+00 -3.229e-03 3.764e-04 4.561e-04
340 1 1.758e+00 3.530e+00 1.773e+00 3.848e-03 6.419e-03 -2.963e-03
341 1 -3.519e+00 1.769e+00 1.770e+00 4.697e-03 9.912e-03 1.024e-02
342 1 3.516e+00 1.769e+00 1.772e+00 1.857e-02 -8.993e-04 2.186e-02
343 1 3.515e+00 -1.748e+00 1.768e+00 -2.039e-03 1.951e-03 -1.523e-03
344 1 -3.515e+00 -1.748e+00 1.769e+00 -9.033e-03 1.096e-02 1.088e-02
345 1 -3.515e+00 1.769e+00 -1.747e+00 -3.211e-03 5.513e-03 -1.491e-03
346 1 3.516e+00 1.767e+00 -1.746e+00 -5.176e-03 5.107e-04 -3.444e-03
347 1 -3.530e+00 -1.749e+00 -1.746e+00 1.046e-02 -1.129e-02 -7.655e-03
348 1 3.530e+00 -1.747e+00 -1.748e+00 -5.500e-03 3.649e-02 8.672e-03
349 1 -8.265e-04 -1.748e+00 -5.276e+00 -2.338e-03 -1.545e-02 8.884e-03
350 1 1.440e-03 1.767e+00 -5.262e+00 5.980e-03 1.310e-02 8.511e-03
351 1 1.757e+00 1.128e-02 -5.263e+00 5.714e-04 -4.736e-03 2.180e-03
352 1 -1.758e+00 1.088e-02 -5.265e+00 4.059e-03 -1.177e-02 6.867e-03
353 1 7.254e-04 -6.394e-04 5.273e-04 7.653e-02 -1.557e+00 -1.534e+00
354 1 -2.798e-03 -5.903e-04 -3.495e+00 2.980e-02 -8.384e-03 1.060e-02
355 1 1.399e-03 -3.495e+00 -1.130e-03 -3.018e-02 5.339e-02 -1.728e-03
356 1 1.746e+00 2.906e-04 -1.746e+00 -7.763e-02 -6.970e-02 2.500e-02
357 1 -1.748e+00 -7.065e-04 -1.746e+00 1.328e-01 -4.434e-02 4.528e-02
358 1 -1.747e+00 -1.747e+00 1.218e-03 5.418e-04 7.410e-03 4.074e-03
359 1 1.746e+00 -1.747e+00 1.539e-03 2.619e-04 7.120e-04 -1.231e-03
360 1 -3.517e+00 8.366e-03 1.172e-02 5.731e-03 -1.284e-02 1.161e-02
361 1 3.517e+00 9.768e-03 1.010e-02 -6.861e-03 7.572e-04 -2.298e-03
362 1 -1.770e-03 1.270e-02 3.531e+00 -8.929e-03 2.173e-03 -1.519e-02
363 1 1.324e-03 3.535e+00 1.441e-02 -3.107e-03 -4.925e-03 -3.551e-03
364 1 -4.518e-04 1.782e+00 -1.747e+00 2.060e-03 -3.407e-02 -5.474e-04
365 1 6.437e-04 -1.748e+00 1.782e+00 -7.435e-03 -1.063e-04 -2.121e-02
366 1 -1.279e-03 1.769e+00 1.766e+00 1.288e-03 1.290e-02 3.343e-03
367 1 1.756e+00 1.052e-02 1.770e+00 -4.345e-03 -1.721e-03 -3.820e-03
368 1 -1.756e+00 8.730e-03 1.770e+00 -4.789e-03 -5.596e-03 1.777e-03
369 1 -1.757e+00 1.770e+00 9.458e-03 -3.516e-03 1.361e-02 3.108e-03
370 1 1.755e+00 1.769e+00 1.104e-02 2.590e-03 9.235e-03 3.095e-03
ITEM: TIMESTEP
0
ITEM: NUMBER OF ATOMS
74
ITEM: BOX BOUNDS xy xz yz pp pp pp
                     0.00000000000000e+00 1.06200000000000e+01 0.00000000000000e+00
0.00000000000000e+00	1.06200000000000e+01	0.00000000000000e+00
0.00000000000000e+00	1.06200000000000e+01	0.00000000000000e+00
ITEM: ATOMS id type x y z DisplacementX DisplacementY DisplacementZ
371 1 8.210e-04 5.276e+00 1.748e+00 -4.820e-03 -2.345e-02 -4.115e-04
372 1 1.420e-03 3.495e+00 3.494e+00 6.149e-04 9.160e-03 5.461e-03
373 1 -5.281e+00 -1.254e-02 1.746e+00 5.391e-03 -1.968e-02 6.636e-04
374 1 5.283e+00 -1.386e-02 1.747e+00 -5.980e-03 -7.595e-04 -1.181e-02
375 1 -5.282e+00 1.745e+00 -1.319e-02 -1.115e-03 1.214e-02 7.292e-04
376 1 5.282e+00 1.748e+00 -1.489e-02 -1.036e-03 -3.573e-03 1.515e-03
377 1 -1.052e-03 5.263e+00 -1.766e+00 -2.400e-03 -1.224e-02 -7.406e-03
378 1 -6.929e-05 -5.293e+00 1.747e+00 1.716e-03 7.495e-03 2.927e-03
379 1 1.209e-05 -5.291e+00 -1.773e+00 2.978e-03 -1.021e-02 2.445e-03
380 1 -1.760e+00 -5.292e+00 -1.241e-02 8.191e-03 -1.612e-02 1.275e-03
381 1 1.760e+00 -5.293e+00 -1.411e-02 4.549e-03 3.650e-03 5.190e-03
382 1 5.277e+00 -1.214e-02 -1.771e+00 -3.233e-04 -6.352e-03 8.830e-03
383 1 -5.276e+00 -1.032e-02 -1.772e+00 -4.881e-03 -6.165e-04 -9.858e-03
384 1 -5.278e+00 -1.773e+00 -1.259e-02 -3.752e-03 -5.361e-03 -3.699e-03
385 1 5.277e+00 -1.772e+00 -1.292e-02 7.229e-03 3.108e-03 5.546e-03
386 1 -1.757e+00 5.263e+00 -9.679e-03 -3.763e-03 1.196e-02 -6.014e-03
387 1 1.757e+00 5.263e+00 -1.140e-02 2.452e-03 -2.489e-03 1.531e-03
388 1 -4.654e-04 3.509e+00 -3.533e+00 3.330e-03 -9.878e-03 -1.051e-02
389 1 1.519e-03 -3.534e+00 3.507e+00 -1.639e-03 -1.441e-03 -1.020e-02
390 1 9.461e-05 -3.528e+00 -3.531e+00 1.552e-03 -1.316e-02 7.726e-05
391 1 3.519e+00 -3.530e+00 -1.226e-02 5.660e-03 -2.078e-03 9.299e-03
392 1 -3.517e+00 -3.531e+00 -1.106e-02 -3.573e-03 3.195e-03 -2.071e-03
393 1 -3.517e+00 -9.611e-03 -3.532e+00 1.502e-03 -3.459e-04 -1.924e-03
394 1 3.515e+00 -1.163e-02 -3.533e+00 -6.682e-04 5.138e-04 1.177e-03
395 1 3.515e+00 3.503e+00 -9.888e-03 -6.497e-03 8.060e-03 -3.885e-03
396 1 -3.517e+00 3.503e+00 -1.089e-02 3.612e-03 1.686e-02 8.697e-03
397 1 -3.516e+00 -1.068e-02 3.505e+00 4.965e-03 -1.048e-02 3.700e-03
398 1 3.518e+00 -9.940e-03 3.504e+00 -5.266e-03 -2.741e-03 3.065e-03
399 1 1.747e+00 1.746e+00 3.495e+00 3.879e-04 3.726e-03 1.156e-03
400 1 -1.747e+00 1.748e+00 3.494e+00 3.889e-04 3.751e-03 1.176e-03
401 1 -1.748e+00 3.495e+00 1.748e+00 5.062e-02 -1.262e-02 2.682e-02
402 1 1.749e+00 3.495e+00 1.748e+00 9.305e-05 -3.329e-03 -4.432e-03
403 1 1.759e+00 1.747e+00 -3.531e+00 -6.923e-03 -1.703e-03 5.902e-04
404 1 -1.760e+00 1.745e+00 -3.534e+00 9.460e-03 -1.161e-02 3.157e-04
405 1 1.759e+00 -1.767e+00 3.504e+00 1.998e-04 -7.803e-03 5.861e-03
406 1 -1.758e+00 -1.769e+00 3.504e+00 -5.814e-03 -1.179e-02 -1.889e-03