3999
Lattice=" 35.4000015 0.0 0.0 0.0 35.4000015 0.0 0.0 0.0 35.4000015 " Time=0.000000e+00  Step=0  Energy=0.0  Barrier=0.000000e+00
Ni 3.541576e-01 3.540994e-01 3.541313e-01 1
Ni 2.124268e+00 2.124124e+00 3.542429e-01 2
Ni 2.124243e+00 3.541843e-01 2.124184e+00 3
Ni 3.540222e-01 2.124031e+00 2.124045e+00 4
Ni 3.894455e+00 3.543159e-01 3.544094e-01 5
Ni 5.664664e+00 2.124364e+00 3.546645e-01 6
Ni 5.664714e+00 3.545980e-01 2.124598e+00 7
Ni 3.894417e+00 2.124245e+00 2.124359e+00 8
Ni 7.434598e+00 3.545980e-01 3.547142e-01 9
Ni 9.204529e+00 2.124529e+00 3.547254e-01 10
Ni 9.204792e+00 3.551026e-01 2.125103e+00 11
Ni 7.435103e+00 2.124792e+00 2.125103e+00 12
Ni 1.097428e+01 3.547597e-01 3.548214e-01 13
Ni 1.274400e+01 2.124017e+00 3.538117e-01 14
Ni 1.274400e+01 3.558191e-01 2.125819e+00 15
Ni 1.097474e+01 2.125295e+00 2.125498e+00 16
Ni 1.451372e+01 3.547597e-01 3.548214e-01 17
Ni 1.628347e+01 2.124529e+00 3.547254e-01 18
Ni 1.628321e+01 3.551026e-01 2.125103e+00 19
Ni 1.451326e+01 2.125295e+00 2.125498e+00 20
Ni 3.540716e-01 3.894020e+00 3.540793e-01 21
Ni 2.124170e+00 5.664000e+00 3.541750e-01 22
Ni 2.124031e+00 3.894025e+00 2.124078e+00 23
Ni 3.539906e-01 5.664000e+00 2.124026e+00 24
Ni 3.894490e+00 3.894123e+00 3.544653e-01 25
Ni 5.664896e+00 5.664000e+00 3.548956e-01 26
Ni 5.664821e+00 3.894279e+00 2.124760e+00 27
Ni 3.894122e+00 5.664000e+00 2.124172e+00 28
Ni 7.434760e+00 3.894279e+00 3.548214e-01 29
Ni 9.204018e+00 5.664000e+00 3.538117e-01 30
Ni 9.205296e+00 3.894739e+00 2.125498e+00 31
Ni 7.435819e+00 5.664000e+00 2.125819e+00 32
Ni 1.097392e+01 3.893917e+00 3.535543e-01 33
Ni 1.274400e+01 5.664000e+00 3.536766e-01 34
Ni 1.274400e+01 3.893400e+00 2.122585e+00 35
Ni 1.097340e+01 5.664000e+00 2.122585e+00 36
Ni 1.451408e+01 3.893917e+00 3.535543e-01 37
Ni 1.628398e+01 5.664000e+00 3.538117e-01 38
Ni 1.628271e+01 3.894739e+00 2.125498e+00 39
Ni 1.451460e+01 5.664000e+00 2.122585e+00 40
Ni 3.540716e-01 7.433980e+00 3.540793e-01 41
Ni 2.124268e+00 9.203876e+00 3.542429e-01 42
Ni 2.124031e+00 7.433975e+00 2.124078e+00 43
Ni 3.540222e-01 9.203969e+00 2.124045e+00 44
Ni 3.894490e+00 7.433878e+00 3.544653e-01 45
Ni 5.664664e+00 9.203636e+00 3.546645e-01 46
Ni 5.664821e+00 7.433722e+00 2.124760e+00 47
Ni 3.894417e+00 9.203754e+00 2.124359e+00 48
Ni 7.434760e+00 7.433722e+00 3.548214e-01 49
Ni 9.204529e+00 9.203471e+00 3.547254e-01 50
Ni 9.205296e+00 7.433261e+00 2.125498e+00 51
Ni 7.435103e+00 9.203208e+00 2.125103e+00 52
Ni 1.097392e+01 7.434082e+00 3.535543e-01 53
Ni 1.274400e+01 9.203982e+00 3.538117e-01 54
Ni 1.274400e+01 7.434601e+00 2.122585e+00 55
Ni 1.097474e+01 9.202704e+00 2.125498e+00 56
Ni 1.451408e+01 7.434082e+00 3.535543e-01 57
Ni 1.628347e+01 9.203471e+00 3.547254e-01 58
Ni 1.628271e+01 7.433261e+00 2.125498e+00 59
Ni 1.451326e+01 9.202704e+00 2.125498e+00 60
Ni 3.541576e-01 1.097390e+01 3.541313e-01 61
Ni 2.124299e+00 1.274376e+01 3.542364e-01 62
Ni 2.124243e+00 1.097382e+01 2.124184e+00 63
Ni 3.541576e-01 1.274387e+01 2.124099e+00 64
Ni 3.894455e+00 1.097368e+01 3.544094e-01 65
Ni 5.664474e+00 1.274353e+01 3.544735e-01 66
Ni 5.664714e+00 1.097340e+01 2.124598e+00 67
Ni 3.894455e+00 1.274359e+01 2.124316e+00 68
Ni 7.434598e+00 1.097340e+01 3.547142e-01 69
Ni 9.204364e+00 1.274334e+01 3.546645e-01 70
Ni 9.204792e+00 1.097290e+01 2.125103e+00 71
Ni 7.434598e+00 1.274329e+01 2.124598e+00 72
Ni 1.097428e+01 1.097324e+01 3.548214e-01 73
Ni 1.274400e+01 1.274310e+01 3.548956e-01 74
Ni 1.274400e+01 1.097218e+01 2.125819e+00 75
Ni 1.097428e+01 1.274318e+01 2.124760e+00 76
Ni 1.451372e+01 1.097324e+01 3.548214e-01 77
Ni 1.628364e+01 1.274334e+01 3.546645e-01 78
Ni 1.628321e+01 1.097290e+01 2.125103e+00 79
Ni 1.451372e+01 1.274318e+01 2.124760e+00 80
Ni 3.541933e-01 1.451383e+01 3.541340e-01 81
Ni 2.124226e+00 1.628377e+01 3.541611e-01 82
Ni 2.124292e+00 1.451373e+01 2.124168e+00 83
Ni 3.541860e-01 1.628382e+01 2.124092e+00 84
Ni 3.894336e+00 1.451366e+01 3.542816e-01 85
Ni 5.664236e+00 1.628370e+01 3.542364e-01 86
Ni 5.664410e+00 1.451355e+01 2.124316e+00 87
Ni 3.894272e+00 1.628371e+01 2.124168e+00 88
Ni 7.434316e+00 1.451355e+01 3.544094e-01 89
Ni 9.204123e+00 1.628373e+01 3.542429e-01 90
Ni 9.204246e+00 1.451358e+01 2.124359e+00 91
Ni 7.434185e+00 1.628376e+01 2.124184e+00 92
Ni 1.097412e+01 1.451351e+01 3.544653e-01 93
Ni 1.274400e+01 1.628383e+01 3.541750e-01 94
Ni 1.274400e+01 1.451388e+01 2.124172e+00 95
Ni 1.097402e+01 1.628397e+01 2.124078e+00 96
Ni 1.451388e+01 1.451351e+01 3.544653e-01 97
Ni 1.628388e+01 1.628373e+01 3.542429e-01 98
Ni 1.628375e+01 1.451358e+01 2.124359e+00 99
Ni 1.451398e+01 1.628397e+01 2.124078e+00 100
Ni 3.540222e-01 3.540455e-01 3.894031e+00 101
Ni 2.123976e+00 2.124039e+00 3.894039e+00 102
Ni 2.124031e+00 3.540774e-01 5.664025e+00 103
Ni 3.539516e-01 2.124010e+00 5.664007e+00 104
Ni 3.894417e+00 3.543590e-01 3.894245e+00 105
Ni 5.664725e+00 2.124529e+00 3.894529e+00 106
Ni 5.664821e+00 3.547597e-01 5.664278e+00 107
Ni 3.893896e+00 2.124034e+00 5.664011e+00 108
Ni 7.435103e+00 3.551026e-01 3.894791e+00 109
Ni 9.205854e+00 2.125854e+00 3.895855e+00 110
Ni 9.205296e+00 3.554977e-01 5.664739e+00 111
Ni 7.435498e+00 2.125295e+00 5.664739e+00 112
Ni 1.097474e+01 3.554977e-01 3.895295e+00 113
Ni 1.274400e+01 2.128278e+00 3.898278e+00 114
Ni 1.274400e+01 3.525853e-01 5.663399e+00 115
Ni 1.097643e+01 2.126888e+00 5.666434e+00 116
Ni 1.451326e+01 3.554977e-01 3.895295e+00 117
Ni 1.628214e+01 2.125854e+00 3.895855e+00 118
Ni 1.628271e+01 3.554977e-01 5.664739e+00 119
Ni 1.451157e+01 2.126888e+00 5.666434e+00 120
Ni 3.539516e-01 3.894007e+00 3.894010e+00 121
Ni 2.123924e+00 5.664000e+00 3.894017e+00 122
Ni 2.123893e+00 3.894007e+00 5.664008e+00 123
Ni 3.539191e-01 5.664000e+00 5.664001e+00 124
Ni 3.893896e+00 3.894012e+00 3.894034e+00 125
Ni 5.663812e+00 5.664000e+00 3.894018e+00 126
Ni 5.663555e+00 3.893917e+00 5.663918e+00 127
Ni 3.893814e+00 5.664000e+00 5.664002e+00 128
Ni 7.435498e+00 3.894739e+00 3.895295e+00 129
Ni 9.208278e+00 5.664000e+00 3.898278e+00 130
Ni 9.206887e+00 3.896434e+00 5.666434e+00 131
Ni 7.432585e+00 5.664000e+00 5.663399e+00 132
Ni 1.097643e+01 3.896434e+00 3.896888e+00 133
Ni 1.274400e+01 5.664000e+00 3.884877e+00 134
Ni 1.274400e+01 3.903810e+00 5.673810e+00 135
Ni 1.098381e+01 5.664000e+00 5.673810e+00 136
Ni 1.451157e+01 3.896434e+00 3.896888e+00 137
Ni 1.627972e+01 5.664000e+00 3.898278e+00 138
Ni 1.628111e+01 3.896434e+00 5.666434e+00 139
Ni 1.450419e+01 5.664000e+00 5.673810e+00 140
Ni 3.539516e-01 7.433993e+00 3.894010e+00 141
Ni 2.123976e+00 9.203961e+00 3.894039e+00 142
Ni 2.123893e+00 7.433992e+00 5.664008e+00 143
Ni 3.539516e-01 9.203990e+00 5.664007e+00 144
Ni 3.893896e+00 7.433989e+00 3.894034e+00 145
Ni 5.664725e+00 9.203471e+00 3.894529e+00 146
Ni 5.663555e+00 7.434082e+00 5.663918e+00 147
Ni 3.893896e+00 9.203966e+00 5.664011e+00 148
Ni 7.435498e+00 7.433261e+00 3.895295e+00 149
Ni 9.205854e+00 9.202146e+00 3.895855e+00 150
Ni 9.206887e+00 7.431566e+00 5.666434e+00 151
Ni 7.435498e+00 9.202704e+00 5.664739e+00 152
Ni 1.097643e+01 7.431566e+00 3.896888e+00 153
Ni 1.274400e+01 9.199722e+00 3.898278e+00 154
Ni 1.274400e+01 7.424190e+00 5.673810e+00 155
Ni 1.097643e+01 9.201113e+00 5.666434e+00 156
Ni 1.451157e+01 7.431566e+00 3.896888e+00 157
Ni 1.628214e+01 9.202146e+00 3.895855e+00 158
Ni 1.628111e+01 7.431566e+00 5.666434e+00 159
Ni 1.451157e+01 9.201113e+00 5.666434e+00 160
Ni 3.540222e-01 1.097395e+01 3.894031e+00 161
Ni 2.124268e+00 1.274376e+01 3.894124e+00 162
Ni 2.124031e+00 1.097392e+01 5.664025e+00 163
Ni 3.540716e-01 1.274392e+01 5.664020e+00 164
Ni 3.894417e+00 1.097364e+01 3.894245e+00 165
Ni 5.664664e+00 1.274334e+01 3.894364e+00 166
Ni 5.664821e+00 1.097324e+01 5.664278e+00 167
Ni 3.894490e+00 1.274354e+01 5.664122e+00 168
Ni 7.435103e+00 1.097290e+01 3.894791e+00 169
Ni 9.204529e+00 1.274327e+01 3.894529e+00 170
Ni 9.205296e+00 1.097250e+01 5.664739e+00 171
Ni 7.434760e+00 1.274318e+01 5.664278e+00 172
Ni 1.097474e+01 1.097250e+01 3.895295e+00 173
Ni 1.274400e+01 1.274419e+01 3.894018e+00 174
Ni 1.274400e+01 1.097542e+01 5.663399e+00 175
Ni 1.097392e+01 1.274445e+01 5.663918e+00 176
Ni 1.451326e+01 1.097250e+01 3.895295e+00 177
Ni 1.628347e+01 1.274327e+01 3.894529e+00 178
Ni 1.628271e+01 1.097250e+01 5.664739e+00 179
Ni 1.451408e+01 1.274445e+01 5.663918e+00 180
Ni 3.541790e-01 1.451384e+01 3.894066e+00 181
Ni 2.124260e+00 1.628374e+01 3.894091e+00 182
Ni 2.124307e+00 1.451371e+01 5.664059e+00 183
Ni 3.541947e-01 1.628381e+01 5.664031e+00 184
Ni 3.894412e+00 1.451359e+01 3.894178e+00 185
Ni 5.664243e+00 1.628373e+01 3.894124e+00 186
Ni 5.664466e+00 1.451351e+01 5.664122e+00 187
Ni 3.894293e+00 1.628369e+01 5.664059e+00 188
Ni 7.434359e+00 1.451358e+01 3.894245e+00 189
Ni 9.204039e+00 1.628402e+01 3.894039e+00 190
Ni 9.204034e+00 1.451410e+01 5.664011e+00 191
Ni 7.434077e+00 1.628397e+01 5.664025e+00 192
Ni 1.097401e+01 1.451410e+01 3.894034e+00 193
Ni 1.274400e+01 1.628408e+01 3.894017e+00 194
Ni 1.274400e+01 1.451419e+01 5.664002e+00 195
Ni 1.097401e+01 1.628411e+01 5.664008e+00 196
Ni 1.451399e+01 1.451410e+01 3.894034e+00 197
Ni 1.628396e+01 1.628402e+01 3.894039e+00 198
Ni 1.628397e+01 1.451410e+01 5.664011e+00 199
Ni 1.451399e+01 1.628411e+01 5.664008e+00 200
Ni 3.539906e-01 3.540265e-01 7.434000e+00 201
Ni 2.123924e+00 2.124017e+00 7.434000e+00 202
Ni 2.124031e+00 3.540774e-01 9.203975e+00 203
Ni 3.539516e-01 2.124010e+00 9.203993e+00 204
Ni 3.894122e+00 3.541721e-01 7.434000e+00 205
Ni 5.663812e+00 2.124017e+00 7.434000e+00 206
Ni 5.664821e+00 3.547597e-01 9.203722e+00 207
Ni 3.893896e+00 2.124034e+00 9.203988e+00 208
Ni 7.435819e+00 3.558191e-01 7.434000e+00 209
Ni 9.208278e+00 2.128278e+00 7.434000e+00 210
Ni 9.205296e+00 3.554977e-01 9.203260e+00 211
Ni 7.435498e+00 2.125295e+00 9.203260e+00 212
Ni 1.097340e+01 3.525853e-01 7.434000e+00 213
Ni 1.274400e+01 2.114876e+00 7.434000e+00 214
Ni 1.274400e+01 3.525853e-01 9.204601e+00 215
Ni 1.097643e+01 2.126888e+00 9.201566e+00 216
Ni 1.451460e+01 3.525853e-01 7.434000e+00 217
Ni 1.627972e+01 2.128278e+00 7.434000e+00 218
Ni 1.628271e+01 3.554977e-01 9.203260e+00 219
Ni 1.451157e+01 2.126888e+00 9.201566e+00 220
Ni 3.539191e-01 3.894000e+00 7.434000e+00 221
Ni 2.123866e+00 5.664000e+00 7.434000e+00 222
Ni 2.123893e+00 3.894007e+00 9.203992e+00 223
Ni 3.539191e-01 5.664000e+00 9.204000e+00 224
Ni 3.893814e+00 3.894002e+00 7.434000e+00 225
Ni 5.663677e+00 5.664000e+00 7.434000e+00 226
Ni 5.663555e+00 3.893917e+00 9.204083e+00 227
Ni 3.893814e+00 5.664000e+00 9.203998e+00 228
Ni 7.432585e+00 3.893400e+00 7.434000e+00 229
Ni 9.194876e+00 5.664000e+00 7.434000e+00 230
Ni 9.206887e+00 3.896434e+00 9.201566e+00 231
Ni 7.432585e+00 5.664000e+00 9.204601e+00 232
Ni 1.098381e+01 3.903810e+00 7.434000e+00 233
Ni 1.274400e+01 3.903810e+00 9.194190e+00 234
Ni 1.098381e+01 5.664000e+00 9.194190e+00 235
Ni 1.450419e+01 3.903810e+00 7.434000e+00 236
Ni 1.629312e+01 5.664000e+00 7.434000e+00 237
Ni 1.628111e+01 3.896434e+00 9.201566e+00 238
Ni 1.450419e+01 5.664000e+00 9.194190e+00 239
Ni 3.539191e-01 7.434000e+00 7.434000e+00 240
Ni 2.123924e+00 9.203982e+00 7.434000e+00 241
Ni 2.123893e+00 7.433992e+00 9.203992e+00 242
Ni 3.539516e-01 9.203990e+00 9.203993e+00 243
Ni 3.893814e+00 7.433998e+00 7.434000e+00 244
Ni 5.663812e+00 9.203982e+00 7.434000e+00 245
Ni 5.663555e+00 7.434082e+00 9.204083e+00 246
Ni 3.893896e+00 9.203966e+00 9.203988e+00 247
Ni 7.432585e+00 7.434601e+00 7.434000e+00 248
Ni 9.208278e+00 9.199722e+00 7.434000e+00 249
Ni 9.206887e+00 7.431566e+00 9.201566e+00 250
Ni 7.435498e+00 9.202704e+00 9.203260e+00 251
Ni 1.098381e+01 7.424190e+00 7.434000e+00 252
Ni 1.274400e+01 9.213124e+00 7.434000e+00 253
Ni 1.274400e+01 7.424190e+00 9.194190e+00 254
Ni 1.097643e+01 9.201113e+00 9.201566e+00 255
Ni 1.450419e+01 7.424190e+00 7.434000e+00 256
Ni 1.627972e+01 9.199722e+00 7.434000e+00 257
Ni 1.628111e+01 7.431566e+00 9.201566e+00 258
Ni 1.451157e+01 9.201113e+00 9.201566e+00 259
Ni 3.539906e-01 1.097397e+01 7.434000e+00 260
Ni 2.124170e+00 1.274382e+01 7.434000e+00 261
Ni 2.124031e+00 1.097392e+01 9.203975e+00 262
Ni 3.540716e-01 1.274392e+01 9.203981e+00 263
Ni 3.894122e+00 1.097383e+01 7.434000e+00 264
Ni 5.664896e+00 1.274310e+01 7.434000e+00 265
Ni 5.664821e+00 1.097324e+01 9.203722e+00 266
Ni 3.894490e+00 1.274354e+01 9.203878e+00 267
Ni 7.435819e+00 1.097218e+01 7.434000e+00 268
Ni 9.204018e+00 1.274419e+01 7.434000e+00 269
Ni 9.205296e+00 1.097250e+01 9.203260e+00 270
Ni 7.434760e+00 1.274318e+01 9.203722e+00 271
Ni 1.097340e+01 1.097542e+01 7.434000e+00 272
Ni 1.274400e+01 1.274432e+01 7.434000e+00 273
Ni 1.274400e+01 1.097542e+01 9.204601e+00 274
Ni 1.097392e+01 1.274445e+01 9.204083e+00 275
Ni 1.451460e+01 1.097542e+01 7.434000e+00 276
Ni 1.628398e+01 1.274419e+01 7.434000e+00 277
Ni 1.628271e+01 1.097250e+01 9.203260e+00 278
Ni 1.451408e+01 1.274445e+01 9.204083e+00 279
Ni 3.541463e-01 1.451386e+01 7.434000e+00 280
Ni 2.124289e+00 1.628371e+01 7.434000e+00 281
Ni 2.124307e+00 1.451371e+01 9.203941e+00 282
Ni 3.541947e-01 1.628381e+01 9.203969e+00 283
Ni 3.894492e+00 1.451351e+01 7.434000e+00 284
Ni 5.664175e+00 1.628383e+01 7.434000e+00 285
Ni 5.664466e+00 1.451351e+01 9.203878e+00 286
Ni 3.894293e+00 1.628369e+01 9.203941e+00 287
Ni 7.434172e+00 1.451388e+01 7.434000e+00 288
Ni 9.204018e+00 1.628408e+01 7.434000e+00 289
Ni 9.204034e+00 1.451410e+01 9.203988e+00 290
Ni 7.434077e+00 1.628397e+01 9.203975e+00 291
Ni 1.097400e+01 1.451419e+01 7.434000e+00 292
Ni 1.274400e+01 1.628413e+01 7.434000e+00 293
Ni 1.274400e+01 1.451419e+01 9.203998e+00 294
Ni 1.097401e+01 1.628411e+01 9.203992e+00 295
Ni 1.451400e+01 1.451419e+01 7.434000e+00 296
Ni 1.628398e+01 1.628408e+01 7.434000e+00 297
Ni 1.628397e+01 1.451410e+01 9.203988e+00 298
Ni 1.451399e+01 1.628411e+01 9.203992e+00 299
Ni 3.540222e-01 3.540455e-01 1.097397e+01 300
Ni 2.123976e+00 2.124039e+00 1.097396e+01 301
Ni 2.124243e+00 3.541843e-01 1.274382e+01 302
Ni 3.540222e-01 2.124031e+00 1.274396e+01 303
Ni 3.894417e+00 3.543590e-01 1.097376e+01 304
Ni 5.664725e+00 2.124529e+00 1.097347e+01 305
Ni 5.664714e+00 3.545980e-01 1.274340e+01 306
Ni 3.894417e+00 2.124245e+00 1.274364e+01 307
Ni 7.435103e+00 3.551026e-01 1.097321e+01 308
Ni 9.205854e+00 2.125854e+00 1.097215e+01 309
Ni 9.204792e+00 3.551026e-01 1.274290e+01 310
Ni 7.435103e+00 2.124792e+00 1.274290e+01 311
Ni 1.097474e+01 3.554977e-01 1.097270e+01 312
Ni 1.274400e+01 2.128278e+00 1.096972e+01 313
Ni 1.274400e+01 3.558191e-01 1.274218e+01 314
Ni 1.097474e+01 2.125295e+00 1.274250e+01 315
Ni 1.451326e+01 3.554977e-01 1.097270e+01 316
Ni 1.628214e+01 2.125854e+00 1.097215e+01 317
Ni 1.628321e+01 3.551026e-01 1.274290e+01 318
Ni 1.451326e+01 2.125295e+00 1.274250e+01 319
Ni 3.539516e-01 3.894007e+00 1.097399e+01 320
Ni 2.123924e+00 5.664000e+00 1.097398e+01 321
Ni 2.124031e+00 3.894025e+00 1.274392e+01 322
Ni 3.539906e-01 5.664000e+00 1.274397e+01 323
Ni 3.893896e+00 3.894012e+00 1.097397e+01 324
Ni 5.663812e+00 5.664000e+00 1.097398e+01 325
Ni 5.664821e+00 3.894279e+00 1.274324e+01 326
Ni 3.894122e+00 5.664000e+00 1.274383e+01 327
Ni 7.435498e+00 3.894739e+00 1.097270e+01 328
Ni 9.208278e+00 5.664000e+00 1.096972e+01 329
Ni 9.205296e+00 3.894739e+00 1.274250e+01 330
Ni 7.435819e+00 5.664000e+00 1.274218e+01 331
Ni 1.097643e+01 3.896434e+00 1.097111e+01 332
Ni 1.274400e+01 5.664000e+00 1.098312e+01 333
Ni 1.274400e+01 3.893400e+00 1.274541e+01 334
Ni 1.097340e+01 5.664000e+00 1.274541e+01 335
Ni 1.451157e+01 3.896434e+00 1.097111e+01 336
Ni 1.627972e+01 5.664000e+00 1.096972e+01 337
Ni 1.628271e+01 3.894739e+00 1.274250e+01 338
Ni 1.451460e+01 5.664000e+00 1.274541e+01 339
Ni 3.539516e-01 7.433993e+00 1.097399e+01 340
Ni 2.123976e+00 9.203961e+00 1.097396e+01 341
Ni 2.124031e+00 7.433975e+00 1.274392e+01 342
Ni 3.540222e-01 9.203969e+00 1.274396e+01 343
Ni 3.893896e+00 7.433989e+00 1.097397e+01 344
Ni 5.664725e+00 9.203471e+00 1.097347e+01 345
Ni 5.664821e+00 7.433722e+00 1.274324e+01 346
Ni 3.894417e+00 9.203754e+00 1.274364e+01 347
Ni 7.435498e+00 7.433261e+00 1.097270e+01 348
Ni 9.205854e+00 9.202146e+00 1.097215e+01 349
Ni 9.205296e+00 7.433261e+00 1.274250e+01 350
Ni 7.435103e+00 9.203208e+00 1.274290e+01 351
Ni 1.097643e+01 7.431566e+00 1.097111e+01 352
Ni 1.274400e+01 9.199722e+00 1.096972e+01 353
Ni 1.274400e+01 7.434601e+00 1.274541e+01 354
Ni 1.097474e+01 9.202704e+00 1.274250e+01 355
Ni 1.451157e+01 7.431566e+00 1.097111e+01 356
Ni 1.628214e+01 9.202146e+00 1.097215e+01 357
Ni 1.628271e+01 7.433261e+00 1.274250e+01 358
Ni 1.451326e+01 9.202704e+00 1.274250e+01 359
Ni 3.540222e-01 1.097395e+01 1.097397e+01 360
Ni 2.124268e+00 1.274376e+01 1.097388e+01 361
Ni 2.124243e+00 1.097382e+01 1.274382e+01 362
Ni 3.541576e-01 1.274387e+01 1.274390e+01 363
Ni 3.894417e+00 1.097364e+01 1.097376e+01 364
Ni 5.664664e+00 1.274334e+01 1.097364e+01 365
Ni 5.664714e+00 1.097340e+01 1.274340e+01 366
Ni 3.894455e+00 1.274359e+01 1.274368e+01 367
Ni 7.435103e+00 1.097290e+01 1.097321e+01 368
Ni 9.204529e+00 1.274327e+01 1.097347e+01 369
Ni 9.204792e+00 1.097290e+01 1.274290e+01 370
Ni 7.434598e+00 1.274329e+01 1.274340e+01 371
Ni 1.097474e+01 1.097250e+01 1.097270e+01 372
Ni 1.274400e+01 1.274419e+01 1.097398e+01 373
Ni 1.274400e+01 1.097218e+01 1.274218e+01 374
Ni 1.097428e+01 1.274318e+01 1.274324e+01 375
Ni 1.451326e+01 1.097250e+01 1.097270e+01 376
Ni 1.628347e+01 1.274327e+01 1.097347e+01 377
Ni 1.628321e+01 1.097290e+01 1.274290e+01 378
Ni 1.451372e+01 1.274318e+01 1.274324e+01 379
Ni 3.541790e-01 1.451384e+01 1.097393e+01 380
Ni 2.124260e+00 1.628374e+01 1.097391e+01 381
Ni 2.124292e+00 1.451373e+01 1.274383e+01 382
Ni 3.541860e-01 1.628382e+01 1.274391e+01 383
Ni 3.894412e+00 1.451359e+01 1.097382e+01 384
Ni 5.664243e+00 1.628373e+01 1.097388e+01 385
Ni 5.664410e+00 1.451355e+01 1.274368e+01 386
Ni 3.894272e+00 1.628371e+01 1.274383e+01 387
Ni 7.434359e+00 1.451358e+01 1.097376e+01 388
Ni 9.204039e+00 1.628402e+01 1.097396e+01 389
Ni 9.204246e+00 1.451358e+01 1.274364e+01 390
Ni 7.434185e+00 1.628376e+01 1.274382e+01 391
Ni 1.097401e+01 1.451410e+01 1.097397e+01 392
Ni 1.274400e+01 1.628408e+01 1.097398e+01 393
Ni 1.274400e+01 1.451388e+01 1.274383e+01 394
Ni 1.097402e+01 1.628397e+01 1.274392e+01 395
Ni 1.451399e+01 1.451410e+01 1.097397e+01 396
Ni 1.628396e+01 1.628402e+01 1.097396e+01 397
Ni 1.628375e+01 1.451358e+01 1.274364e+01 398
Ni 1.451398e+01 1.628397e+01 1.274392e+01 399
Ni 3.541576e-01 3.540994e-01 1.451387e+01 400
Ni 2.124268e+00 2.124124e+00 1.451376e+01 401
Ni 2.124292e+00 3.541679e-01 1.628373e+01 402
Ni 3.541790e-01 2.124066e+00 1.628384e+01 403
Ni 3.894455e+00 3.543159e-01 1.451359e+01 404
Ni 5.664664e+00 2.124364e+00 1.451334e+01 405
Ni 5.664410e+00 3.543159e-01 1.628355e+01 406
Ni 3.894412e+00 2.124178e+00 1.628359e+01 407
Ni 7.434598e+00 3.545980e-01 1.451329e+01 408
Ni 9.204529e+00 2.124529e+00 1.451328e+01 409
Ni 9.204246e+00 3.543590e-01 1.628358e+01 410
Ni 7.434359e+00 2.124245e+00 1.628358e+01 411
Ni 1.097428e+01 3.547597e-01 1.451318e+01 412
Ni 1.274400e+01 2.124017e+00 1.451419e+01 413
Ni 1.274400e+01 3.541721e-01 1.628388e+01 414
Ni 1.097401e+01 2.124034e+00 1.628410e+01 415
Ni 1.451372e+01 3.547597e-01 1.451318e+01 416
Ni 1.628347e+01 2.124529e+00 1.451328e+01 417
Ni 1.628375e+01 3.543590e-01 1.628358e+01 418
Ni 1.451399e+01 2.124034e+00 1.628410e+01 419
Ni 3.540716e-01 3.894020e+00 1.451392e+01 420
Ni 2.124170e+00 5.664000e+00 1.451383e+01 421
Ni 2.124307e+00 3.894059e+00 1.628371e+01 422
Ni 3.541463e-01 5.664000e+00 1.628386e+01 423
Ni 3.894490e+00 3.894123e+00 1.451353e+01 424
Ni 5.664896e+00 5.664000e+00 1.451310e+01 425
Ni 5.664466e+00 3.894123e+00 1.628351e+01 426
Ni 3.894492e+00 5.664000e+00 1.628351e+01 427
Ni 7.434760e+00 3.894279e+00 1.451318e+01 428
Ni 9.204018e+00 5.664000e+00 1.451419e+01 429
Ni 9.204034e+00 3.894012e+00 1.628410e+01 430
Ni 7.434172e+00 5.664000e+00 1.628388e+01 431
Ni 1.097392e+01 3.893917e+00 1.451445e+01 432
Ni 1.274400e+01 5.664000e+00 1.451432e+01 433
Ni 1.274400e+01 3.894002e+00 1.628419e+01 434
Ni 1.097400e+01 5.664000e+00 1.628419e+01 435
Ni 1.451408e+01 3.893917e+00 1.451445e+01 436
Ni 1.628398e+01 5.664000e+00 1.451419e+01 437
Ni 1.628397e+01 3.894012e+00 1.628410e+01 438
Ni 1.451400e+01 5.664000e+00 1.628419e+01 439
Ni 3.540716e-01 7.433980e+00 1.451392e+01 440
Ni 2.124268e+00 9.203876e+00 1.451376e+01 441
Ni 2.124307e+00 7.433941e+00 1.628371e+01 442
Ni 3.541790e-01 9.203934e+00 1.628384e+01 443
Ni 3.894490e+00 7.433878e+00 1.451353e+01 444
Ni 5.664664e+00 9.203636e+00 1.451334e+01 445
Ni 5.664466e+00 7.433878e+00 1.628351e+01 446
Ni 3.894412e+00 9.203823e+00 1.628359e+01 447
Ni 7.434760e+00 7.433722e+00 1.451318e+01 448
Ni 9.204529e+00 9.203471e+00 1.451328e+01 449
Ni 9.204034e+00 7.433989e+00 1.628410e+01 450
Ni 7.434359e+00 9.203754e+00 1.628358e+01 451
Ni 1.097392e+01 7.434082e+00 1.451445e+01 452
Ni 1.274400e+01 9.203982e+00 1.451419e+01 453
Ni 1.274400e+01 7.433998e+00 1.628419e+01 454
Ni 1.097401e+01 9.203966e+00 1.628410e+01 455
Ni 1.451408e+01 7.434082e+00 1.451445e+01 456
Ni 1.628347e+01 9.203471e+00 1.451328e+01 457
Ni 1.628397e+01 7.433989e+00 1.628410e+01 458
Ni 1.451399e+01 9.203966e+00 1.628410e+01 459
Ni 3.541576e-01 1.097390e+01 1.451387e+01 460
Ni 2.124299e+00 1.274376e+01 1.451376e+01 461
Ni 2.124292e+00 1.097383e+01 1.628373e+01 462
Ni 3.541933e-01 1.274387e+01 1.628383e+01 463
Ni 3.894455e+00 1.097368e+01 1.451359e+01 464
Ni 5.664474e+00 1.274353e+01 1.451353e+01 465
Ni 5.664410e+00 1.097368e+01 1.628355e+01 466
Ni 3.894336e+00 1.274372e+01 1.628366e+01 467
Ni 7.434598e+00 1.097340e+01 1.451329e+01 468
Ni 9.204364e+00 1.274334e+01 1.451334e+01 469
Ni 9.204246e+00 1.097364e+01 1.628358e+01 470
Ni 7.434316e+00 1.274359e+01 1.628355e+01 471
Ni 1.097428e+01 1.097324e+01 1.451318e+01 472
Ni 1.274400e+01 1.274310e+01 1.451310e+01 473
Ni 1.274400e+01 1.097383e+01 1.628388e+01 474
Ni 1.097412e+01 1.274354e+01 1.628351e+01 475
Ni 1.451372e+01 1.097324e+01 1.451318e+01 476
Ni 1.628364e+01 1.274334e+01 1.451334e+01 477
Ni 1.628375e+01 1.097364e+01 1.628358e+01 478
Ni 1.451388e+01 1.274354e+01 1.628351e+01 479
Ni 3.541933e-01 1.451383e+01 1.451387e+01 480
Ni 2.124226e+00 1.628377e+01 1.451384e+01 481
Ni 2.124243e+00 1.451378e+01 1.628378e+01 482
Ni 3.541627e-01 1.628385e+01 1.628387e+01 483
Ni 3.894336e+00 1.451366e+01 1.451372e+01 484
Ni 5.664236e+00 1.628370e+01 1.451376e+01 485
Ni 5.664281e+00 1.451366e+01 1.628366e+01 486
Ni 3.894216e+00 1.628376e+01 1.628378e+01 487
Ni 7.434316e+00 1.451355e+01 1.451359e+01 488
Ni 9.204123e+00 1.628373e+01 1.451376e+01 489
Ni 9.204177e+00 1.451359e+01 1.628359e+01 490
Ni 7.434168e+00 1.628371e+01 1.628373e+01 491
Ni 1.097412e+01 1.451351e+01 1.451353e+01 492
Ni 1.274400e+01 1.628383e+01 1.451383e+01 493
Ni 1.274400e+01 1.451351e+01 1.628351e+01 494
Ni 1.097406e+01 1.628369e+01 1.628371e+01 495
Ni 1.451388e+01 1.451351e+01 1.451353e+01 496
Ni 1.628388e+01 1.628373e+01 1.451376e+01 497
Ni 1.628382e+01 1.451359e+01 1.628359e+01 498
Ni 1.451394e+01 1.628369e+01 1.628371e+01 499
Ni 3.541860e-01 3.540916e-01 1.805382e+01 500
Ni 2.124260e+00 2.124091e+00 1.805374e+01 501
Ni 2.124176e+00 3.540916e-01 1.982381e+01 502
Ni 3.541607e-01 2.124050e+00 1.982384e+01 503
Ni 3.894272e+00 3.541679e-01 1.805371e+01 504
Ni 5.664243e+00 2.124124e+00 1.805373e+01 505
Ni 5.664131e+00 3.540994e-01 1.982384e+01 506
Ni 3.894163e+00 2.124066e+00 1.982382e+01 507
Ni 7.434185e+00 3.541843e-01 1.805376e+01 508
Ni 9.204039e+00 2.124039e+00 1.805402e+01 509
Ni 9.204031e+00 3.540455e-01 1.982398e+01 510
Ni 7.434045e+00 2.124031e+00 1.982398e+01 511
Ni 1.097402e+01 3.540774e-01 1.805397e+01 512
Ni 1.274400e+01 2.124017e+00 1.805408e+01 513
Ni 1.274400e+01 3.540265e-01 1.982401e+01 514
Ni 1.097401e+01 2.124010e+00 1.982405e+01 515
Ni 1.451398e+01 3.540774e-01 1.805397e+01 516
Ni 1.628396e+01 2.124039e+00 1.805402e+01 517
Ni 1.628397e+01 3.540455e-01 1.982398e+01 518
Ni 1.451399e+01 2.124010e+00 1.982405e+01 519
Ni 3.541947e-01 3.894031e+00 1.805382e+01 520
Ni 2.124289e+00 5.664000e+00 1.805371e+01 521
Ni 2.124185e+00 3.894031e+00 1.982380e+01 522
Ni 3.541724e-01 5.664000e+00 1.982383e+01 523
Ni 3.894293e+00 3.894059e+00 1.805369e+01 524
Ni 5.664175e+00 5.664000e+00 1.805383e+01 525
Ni 5.664079e+00 3.894020e+00 1.982393e+01 526
Ni 3.894138e+00 5.664000e+00 1.982385e+01 527
Ni 7.434077e+00 3.894025e+00 1.805397e+01 528
Ni 9.204018e+00 5.664000e+00 1.805408e+01 529
Ni 9.204010e+00 3.894007e+00 1.982405e+01 530
Ni 7.434026e+00 5.664000e+00 1.982401e+01 531
Ni 1.097401e+01 3.894007e+00 1.805411e+01 532
Ni 1.274400e+01 5.664000e+00 1.805413e+01 533
Ni 1.274400e+01 3.894000e+00 1.982408e+01 534
Ni 1.097400e+01 5.664000e+00 1.982408e+01 535
Ni 1.451399e+01 3.894007e+00 1.805411e+01 536
Ni 1.628398e+01 5.664000e+00 1.805408e+01 537
Ni 1.628399e+01 3.894007e+00 1.982405e+01 538
Ni 1.451400e+01 5.664000e+00 1.982408e+01 539
Ni 3.541947e-01 7.433969e+00 1.805382e+01 540
Ni 2.124260e+00 9.203909e+00 1.805374e+01 541
Ni 2.124185e+00 7.433969e+00 1.982380e+01 542
Ni 3.541607e-01 9.203950e+00 1.982384e+01 543
Ni 3.894293e+00 7.433941e+00 1.805369e+01 544
Ni 5.664243e+00 9.203876e+00 1.805373e+01 545
Ni 5.664079e+00 7.433980e+00 1.982393e+01 546
Ni 3.894163e+00 9.203934e+00 1.982382e+01 547
Ni 7.434077e+00 7.433975e+00 1.805397e+01 548
Ni 9.204039e+00 9.203961e+00 1.805402e+01 549
Ni 9.204010e+00 7.433993e+00 1.982405e+01 550
Ni 7.434045e+00 9.203969e+00 1.982398e+01 551
Ni 1.097401e+01 7.433992e+00 1.805411e+01 552
Ni 1.274400e+01 9.203982e+00 1.805408e+01 553
Ni 1.274400e+01 7.434000e+00 1.982408e+01 554
Ni 1.097401e+01 9.203990e+00 1.982405e+01 555
Ni 1.451399e+01 7.433992e+00 1.805411e+01 556
Ni 1.628396e+01 9.203961e+00 1.805402e+01 557
Ni 1.628399e+01 7.433993e+00 1.982405e+01 558
Ni 1.451399e+01 9.203990e+00 1.982405e+01 559
Ni 3.541860e-01 1.097391e+01 1.805382e+01 560
Ni 2.124226e+00 1.274384e+01 1.805377e+01 561
Ni 2.124176e+00 1.097391e+01 1.982381e+01 562
Ni 3.541444e-01 1.274391e+01 1.982385e+01 563
Ni 3.894272e+00 1.097383e+01 1.805371e+01 564
Ni 5.664236e+00 1.274376e+01 1.805370e+01 565
Ni 5.664131e+00 1.097390e+01 1.982384e+01 566
Ni 3.894165e+00 1.274387e+01 1.982381e+01 567
Ni 7.434185e+00 1.097382e+01 1.805376e+01 568
Ni 9.204123e+00 1.274376e+01 1.805373e+01 569
Ni 9.204031e+00 1.097395e+01 1.982398e+01 570
Ni 7.434099e+00 1.274387e+01 1.982384e+01 571
Ni 1.097402e+01 1.097392e+01 1.805397e+01 572
Ni 1.274400e+01 1.274382e+01 1.805383e+01 573
Ni 1.274400e+01 1.097397e+01 1.982401e+01 574
Ni 1.097402e+01 1.274392e+01 1.982393e+01 575
Ni 1.451398e+01 1.097392e+01 1.805397e+01 576
Ni 1.628388e+01 1.274376e+01 1.805373e+01 577
Ni 1.628397e+01 1.097395e+01 1.982398e+01 578
Ni 1.451398e+01 1.274392e+01 1.982393e+01 579
Ni 3.541627e-01 1.451387e+01 1.805385e+01 580
Ni 2.124167e+00 1.628383e+01 1.805383e+01 581
Ni 2.124152e+00 1.451387e+01 1.982384e+01 582
Ni 3.541160e-01 1.628389e+01 1.982388e+01 583
Ni 3.894216e+00 1.451378e+01 1.805376e+01 584
Ni 5.664161e+00 1.628377e+01 1.805377e+01 585
Ni 5.664134e+00 1.451383e+01 1.982381e+01 586
Ni 3.894131e+00 1.628385e+01 1.982384e+01 587
Ni 7.434168e+00 1.451373e+01 1.805371e+01 588
Ni 9.204091e+00 1.628374e+01 1.805374e+01 589
Ni 9.204066e+00 1.451384e+01 1.982382e+01 590
Ni 7.434092e+00 1.628382e+01 1.982381e+01 591
Ni 1.097406e+01 1.451371e+01 1.805369e+01 592
Ni 1.274400e+01 1.628371e+01 1.805371e+01 593
Ni 1.274400e+01 1.451386e+01 1.982385e+01 594
Ni 1.097403e+01 1.628381e+01 1.982380e+01 595
Ni 1.451394e+01 1.451371e+01 1.805369e+01 596
Ni 1.628391e+01 1.628374e+01 1.805374e+01 597
Ni 1.628394e+01 1.451384e+01 1.982382e+01 598
Ni 1.451397e+01 1.628381e+01 1.982380e+01 599
Ni 3.541104e-01 3.540552e-01 2.159389e+01 600
Ni 2.124107e+00 2.124038e+00 2.159388e+01 601
Ni 2.124066e+00 3.540384e-01 2.336395e+01 602
Ni 3.540726e-01 2.124027e+00 2.336394e+01 603
Ni 3.894091e+00 3.540565e-01 2.159390e+01 604
Ni 5.664040e+00 2.124022e+00 2.159396e+01 605
Ni 5.664025e+00 3.540204e-01 2.336398e+01 606
Ni 3.894035e+00 2.124017e+00 2.336397e+01 607
Ni 7.434029e+00 3.540285e-01 2.159397e+01 608
Ni 9.204006e+00 2.124006e+00 2.159402e+01 609
Ni 9.204004e+00 3.540035e-01 2.336400e+01 610
Ni 7.434003e+00 2.124004e+00 2.336400e+01 611
Ni 1.097401e+01 3.540091e-01 2.159401e+01 612
Ni 1.274400e+01 2.123998e+00 2.159404e+01 613
Ni 1.274400e+01 3.539959e-01 2.336401e+01 614
Ni 1.097400e+01 2.123995e+00 2.336402e+01 615
Ni 1.451399e+01 3.540091e-01 2.159401e+01 616
Ni 1.628399e+01 2.124006e+00 2.159402e+01 617
Ni 1.628400e+01 3.540035e-01 2.336400e+01 618
Ni 1.451400e+01 2.123995e+00 2.336402e+01 619
Ni 3.541141e-01 3.894018e+00 2.159388e+01 620
Ni 2.124097e+00 5.664000e+00 2.159389e+01 621
Ni 2.124051e+00 3.894010e+00 2.336395e+01 622
Ni 3.540678e-01 5.664000e+00 2.336395e+01 623
Ni 3.894065e+00 3.894013e+00 2.159393e+01 624
Ni 5.664027e+00 5.664000e+00 2.159398e+01 625
Ni 5.664008e+00 3.894004e+00 2.336399e+01 626
Ni 3.894025e+00 5.664000e+00 2.336398e+01 627
Ni 7.434009e+00 3.894005e+00 2.159401e+01 628
Ni 9.203998e+00 5.664000e+00 2.159404e+01 629
Ni 9.203995e+00 3.893998e+00 2.336402e+01 630
Ni 7.433996e+00 5.664000e+00 2.336401e+01 631
Ni 1.097400e+01 3.893998e+00 2.159405e+01 632
Ni 1.274400e+01 5.664000e+00 2.159406e+01 633
Ni 1.274400e+01 3.893996e+00 2.336403e+01 634
Ni 1.097400e+01 5.664000e+00 2.336403e+01 635
Ni 1.451400e+01 3.893998e+00 2.159405e+01 636
Ni 1.628400e+01 5.664000e+00 2.159404e+01 637
Ni 1.628400e+01 3.893998e+00 2.336402e+01 638
Ni 1.451400e+01 5.664000e+00 2.336403e+01 639
Ni 3.541141e-01 7.433982e+00 2.159388e+01 640
Ni 2.124107e+00 9.203962e+00 2.159388e+01 641
Ni 2.124051e+00 7.433990e+00 2.336395e+01 642
Ni 3.540726e-01 9.203973e+00 2.336394e+01 643
Ni 3.894065e+00 7.433987e+00 2.159393e+01 644
Ni 5.664040e+00 9.203978e+00 2.159396e+01 645
Ni 5.664008e+00 7.433996e+00 2.336399e+01 646
Ni 3.894035e+00 9.203983e+00 2.336397e+01 647
Ni 7.434009e+00 7.433995e+00 2.159401e+01 648
Ni 9.204006e+00 9.203994e+00 2.159402e+01 649
Ni 9.203995e+00 7.434002e+00 2.336402e+01 650
Ni 7.434003e+00 9.203996e+00 2.336400e+01 651