ITEM: TIMESTEP
0
ITEM: NUMBER OF ATOMS
12
ITEM: BOX BOUNDS xy xz yz pp pp pp
                     0.00000000000000e+00 3.54000015000000e+01 0.00000000000000e+00
0.00000000000000e+00	3.54000015000000e+01	0.00000000000000e+00
0.00000000000000e+00	3.54000015000000e+01	0.00000000000000e+00
ITEM: ATOMS id type x y z DisplacementX DisplacementY DisplacementZ
135 1 1.274e+01 3.904e+00 5.674e+00 -5.000e-01 1.500e+00 1.500e+00
136 1 1.098e+01 5.664e+00 5.674e+00 1.500e+00 -5.000e-01 1.500e+00
140 1 1.450e+01 5.664e+00 5.674e+00 -2.000e+00 -5.000e-01 1.500e+00
155 1 1.274e+01 7.424e+00 5.674e+00 -5.000e-01 -2.000e+00 1.500e+00
233 1 1.098e+01 3.904e+00 7.434e+00 1.500e+00 1.500e+00 -5.000e-01
234 1 1.274e+01 3.904e+00 9.194e+00 -5.000e-01 1.500e+00 -2.000e+00
235 1 1.098e+01 5.664e+00 9.194e+00 1.500e+00 -5.000e-01 -2.000e+00
236 1 1.450e+01 3.904e+00 7.434e+00 -2.000e+00 1.500e+00 -5.000e-01
239 1 1.450e+01 5.664e+00 9.194e+00 -2.000e+00 -5.000e-01 -2.000e+00
252 1 1.098e+01 7.424e+00 7.434e+00 1.500e+00 -2.000e+00 -5.000e-01
254 1 1.274e+01 7.424e+00 9.194e+00 -5.000e-01 -2.000e+00 -2.000e+00
256 1 1.450e+01 7.424e+00 7.434e+00 -2.000e+00 -2.000e+00 -5.000e-01
