ITEM: TIMESTEP
0
ITEM: NUMBER OF ATOMS
12
ITEM: BOX BOUNDS xy xz yz pp pp pp
                     0.00000000000000e+00 3.10513001000000e+01 0.00000000000000e+00
0.00000000000000e+00	3.10513001000000e+01	0.00000000000000e+00
0.00000000000000e+00	3.10513001000000e+01	0.00000000000000e+00
ITEM: ATOMS id type x y z DisplacementX DisplacementY DisplacementZ
2623 1 2.662e+01 2.665e+01 1.803e+01 2.108e-02 1.567e+00 1.600e+00
2625 1 2.492e+01 2.664e+01 1.972e+01 1.521e+00 1.505e+00 -1.847e-01
2629 1 2.831e+01 2.665e+01 1.972e+01 -1.541e+00 1.609e+00 5.512e-02
2640 1 2.493e+01 2.834e+01 1.804e+01 1.645e+00 1.019e-01 1.718e+00
2641 1 2.662e+01 3.004e+01 1.803e+01 8.404e-03 -1.589e+00 1.673e+00
2642 1 2.493e+01 3.004e+01 1.972e+01 1.487e+00 -1.375e+00 1.895e-02
2643 1 2.831e+01 2.835e+01 1.804e+01 -1.629e+00 -3.129e-01 1.575e+00
2646 1 2.831e+01 3.004e+01 1.972e+01 -1.438e+00 -1.170e+00 4.484e-02
2703 1 2.662e+01 2.665e+01 2.141e+01 -7.743e-03 1.385e+00 -1.592e+00
2720 1 2.493e+01 2.834e+01 2.141e+01 1.750e+00 3.094e-01 -1.699e+00
2721 1 2.662e+01 3.004e+01 2.141e+01 -4.928e-02 -1.245e+00 -1.470e+00
2724 1 2.831e+01 2.835e+01 2.141e+01 -1.667e+00 4.013e-02 -1.725e+00
ITEM: TIMESTEP
1
ITEM: NUMBER OF ATOMS
12
ITEM: BOX BOUNDS xy xz yz pp pp pp
                     0.00000000000000e+00 3.10513001000000e+01 0.00000000000000e+00
0.00000000000000e+00	3.10513001000000e+01	0.00000000000000e+00
0.00000000000000e+00	3.10513001000000e+01	0.00000000000000e+00
ITEM: ATOMS id type x y z DisplacementX DisplacementY DisplacementZ
2623 1 2.665e+01 2.662e+01 1.803e+01 1.633e+00 2.195e-02 1.737e+00
2624 1 2.664e+01 2.492e+01 1.972e+01 1.559e+00 1.433e+00 -1.553e-01
2626 1 2.834e+01 2.493e+01 1.804e+01 4.224e-02 1.517e+00 1.660e+00
2627 1 3.004e+01 2.662e+01 1.803e+01 -1.567e+00 -3.913e-01 1.555e+00
2628 1 3.004e+01 2.493e+01 1.972e+01 -1.533e+00 1.534e+00 4.523e-02
2629 1 2.665e+01 2.831e+01 1.972e+01 1.507e+00 -1.388e+00 5.217e-02
2643 1 2.835e+01 2.831e+01 1.804e+01 2.672e-02 -1.644e+00 1.740e+00
2645 1 3.004e+01 2.831e+01 1.972e+01 -1.427e+00 -1.194e+00 6.832e-02
2703 1 2.665e+01 2.662e+01 2.141e+01 1.745e+00 2.354e-01 -1.598e+00
2706 1 2.834e+01 2.493e+01 2.141e+01 1.288e-02 1.342e+00 -1.604e+00
2707 1 3.004e+01 2.662e+01 2.141e+01 -1.606e+00 -4.385e-02 -1.676e+00
2724 1 2.835e+01 2.831e+01 2.141e+01 -3.924e-02 -1.295e+00 -1.481e+00
