ITEM: TIMESTEP
0
ITEM: NUMBER OF ATOMS
12
ITEM: BOX BOUNDS xy xz yz pp pp pp
                     0.00000000000000e+00 3.10513001000000e+01 0.00000000000000e+00
0.00000000000000e+00	3.10513001000000e+01	0.00000000000000e+00
0.00000000000000e+00	3.10513001000000e+01	0.00000000000000e+00
ITEM: ATOMS id type x y z DisplacementX DisplacementY DisplacementZ
2623 1 2.662e+01 2.665e+01 1.803e+01 2.108e-02 1.567e+00 1.600e+00
2625 1 2.492e+01 2.664e+01 1.972e+01 1.521e+00 1.505e+00 -1.847e-01
2629 1 2.831e+01 2.665e+01 1.972e+01 -1.541e+00 1.609e+00 5.512e-02
2640 1 2.493e+01 2.834e+01 1.804e+01 1.645e+00 1.019e-01 1.718e+00
2641 1 2.662e+01 3.004e+01 1.803e+01 8.404e-03 -1.589e+00 1.673e+00
2642 1 2.493e+01 3.004e+01 1.972e+01 1.487e+00 -1.375e+00 1.895e-02
2643 1 2.831e+01 2.835e+01 1.804e+01 -1.629e+00 -3.129e-01 1.575e+00
2646 1 2.831e+01 3.004e+01 1.972e+01 -1.438e+00 -1.170e+00 4.484e-02
2703 1 2.662e+01 2.665e+01 2.141e+01 -7.743e-03 1.385e+00 -1.592e+00
2720 1 2.493e+01 2.834e+01 2.141e+01 1.750e+00 3.094e-01 -1.699e+00
2721 1 2.662e+01 3.004e+01 2.141e+01 -4.928e-02 -1.245e+00 -1.470e+00
2724 1 2.831e+01 2.835e+01 2.141e+01 -1.667e+00 4.013e-02 -1.725e+00
ITEM: TIMESTEP
1
ITEM: NUMBER OF ATOMS
12
ITEM: BOX BOUNDS xy xz yz pp pp pp
                     0.00000000000000e+00 3.10513001000000e+01 0.00000000000000e+00
0.00000000000000e+00	3.10513001000000e+01	0.00000000000000e+00
0.00000000000000e+00	3.10513001000000e+01	0.00000000000000e+00
ITEM: ATOMS id type x y z DisplacementX DisplacementY DisplacementZ
2625 1 2.489e+01 2.665e+01 1.975e+01 1.867e-02 1.573e+00 1.564e+00
2638 1 2.321e+01 2.834e+01 1.976e+01 1.646e+00 1.453e-01 1.714e+00
2642 1 2.490e+01 3.004e+01 1.976e+01 3.717e-03 -1.556e+00 1.650e+00
2699 1 2.320e+01 2.664e+01 2.144e+01 1.506e+00 1.554e+00 -1.663e-01
2703 1 2.658e+01 2.665e+01 2.144e+01 -1.554e+00 1.652e+00 6.649e-02
2705 1 2.489e+01 2.665e+01 2.313e+01 -2.912e-02 1.407e+00 -1.589e+00
2717 1 2.321e+01 3.004e+01 2.145e+01 1.488e+00 -1.375e+00 1.377e-02
2718 1 2.321e+01 2.834e+01 2.313e+01 1.756e+00 3.287e-01 -1.723e+00
2720 1 2.658e+01 2.834e+01 1.976e+01 -1.657e+00 -2.692e-01 1.601e+00
2721 1 2.659e+01 3.004e+01 2.145e+01 -1.443e+00 -1.158e+00 4.370e-02
2722 1 2.658e+01 2.835e+01 2.313e+01 -1.692e+00 6.621e-02 -1.740e+00
2723 1 2.490e+01 3.004e+01 2.314e+01 -5.070e-02 -1.222e+00 -1.447e+00
ITEM: TIMESTEP
2
ITEM: NUMBER OF ATOMS
12
ITEM: BOX BOUNDS xy xz yz pp pp pp
                     0.00000000000000e+00 3.10513001000000e+01 0.00000000000000e+00
0.00000000000000e+00	3.10513001000000e+01	0.00000000000000e+00
0.00000000000000e+00	3.10513001000000e+01	0.00000000000000e+00
ITEM: ATOMS id type x y z DisplacementX DisplacementY DisplacementZ
2624 1 2.661e+01 2.492e+01 1.976e+01 6.043e-02 1.531e+00 1.657e+00
2625 1 2.492e+01 2.661e+01 1.976e+01 1.632e+00 9.345e-02 1.735e+00
2629 1 2.831e+01 2.662e+01 1.976e+01 -1.588e+00 -3.497e-01 1.607e+00
2702 1 2.492e+01 2.492e+01 2.144e+01 1.539e+00 1.468e+00 -1.168e-01
2703 1 2.493e+01 2.831e+01 2.144e+01 1.501e+00 -1.374e+00 4.697e-02
2704 1 2.661e+01 2.493e+01 2.313e+01 5.732e-03 1.369e+00 -1.585e+00
2705 1 2.493e+01 2.661e+01 2.313e+01 1.753e+00 2.794e-01 -1.622e+00
2706 1 2.831e+01 2.493e+01 2.144e+01 -1.533e+00 1.576e+00 7.238e-02
2709 1 2.831e+01 2.662e+01 2.313e+01 -1.623e+00 -2.537e-02 -1.689e+00
2720 1 2.662e+01 2.831e+01 1.976e+01 2.477e-02 -1.607e+00 1.720e+00
2722 1 2.662e+01 2.831e+01 2.313e+01 -4.407e-02 -1.264e+00 -1.451e+00
2724 1 2.831e+01 2.831e+01 2.145e+01 -1.422e+00 -1.182e+00 6.869e-02
ITEM: TIMESTEP
3
ITEM: NUMBER OF ATOMS
12
ITEM: BOX BOUNDS xy xz yz pp pp pp
                     0.00000000000000e+00 3.10513001000000e+01 0.00000000000000e+00
0.00000000000000e+00	3.10513001000000e+01	0.00000000000000e+00
0.00000000000000e+00	3.10513001000000e+01	0.00000000000000e+00
ITEM: ATOMS id type x y z DisplacementX DisplacementY DisplacementZ
2605 1 2.661e+01 2.320e+01 1.803e+01 1.053e-01 1.518e+00 1.728e+00
2607 1 2.491e+01 2.319e+01 1.971e+01 1.559e+00 1.382e+00 -7.273e-02
2611 1 2.831e+01 2.320e+01 1.972e+01 -1.492e+00 1.526e+00 7.256e-02
2622 1 2.492e+01 2.488e+01 1.803e+01 1.648e+00 7.438e-02 1.765e+00
2623 1 2.662e+01 2.658e+01 1.804e+01 4.322e-02 -1.651e+00 1.772e+00
2624 1 2.662e+01 2.658e+01 2.141e+01 -3.799e-02 -1.295e+00 -1.449e+00
2625 1 2.492e+01 2.658e+01 1.972e+01 1.507e+00 -1.345e+00 7.764e-02
2626 1 2.831e+01 2.489e+01 1.803e+01 -1.537e+00 -4.004e-01 1.614e+00
2629 1 2.831e+01 2.659e+01 1.972e+01 -1.378e+00 -1.202e+00 8.635e-02
2685 1 2.661e+01 2.320e+01 2.140e+01 5.187e-02 1.361e+00 -1.573e+00
2702 1 2.492e+01 2.488e+01 2.140e+01 1.763e+00 2.758e-01 -1.532e+00
2706 1 2.831e+01 2.489e+01 2.141e+01 -1.565e+00 -9.329e-02 -1.664e+00
ITEM: TIMESTEP
4
ITEM: NUMBER OF ATOMS
12
ITEM: BOX BOUNDS xy xz yz pp pp pp
                     0.00000000000000e+00 3.10513001000000e+01 0.00000000000000e+00
0.00000000000000e+00	3.10513001000000e+01	0.00000000000000e+00
0.00000000000000e+00	3.10513001000000e+01	0.00000000000000e+00
ITEM: ATOMS id type x y z DisplacementX DisplacementY DisplacementZ
2556 1 2.661e+01 2.492e+01 1.631e+01 5.483e-02 1.564e+00 1.667e+00
2557 1 2.492e+01 2.661e+01 1.631e+01 1.654e+00 1.081e-01 1.734e+00
2559 1 2.831e+01 2.662e+01 1.631e+01 -1.594e+00 -3.521e-01 1.591e+00
2565 1 2.662e+01 2.831e+01 1.631e+01 2.404e-02 -1.617e+00 1.705e+00
2622 1 2.491e+01 2.491e+01 1.799e+01 1.521e+00 1.445e+00 -1.561e-01
2623 1 2.661e+01 2.492e+01 1.968e+01 3.331e-02 1.378e+00 -1.577e+00
2625 1 2.492e+01 2.661e+01 1.968e+01 1.753e+00 3.206e-01 -1.645e+00
2626 1 2.831e+01 2.493e+01 1.800e+01 -1.509e+00 1.567e+00 6.680e-02
2629 1 2.831e+01 2.662e+01 1.968e+01 -1.624e+00 -1.738e-02 -1.703e+00
2640 1 2.493e+01 2.831e+01 1.800e+01 1.492e+00 -1.348e+00 3.320e-02
2643 1 2.831e+01 2.831e+01 1.800e+01 -1.402e+00 -1.183e+00 6.256e-02
2720 1 2.662e+01 2.831e+01 1.968e+01 -4.281e-02 -1.260e+00 -1.461e+00
ITEM: TIMESTEP
5
ITEM: NUMBER OF ATOMS
12
ITEM: BOX BOUNDS xy xz yz pp pp pp
                     0.00000000000000e+00 3.10513001000000e+01 0.00000000000000e+00
0.00000000000000e+00	3.10513001000000e+01	0.00000000000000e+00
0.00000000000000e+00	3.10513001000000e+01	0.00000000000000e+00
ITEM: ATOMS id type x y z DisplacementX DisplacementY DisplacementZ
2557 1 2.489e+01 2.665e+01 1.631e+01 1.261e-02 1.625e+00 1.556e+00
2563 1 2.321e+01 2.834e+01 1.631e+01 1.668e+00 1.444e-01 1.700e+00
2565 1 2.658e+01 2.834e+01 1.631e+01 -1.663e+00 -2.734e-01 1.584e+00
2566 1 2.490e+01 3.004e+01 1.631e+01 1.085e-02 -1.565e+00 1.631e+00
2619 1 2.319e+01 2.664e+01 1.799e+01 1.501e+00 1.544e+00 -2.244e-01
2625 1 2.489e+01 2.665e+01 1.968e+01 -1.066e-02 1.420e+00 -1.588e+00
2637 1 2.321e+01 3.004e+01 1.800e+01 1.487e+00 -1.372e+00 2.018e-03
2638 1 2.321e+01 2.834e+01 1.968e+01 1.763e+00 3.610e-01 -1.757e+00
2640 1 2.658e+01 2.665e+01 1.800e+01 -1.536e+00 1.660e+00 5.491e-02
2641 1 2.659e+01 3.004e+01 1.800e+01 -1.429e+00 -1.157e+00 3.518e-02
2642 1 2.490e+01 3.004e+01 1.969e+01 -4.890e-02 -1.212e+00 -1.453e+00
2720 1 2.658e+01 2.834e+01 1.968e+01 -1.700e+00 9.309e-02 -1.757e+00
ITEM: TIMESTEP
6
ITEM: NUMBER OF ATOMS
12
ITEM: BOX BOUNDS xy xz yz pp pp pp
                     0.00000000000000e+00 3.10513001000000e+01 0.00000000000000e+00
0.00000000000000e+00	3.10513001000000e+01	0.00000000000000e+00
0.00000000000000e+00	3.10513001000000e+01	0.00000000000000e+00
ITEM: ATOMS id type x y z DisplacementX DisplacementY DisplacementZ
2554 1 2.316e+01 2.491e+01 1.631e+01 4.443e-02 1.724e+00 1.571e+00
2555 1 2.148e+01 2.661e+01 1.631e+01 1.692e+00 2.991e-01 1.700e+00
2557 1 2.485e+01 2.661e+01 1.631e+01 -1.702e+00 -2.178e-01 1.640e+00
2563 1 2.317e+01 2.831e+01 1.631e+01 1.962e-02 -1.538e+00 1.610e+00
2618 1 2.146e+01 2.490e+01 1.799e+01 1.443e+00 1.606e+00 -1.984e-01
2619 1 2.486e+01 2.831e+01 1.800e+01 -1.389e+00 -1.137e+00 3.621e-02
2620 1 2.316e+01 2.491e+01 1.967e+01 2.027e-03 1.499e+00 -1.561e+00
2621 1 2.148e+01 2.661e+01 1.967e+01 1.782e+00 4.867e-01 -1.802e+00
2622 1 2.485e+01 2.492e+01 1.799e+01 -1.496e+00 1.703e+00 1.004e-01
2625 1 2.485e+01 2.661e+01 1.968e+01 -1.727e+00 1.283e-01 -1.779e+00
2636 1 2.148e+01 2.831e+01 1.800e+01 1.469e+00 -1.320e+00 -9.214e-04
2638 1 2.317e+01 2.831e+01 1.968e+01 -4.851e-02 -1.178e+00 -1.427e+00
ITEM: TIMESTEP
7
ITEM: NUMBER OF ATOMS
12
ITEM: BOX BOUNDS xy xz yz pp pp pp
                     0.00000000000000e+00 3.10513001000000e+01 0.00000000000000e+00
0.00000000000000e+00	3.10513001000000e+01	0.00000000000000e+00
0.00000000000000e+00	3.10513001000000e+01	0.00000000000000e+00
ITEM: ATOMS id type x y z DisplacementX DisplacementY DisplacementZ
2548 1 2.488e+01 2.319e+01 1.631e+01 1.339e-01 1.604e+00 1.758e+00
2554 1 2.319e+01 2.488e+01 1.631e+01 1.678e+00 2.481e-01 1.765e+00
2556 1 2.658e+01 2.489e+01 1.631e+01 -1.591e+00 -3.330e-01 1.661e+00
2557 1 2.489e+01 2.658e+01 1.631e+01 3.458e-02 -1.611e+00 1.718e+00
2601 1 2.317e+01 2.317e+01 1.799e+01 1.485e+00 1.418e+00 -4.925e-02
2605 1 2.658e+01 2.320e+01 1.799e+01 -1.439e+00 1.558e+00 1.172e-01
2607 1 2.488e+01 2.319e+01 1.967e+01 8.429e-02 1.431e+00 -1.521e+00
2620 1 2.319e+01 2.488e+01 1.967e+01 1.772e+00 4.262e-01 -1.623e+00
2622 1 2.320e+01 2.658e+01 1.799e+01 1.471e+00 -1.266e+00 4.867e-02
2623 1 2.658e+01 2.489e+01 1.968e+01 -1.607e+00 -3.957e-02 -1.705e+00
2625 1 2.489e+01 2.658e+01 1.968e+01 -4.510e-02 -1.246e+00 -1.433e+00
2640 1 2.659e+01 2.659e+01 1.800e+01 -1.342e+00 -1.173e+00 7.369e-02
ITEM: TIMESTEP
8
ITEM: NUMBER OF ATOMS
12
ITEM: BOX BOUNDS xy xz yz pp pp pp
                     0.00000000000000e+00 3.10513001000000e+01 0.00000000000000e+00
0.00000000000000e+00	3.10513001000000e+01	0.00000000000000e+00
0.00000000000000e+00	3.10513001000000e+01	0.00000000000000e+00
ITEM: ATOMS id type x y z DisplacementX DisplacementY DisplacementZ
2619 1 2.489e+01 2.831e+01 1.803e+01 1.950e-02 -1.572e+00 1.672e+00
2620 1 2.319e+01 2.491e+01 1.971e+01 1.488e+00 1.501e+00 -1.283e-01
2622 1 2.320e+01 2.661e+01 1.803e+01 1.658e+00 1.966e-01 1.722e+00
2623 1 2.658e+01 2.492e+01 1.972e+01 -1.510e+00 1.620e+00 9.769e-02
2624 1 2.658e+01 2.662e+01 2.141e+01 -1.663e+00 2.728e-02 -1.725e+00
2625 1 2.488e+01 2.492e+01 1.803e+01 6.223e-02 1.593e+00 1.642e+00
2638 1 2.320e+01 2.831e+01 1.972e+01 1.482e+00 -1.335e+00 2.564e-02
2640 1 2.658e+01 2.662e+01 1.804e+01 -1.638e+00 -2.911e-01 1.639e+00
2699 1 2.320e+01 2.661e+01 2.140e+01 1.764e+00 3.794e-01 -1.692e+00
2702 1 2.488e+01 2.492e+01 2.140e+01 1.357e-02 1.421e+00 -1.560e+00
2703 1 2.489e+01 2.831e+01 2.141e+01 -4.683e-02 -1.222e+00 -1.430e+00
2720 1 2.659e+01 2.831e+01 1.972e+01 -1.401e+00 -1.161e+00 5.797e-02
ITEM: TIMESTEP
9
ITEM: NUMBER OF ATOMS
12
ITEM: BOX BOUNDS xy xz yz pp pp pp
                     0.00000000000000e+00 3.10513001000000e+01 0.00000000000000e+00
0.00000000000000e+00	3.10513001000000e+01	0.00000000000000e+00
0.00000000000000e+00	3.10513001000000e+01	0.00000000000000e+00
ITEM: ATOMS id type x y z DisplacementX DisplacementY DisplacementZ
2601 1 2.315e+01 2.318e+01 1.803e+01 1.306e-01 1.674e+00 1.724e+00
2603 1 2.145e+01 2.317e+01 1.970e+01 1.464e+00 1.513e+00 -3.823e-02
2607 1 2.485e+01 2.319e+01 1.971e+01 -1.466e+00 1.629e+00 1.766e-01
2618 1 2.147e+01 2.488e+01 1.803e+01 1.679e+00 4.070e-01 1.727e+00
2620 1 2.486e+01 2.659e+01 1.972e+01 -1.358e+00 -1.133e+00 6.385e-02
2621 1 2.147e+01 2.658e+01 1.972e+01 1.453e+00 -1.261e+00 3.391e-02
2622 1 2.316e+01 2.658e+01 1.803e+01 2.442e-02 -1.531e+00 1.661e+00
2625 1 2.485e+01 2.488e+01 1.803e+01 -1.674e+00 -2.270e-01 1.735e+00
2681 1 2.315e+01 2.319e+01 2.139e+01 2.820e-02 1.465e+00 -1.510e+00
2698 1 2.147e+01 2.488e+01 2.139e+01 1.780e+00 4.900e-01 -1.701e+00
2699 1 2.316e+01 2.658e+01 2.141e+01 -5.320e-02 -1.187e+00 -1.391e+00
2702 1 2.485e+01 2.489e+01 2.140e+01 -1.679e+00 2.808e-02 -1.734e+00
ITEM: TIMESTEP
10
ITEM: NUMBER OF ATOMS
12
ITEM: BOX BOUNDS xy xz yz pp pp pp
                     0.00000000000000e+00 3.10513001000000e+01 0.00000000000000e+00
0.00000000000000e+00	3.10513001000000e+01	0.00000000000000e+00
0.00000000000000e+00	3.10513001000000e+01	0.00000000000000e+00
ITEM: ATOMS id type x y z DisplacementX DisplacementY DisplacementZ
2597 1 1.974e+01 2.314e+01 1.802e+01 1.767e+00 9.077e-01 1.708e+00
2598 1 1.972e+01 2.143e+01 1.969e+01 1.494e+00 2.016e+00 3.090e-01
2600 1 2.140e+01 2.143e+01 1.801e+01 1.849e-01 1.729e+00 1.794e+00
2601 1 2.311e+01 2.315e+01 1.803e+01 -1.762e+00 -8.067e-02 1.924e+00
2602 1 2.311e+01 2.145e+01 1.970e+01 -1.443e+00 1.706e+00 3.661e-01
2603 1 2.313e+01 2.486e+01 1.971e+01 -1.329e+00 -1.082e+00 6.584e-02
2616 1 1.975e+01 2.485e+01 1.971e+01 1.422e+00 -1.191e+00 4.188e-02
2618 1 2.143e+01 2.485e+01 1.803e+01 3.153e-02 -1.415e+00 1.615e+00
2677 1 1.975e+01 2.315e+01 2.138e+01 1.794e+00 6.379e-01 -1.630e+00
2680 1 2.142e+01 2.145e+01 2.138e+01 -7.577e-03 1.429e+00 -1.516e+00
2681 1 2.312e+01 2.315e+01 2.139e+01 -1.726e+00 3.448e-02 -1.746e+00
2698 1 2.144e+01 2.485e+01 2.140e+01 -6.144e-02 -1.111e+00 -1.324e+00
ITEM: TIMESTEP
11
ITEM: NUMBER OF ATOMS
12
ITEM: BOX BOUNDS xy xz yz pp pp pp
                     0.00000000000000e+00 3.10513001000000e+01 0.00000000000000e+00
0.00000000000000e+00	3.10513001000000e+01	0.00000000000000e+00
0.00000000000000e+00	3.10513001000000e+01	0.00000000000000e+00
ITEM: ATOMS id type x y z DisplacementX DisplacementY DisplacementZ
2601 1 2.315e+01 2.318e+01 1.803e+01 1.306e-01 1.673e+00 1.724e+00
2603 1 2.145e+01 2.317e+01 1.970e+01 1.464e+00 1.513e+00 -3.818e-02
2607 1 2.485e+01 2.319e+01 1.971e+01 -1.466e+00 1.629e+00 1.765e-01
2618 1 2.147e+01 2.488e+01 1.803e+01 1.679e+00 4.071e-01 1.727e+00
2620 1 2.486e+01 2.659e+01 1.972e+01 -1.358e+00 -1.133e+00 6.385e-02
2621 1 2.147e+01 2.658e+01 1.972e+01 1.453e+00 -1.261e+00 3.392e-02
2622 1 2.316e+01 2.658e+01 1.803e+01 2.440e-02 -1.531e+00 1.661e+00
2625 1 2.485e+01 2.488e+01 1.803e+01 -1.674e+00 -2.269e-01 1.735e+00
2681 1 2.315e+01 2.319e+01 2.139e+01 2.825e-02 1.465e+00 -1.510e+00
2698 1 2.147e+01 2.488e+01 2.139e+01 1.780e+00 4.900e-01 -1.701e+00
2699 1 2.316e+01 2.658e+01 2.141e+01 -5.316e-02 -1.187e+00 -1.391e+00
2702 1 2.485e+01 2.489e+01 2.140e+01 -1.679e+00 2.803e-02 -1.734e+00
ITEM: TIMESTEP
12
ITEM: NUMBER OF ATOMS
12
ITEM: BOX BOUNDS xy xz yz pp pp pp
                     0.00000000000000e+00 3.10513001000000e+01 0.00000000000000e+00
0.00000000000000e+00	3.10513001000000e+01	0.00000000000000e+00
0.00000000000000e+00	3.10513001000000e+01	0.00000000000000e+00
ITEM: ATOMS id type x y z DisplacementX DisplacementY DisplacementZ
2546 1 2.142e+01 2.317e+01 1.631e+01 1.288e-01 2.062e+00 1.633e+00
2552 1 1.975e+01 2.488e+01 1.632e+01 1.740e+00 6.792e-01 1.696e+00
2554 1 2.311e+01 2.488e+01 1.632e+01 -1.805e+00 -7.102e-02 1.740e+00
2555 1 2.144e+01 2.658e+01 1.631e+01 1.895e-02 -1.460e+00 1.560e+00
2597 1 1.972e+01 2.316e+01 1.798e+01 1.353e+00 1.860e+00 -9.103e-02
2601 1 2.312e+01 2.318e+01 1.799e+01 -1.425e+00 1.809e+00 2.150e-01
2603 1 2.142e+01 2.318e+01 1.966e+01 3.229e-02 1.607e+00 -1.548e+00
2615 1 1.975e+01 2.659e+01 1.799e+01 1.424e+00 -1.195e+00 -7.596e-03
2616 1 1.975e+01 2.488e+01 1.966e+01 1.818e+00 7.203e-01 -1.887e+00
2618 1 2.312e+01 2.488e+01 1.967e+01 -1.807e+00 2.205e-01 -1.835e+00
2621 1 2.144e+01 2.658e+01 1.968e+01 -5.973e-02 -1.099e+00 -1.398e+00
2622 1 2.313e+01 2.659e+01 1.800e+01 -1.335e+00 -1.074e+00 2.006e-02
ITEM: TIMESTEP
13
ITEM: NUMBER OF ATOMS
10
ITEM: BOX BOUNDS xy xz yz pp pp pp
                     0.00000000000000e+00 3.10513001000000e+01 0.00000000000000e+00
0.00000000000000e+00	3.10513001000000e+01	0.00000000000000e+00
0.00000000000000e+00	3.10513001000000e+01	0.00000000000000e+00
ITEM: ATOMS id type x y z DisplacementX DisplacementY DisplacementZ
2543 1 1.967e+01 2.141e+01 1.630e+01 1.319e-03 3.934e+00 2.276e+00
2546 1 2.137e+01 2.314e+01 1.632e+01 -2.041e+00 3.529e-01 2.069e+00
2552 1 1.971e+01 2.486e+01 1.631e+01 1.238e-02 -1.240e+00 1.427e+00
2597 1 2.140e+01 2.486e+01 1.799e+01 -1.256e+00 -8.784e-01 -2.767e-02
2598 1 1.968e+01 2.143e+01 1.964e+01 1.930e-02 1.952e+00 -1.598e+00
2599 1 1.803e+01 2.314e+01 1.964e+01 1.858e+00 1.284e+00 -2.069e+00
2600 1 2.136e+01 2.142e+01 1.797e+01 -1.476e+00 1.869e+00 5.615e-01
2603 1 2.137e+01 2.314e+01 1.965e+01 -1.981e+00 3.893e-01 -2.036e+00
2614 1 1.802e+01 2.486e+01 1.799e+01 1.347e+00 -9.100e-01 -3.071e-02
2616 1 1.971e+01 2.486e+01 1.968e+01 -7.214e-02 -9.259e-01 -1.331e+00
ITEM: TIMESTEP
14
ITEM: NUMBER OF ATOMS
12
ITEM: BOX BOUNDS xy xz yz pp pp pp
                     0.00000000000000e+00 3.10513001000000e+01 0.00000000000000e+00
0.00000000000000e+00	3.10513001000000e+01	0.00000000000000e+00
0.00000000000000e+00	3.10513001000000e+01	0.00000000000000e+00
ITEM: ATOMS id type x y z DisplacementX DisplacementY DisplacementZ
2546 1 2.142e+01 2.317e+01 1.631e+01 1.288e-01 2.062e+00 1.633e+00
2552 1 1.975e+01 2.488e+01 1.632e+01 1.740e+00 6.792e-01 1.696e+00
2554 1 2.311e+01 2.488e+01 1.632e+01 -1.805e+00 -7.102e-02 1.740e+00
2555 1 2.144e+01 2.658e+01 1.631e+01 1.888e-02 -1.460e+00 1.560e+00
2597 1 1.972e+01 2.316e+01 1.798e+01 1.353e+00 1.859e+00 -9.106e-02
2601 1 2.312e+01 2.318e+01 1.799e+01 -1.425e+00 1.809e+00 2.150e-01
2603 1 2.142e+01 2.318e+01 1.966e+01 3.230e-02 1.607e+00 -1.548e+00
2615 1 1.975e+01 2.659e+01 1.799e+01 1.424e+00 -1.195e+00 -7.616e-03
2616 1 1.975e+01 2.488e+01 1.966e+01 1.818e+00 7.205e-01 -1.887e+00
2618 1 2.312e+01 2.488e+01 1.967e+01 -1.807e+00 2.204e-01 -1.835e+00
2621 1 2.144e+01 2.658e+01 1.968e+01 -5.970e-02 -1.099e+00 -1.398e+00
2622 1 2.313e+01 2.659e+01 1.800e+01 -1.335e+00 -1.074e+00 2.006e-02
ITEM: TIMESTEP
15
ITEM: NUMBER OF ATOMS
12
ITEM: BOX BOUNDS xy xz yz pp pp pp
                     0.00000000000000e+00 3.10513001000000e+01 0.00000000000000e+00
0.00000000000000e+00	3.10513001000000e+01	0.00000000000000e+00
0.00000000000000e+00	3.10513001000000e+01	0.00000000000000e+00
ITEM: ATOMS id type x y z DisplacementX DisplacementY DisplacementZ
2615 1 1.976e+01 2.661e+01 1.804e+01 1.681e+00 3.431e-01 1.687e+00
2616 1 1.974e+01 2.490e+01 1.971e+01 1.406e+00 1.691e+00 -1.622e-01
2618 1 2.312e+01 2.491e+01 1.971e+01 -1.532e+00 1.771e+00 8.391e-02
2621 1 2.143e+01 2.491e+01 1.802e+01 3.033e-02 1.746e+00 1.468e+00
2622 1 2.312e+01 2.661e+01 1.804e+01 -1.750e+00 -1.294e-01 1.653e+00
2634 1 1.976e+01 2.831e+01 1.972e+01 1.464e+00 -1.330e+00 -2.479e-03
2636 1 2.144e+01 2.831e+01 1.803e+01 6.098e-03 -1.500e+00 1.584e+00
2638 1 2.314e+01 2.831e+01 1.972e+01 -1.410e+00 -1.113e+00 3.611e-02
2695 1 1.976e+01 2.661e+01 2.140e+01 1.785e+00 4.922e-01 -1.837e+00
2698 1 2.143e+01 2.491e+01 2.140e+01 -5.738e-02 1.532e+00 -1.577e+00
2699 1 2.312e+01 2.661e+01 2.140e+01 -1.780e+00 1.857e-01 -1.802e+00
2716 1 2.144e+01 2.831e+01 2.141e+01 -5.204e-02 -1.154e+00 -1.403e+00
ITEM: TIMESTEP
16
ITEM: NUMBER OF ATOMS
12
ITEM: BOX BOUNDS xy xz yz pp pp pp
                     0.00000000000000e+00 3.10513001000000e+01 0.00000000000000e+00
0.00000000000000e+00	3.10513001000000e+01	0.00000000000000e+00
0.00000000000000e+00	3.10513001000000e+01	0.00000000000000e+00
ITEM: ATOMS id type x y z DisplacementX DisplacementY DisplacementZ
2615 1 1.972e+01 2.664e+01 1.803e+01 -3.266e-02 1.686e+00 1.389e+00
2617 1 1.803e+01 2.664e+01 1.972e+01 1.444e+00 1.722e+00 -2.500e-01
2632 1 1.804e+01 2.835e+01 1.804e+01 1.663e+00 1.436e-01 1.694e+00
2633 1 1.972e+01 3.004e+01 1.803e+01 7.626e-03 -1.552e+00 1.605e+00
2634 1 2.140e+01 2.664e+01 1.972e+01 -1.571e+00 1.817e+00 -1.300e-02
2635 1 1.803e+01 3.004e+01 1.972e+01 1.483e+00 -1.416e+00 4.201e-03
2636 1 2.140e+01 2.834e+01 1.804e+01 -1.710e+00 -1.783e-01 1.562e+00
2639 1 2.141e+01 3.004e+01 1.972e+01 -1.442e+00 -1.141e+00 4.060e-02
2695 1 1.972e+01 2.664e+01 2.140e+01 -9.744e-02 1.536e+00 -1.631e+00
2712 1 1.804e+01 2.834e+01 2.140e+01 1.760e+00 3.724e-01 -1.808e+00
2713 1 1.972e+01 3.004e+01 2.141e+01 -4.881e-02 -1.195e+00 -1.424e+00
2716 1 2.140e+01 2.834e+01 2.140e+01 -1.773e+00 2.145e-01 -1.799e+00
