2889
Lattice=" 31.0513001 0.0 0.0 0.0 31.0513001 0.0 0.0 0.0 31.0513001 " Time=0.000000e+00  Step=0  Energy=0.0  Barrier=0.000000e+00
Ni 7.515166e-01 7.515970e-01 7.514112e-01 1
Ni 2.478547e+00 2.478637e+00 7.515348e-01 2
Ni 2.478763e+00 7.519490e-01 2.478754e+00 3
Ni 7.519226e-01 2.478819e+00 2.478770e+00 4
Ni 4.204281e+00 7.517476e-01 7.514408e-01 5
Ni 5.930241e+00 2.479282e+00 7.516424e-01 6
Ni 5.930386e+00 7.519190e-01 2.479350e+00 7
Ni 4.205667e+00 2.479664e+00 2.479634e+00 8
Ni 7.654283e+00 7.515816e-01 7.514315e-01 9
Ni 9.378877e+00 2.479268e+00 7.514542e-01 10
Ni 9.378910e+00 7.514999e-01 2.479377e+00 11
Ni 7.655689e+00 2.480165e+00 2.480230e+00 12
Ni 1.110229e+01 7.511007e-01 7.510807e-01 13
Ni 1.282624e+01 2.478607e+00 7.508698e-01 14
Ni 1.282621e+01 7.509232e-01 2.478724e+00 15
Ni 1.110299e+01 2.479744e+00 2.479877e+00 16
Ni 1.454993e+01 7.505576e-01 7.503957e-01 17
Ni 1.454992e+01 2.478943e+00 2.479021e+00 18
Ni 7.516617e-01 4.204367e+00 7.514507e-01 19
Ni 2.479202e+00 5.930251e+00 7.515993e-01 20
Ni 2.479631e+00 4.205707e+00 2.479634e+00 21
Ni 7.518876e-01 5.930415e+00 2.479339e+00 22
Ni 4.205452e+00 4.205513e+00 7.517154e-01 23
Ni 5.931724e+00 5.931730e+00 7.517663e-01 24
Ni 5.932240e+00 4.207293e+00 2.480933e+00 25
Ni 4.207280e+00 5.932236e+00 2.480923e+00 26
Ni 7.655622e+00 4.206350e+00 7.516962e-01 27
Ni 9.380140e+00 5.932104e+00 7.513908e-01 28
Ni 9.380455e+00 4.207772e+00 2.481245e+00 29
Ni 7.657961e+00 5.933996e+00 2.482176e+00 30
Ni 1.110304e+01 4.205968e+00 7.512203e-01 31
Ni 1.282682e+01 5.931093e+00 7.506908e-01 32
Ni 1.282677e+01 4.206883e+00 2.480451e+00 33
Ni 1.110444e+01 5.933756e+00 2.481697e+00 34
Ni 1.455007e+01 4.204980e+00 7.505331e-01 35
Ni 1.455029e+01 5.932354e+00 2.480602e+00 36
Ni 7.515052e-01 7.654216e+00 7.513486e-01 37
Ni 2.479233e+00 9.378744e+00 7.513993e-01 38
Ni 2.480146e+00 7.655645e+00 2.480203e+00 39
Ni 7.514750e-01 9.378803e+00 2.479346e+00 40
Ni 4.206313e+00 7.655563e+00 7.516526e-01 41
Ni 5.932135e+00 9.380032e+00 7.513770e-01 42
Ni 5.934028e+00 7.657902e+00 2.482169e+00 43
Ni 4.207794e+00 9.380350e+00 2.481233e+00 44
Ni 7.656776e+00 7.656719e+00 7.514244e-01 45
Ni 9.380553e+00 9.380446e+00 7.506157e-01 46
Ni 9.382333e+00 7.658980e+00 2.482346e+00 47
Ni 7.659066e+00 9.382229e+00 2.482349e+00 48
Ni 1.110386e+01 7.656255e+00 7.506607e-01 49
Ni 1.282722e+01 9.379295e+00 7.496444e-01 50
Ni 1.282781e+01 7.657814e+00 2.480976e+00 51
Ni 1.110554e+01 9.382262e+00 2.480860e+00 52
Ni 1.455046e+01 7.654820e+00 7.499189e-01 53
Ni 1.455104e+01 9.380586e+00 2.479055e+00 54
Ni 7.510749e-01 1.110210e+01 7.510725e-01 55
Ni 2.478639e+00 1.282604e+01 7.509491e-01 56
Ni 2.479758e+00 1.110283e+01 2.479883e+00 57
Ni 7.509156e-01 1.282603e+01 2.478772e+00 58
Ni 4.206000e+00 1.110287e+01 7.512291e-01 59
Ni 5.931200e+00 1.282666e+01 7.507573e-01 60
Ni 5.933835e+00 1.110430e+01 2.481713e+00 61
Ni 4.206949e+00 1.282662e+01 2.480497e+00 62
Ni 7.656356e+00 1.110373e+01 7.506794e-01 63
Ni 9.379447e+00 1.282710e+01 7.496804e-01 64
Ni 9.382390e+00 1.110542e+01 2.480870e+00 65
Ni 7.657946e+00 1.282768e+01 2.481012e+00 66
Ni 1.110361e+01 1.110348e+01 7.495191e-01 67
Ni 1.282678e+01 1.282667e+01 7.482847e-01 68
Ni 1.282835e+01 1.110472e+01 2.478063e+00 69
Ni 1.110486e+01 1.282824e+01 2.478075e+00 70
Ni 1.455078e+01 1.110219e+01 7.484933e-01 71
Ni 1.455147e+01 1.282736e+01 2.474734e+00 72
Ni 7.505633e-01 1.454974e+01 7.505573e-01 73
Ni 2.478973e+00 1.454979e+01 2.479103e+00 74
Ni 4.205077e+00 1.454989e+01 7.506722e-01 75
Ni 5.932470e+00 1.455018e+01 2.480673e+00 76
Ni 7.654987e+00 1.455033e+01 7.500130e-01 77
Ni 9.380752e+00 1.455095e+01 2.479096e+00 78
Ni 1.110236e+01 1.455071e+01 7.485247e-01 79
Ni 1.282748e+01 1.455141e+01 2.474740e+00 80
Ni 1.455072e+01 1.455066e+01 7.472933e-01 81
Ni 7.519032e-01 7.519223e-01 4.204752e+00 82
Ni 2.479711e+00 2.479736e+00 4.205960e+00 83
Ni 2.479375e+00 7.519683e-01 5.930895e+00 84
Ni 7.519400e-01 2.479429e+00 5.930872e+00 85
Ni 4.205692e+00 7.520848e-01 4.205911e+00 86
Ni 5.932279e+00 2.480922e+00 4.207589e+00 87
Ni 5.931766e+00 7.519350e-01 5.932358e+00 88
Ni 4.207262e+00 2.480905e+00 5.932807e+00 89
Ni 7.655709e+00 7.518198e-01 4.206681e+00 90
Ni 9.380456e+00 2.481122e+00 4.208067e+00 91
Ni 9.380121e+00 7.513939e-01 5.932572e+00 92
Ni 7.657904e+00 2.482060e+00 5.934494e+00 93
Ni 1.110304e+01 7.512173e-01 4.206270e+00 94
Ni 1.282677e+01 2.480322e+00 4.207198e+00 95
Ni 1.282683e+01 7.507000e-01 5.931597e+00 96
Ni 1.110443e+01 2.481539e+00 5.934193e+00 97
Ni 1.454997e+01 7.506698e-01 4.205356e+00 98
Ni 1.455034e+01 2.480473e+00 5.932910e+00 99
Ni 7.520734e-01 4.205739e+00 4.205905e+00 100
Ni 2.480912e+00 5.932285e+00 4.207585e+00 101
Ni 2.480872e+00 4.207300e+00 5.932801e+00 102
Ni 7.519006e-01 5.931789e+00 5.932355e+00 103
Ni 4.207819e+00 4.207831e+00 4.208084e+00 104
Ni 5.935850e+00 5.935823e+00 4.211183e+00 105
Ni 5.935783e+00 4.210865e+00 5.936342e+00 106
Ni 4.210852e+00 5.935775e+00 5.936349e+00 107
Ni 7.658657e+00 4.209915e+00 4.210204e+00 108
Ni 9.384111e+00 5.937891e+00 4.212913e+00 109
Ni 9.384075e+00 4.212607e+00 5.938327e+00 110
Ni 7.664513e+00 5.941287e+00 5.941766e+00 111
Ni 1.110478e+01 4.209807e+00 4.210108e+00 112
Ni 1.282825e+01 5.936767e+00 4.211670e+00 113
Ni 1.282827e+01 4.211345e+00 5.937233e+00 114
Ni 1.110906e+01 5.942448e+00 5.942878e+00 115
Ni 1.455019e+01 4.208455e+00 4.208778e+00 116
Ni 1.455091e+01 5.939847e+00 5.940383e+00 117
Ni 7.518028e-01 7.655681e+00 4.206673e+00 118
Ni 2.481127e+00 9.380355e+00 4.208065e+00 119
Ni 2.482038e+00 7.657852e+00 5.934513e+00 120
Ni 7.513662e-01 9.380004e+00 5.932593e+00 121
Ni 4.209930e+00 7.658604e+00 4.210203e+00 122
Ni 5.937954e+00 9.384007e+00 4.212916e+00 123
Ni 5.941322e+00 7.664447e+00 5.941773e+00 124
Ni 4.212629e+00 9.383961e+00 5.938339e+00 125
Ni 7.662736e+00 7.662660e+00 4.214100e+00 126
Ni 9.387322e+00 9.387206e+00 4.214512e+00 127
Ni 9.391808e+00 7.670569e+00 5.947304e+00 128
Ni 7.670664e+00 9.391696e+00 5.947305e+00 129
Ni 1.110793e+01 7.663529e+00 4.213781e+00 130
Ni 1.283046e+01 9.386524e+00 4.211662e+00 131
Ni 1.283176e+01 7.669649e+00 5.945404e+00 132
Ni 1.111568e+01 9.396173e+00 5.948624e+00 133
Ni 1.455103e+01 7.661431e+00 4.211634e+00 134
Ni 1.455287e+01 9.393113e+00 5.944156e+00 135
Ni 7.512057e-01 1.110289e+01 4.206268e+00 136
Ni 2.480349e+00 1.282662e+01 4.207202e+00 137
Ni 2.481551e+00 1.110427e+01 5.934187e+00 138
Ni 7.506911e-01 1.282664e+01 5.931552e+00 139
Ni 4.209858e+00 1.110464e+01 4.210111e+00 140
Ni 5.936871e+00 1.282812e+01 4.211679e+00 141
Ni 5.942533e+00 1.110891e+01 5.942872e+00 142
Ni 4.211415e+00 1.282811e+01 5.937199e+00 143
Ni 7.663643e+00 1.110780e+01 4.213788e+00 144
Ni 9.386676e+00 1.283035e+01 4.211673e+00 145
Ni 9.396313e+00 1.111554e+01 5.948623e+00 146
Ni 7.669796e+00 1.283162e+01 5.945389e+00 147
Ni 1.110973e+01 1.110960e+01 4.211334e+00 148
Ni 1.283127e+01 1.283116e+01 4.205941e+00 149
Ni 1.283658e+01 1.111749e+01 5.943694e+00 150
Ni 1.111765e+01 1.283646e+01 5.943695e+00 151
Ni 1.455263e+01 1.110804e+01 4.207290e+00 152
Ni 1.455660e+01 1.283682e+01 5.935732e+00 153
Ni 7.506544e-01 1.454986e+01 4.205362e+00 154
Ni 2.480506e+00 1.455019e+01 5.932843e+00 155
Ni 4.208523e+00 1.455009e+01 4.208789e+00 156
Ni 5.939976e+00 1.455078e+01 5.940337e+00 157
Ni 7.661581e+00 1.455093e+01 4.211649e+00 158
Ni 9.393302e+00 1.455278e+01 5.944146e+00 159
Ni 1.110820e+01 1.455257e+01 4.207301e+00 160
Ni 1.283696e+01 1.455653e+01 5.935740e+00 161
Ni 1.455293e+01 1.455286e+01 4.199979e+00 162
Ni 7.515234e-01 7.516061e-01 7.654986e+00 163
Ni 2.479961e+00 2.480052e+00 7.656486e+00 164
Ni 2.478696e+00 7.512592e-01 9.379991e+00 165
Ni 7.510578e-01 2.478873e+00 9.379965e+00 166
Ni 4.206139e+00 7.517517e-01 7.656493e+00 167
Ni 5.933787e+00 2.481982e+00 7.658658e+00 168
Ni 5.931647e+00 7.512719e-01 9.380980e+00 169
Ni 4.207224e+00 2.480817e+00 9.381431e+00 170
Ni 7.656605e+00 7.514231e-01 7.657394e+00 171
Ni 9.382222e+00 2.482171e+00 7.659497e+00 172
Ni 9.380380e+00 7.505646e-01 9.380930e+00 173
Ni 7.658735e+00 2.482099e+00 9.382867e+00 174
Ni 1.110384e+01 7.506248e-01 7.656754e+00 175
Ni 1.282789e+01 2.480793e+00 7.658370e+00 176
Ni 1.282733e+01 7.495952e-01 9.379825e+00 177
Ni 1.110551e+01 2.480676e+00 9.382689e+00 178
Ni 1.455060e+01 7.499240e-01 7.655576e+00 179
Ni 1.455133e+01 2.478776e+00 9.381304e+00 180
Ni 7.516601e-01 4.206218e+00 7.656474e+00 181
Ni 2.481897e+00 5.933786e+00 7.658694e+00 182
Ni 2.480635e+00 4.207308e+00 9.381472e+00 183
Ni 7.510736e-01 5.931589e+00 9.381106e+00 184
Ni 4.209692e+00 4.209750e+00 7.659396e+00 185
Ni 5.941184e+00 5.941182e+00 7.665126e+00 186
Ni 5.937532e+00 4.212380e+00 9.384797e+00 187
Ni 4.212268e+00 5.937529e+00 9.384848e+00 188
Ni 7.662565e+00 4.213737e+00 7.663250e+00 189
Ni 9.391750e+00 5.946857e+00 7.671067e+00 190
Ni 9.387161e+00 4.214166e+00 9.387673e+00 191
Ni 7.670438e+00 5.946758e+00 9.392262e+00 192
Ni 1.110791e+01 4.213463e+00 7.664011e+00 193
Ni 1.283180e+01 5.944927e+00 7.670186e+00 194
Ni 1.283058e+01 4.211291e+00 9.387034e+00 195
Ni 1.111566e+01 5.948186e+00 9.396614e+00 196
Ni 1.455118e+01 4.211229e+00 7.662092e+00 197
Ni 1.455307e+01 5.943539e+00 9.393763e+00 198
Ni 7.513404e-01 7.656522e+00 7.657466e+00 199
Ni 2.482131e+00 9.382070e+00 7.659547e+00 200
Ni 2.481956e+00 7.658599e+00 9.382991e+00 201
Ni 7.504627e-01 9.380160e+00 9.381050e+00 202
Ni 4.213700e+00 7.662491e+00 7.663289e+00 203
Ni 5.946895e+00 9.391623e+00 7.671079e+00 204
Ni 5.946735e+00 7.670366e+00 9.392292e+00 205
Ni 4.214116e+00 9.386986e+00 9.387733e+00 206
Ni 7.674131e+00 7.674061e+00 7.674635e+00 207
Ni 9.406103e+00 9.405975e+00 7.685696e+00 208
Ni 9.406035e+00 7.685188e+00 9.406437e+00 209
Ni 7.685260e+00 9.405906e+00 9.406440e+00 210
Ni 1.111873e+01 7.679872e+00 7.680356e+00 211
Ni 1.284016e+01 9.408289e+00 7.684561e+00 212
Ni 1.284021e+01 7.684015e+00 9.408802e+00 213
Ni 1.114081e+01 9.426539e+00 9.427002e+00 214
Ni 1.455243e+01 7.674418e+00 7.675068e+00 215
Ni 1.455631e+01 9.415458e+00 9.416088e+00 216
Ni 7.505948e-01 1.110363e+01 7.656756e+00 217
Ni 2.480825e+00 1.282766e+01 7.658292e+00 218
Ni 2.480653e+00 1.110528e+01 9.382703e+00 219
Ni 7.495944e-01 1.282707e+01 9.379719e+00 220
Ni 4.213496e+00 1.110773e+01 7.664002e+00 221
Ni 5.945048e+00 1.283161e+01 7.670128e+00 222
Ni 5.948247e+00 1.111546e+01 9.396599e+00 223
Ni 4.211373e+00 1.283033e+01 9.386944e+00 224
Ni 7.679991e+00 1.111857e+01 7.680342e+00 225
Ni 9.408475e+00 1.284002e+01 7.684544e+00 226
Ni 9.426697e+00 1.114064e+01 9.426989e+00 227
Ni 7.684187e+00 1.284001e+01 9.408742e+00 228
Ni 1.113175e+01 1.113160e+01 7.689101e+00 229
Ni 1.285007e+01 1.284993e+01 7.679646e+00 230
Ni 1.286388e+01 1.116002e+01 9.437465e+00 231
Ni 1.116023e+01 1.286373e+01 9.437463e+00 232
Ni 1.455777e+01 1.112919e+01 7.680319e+00 233
Ni 1.457142e+01 1.287997e+01 9.426993e+00 234
Ni 7.499290e-01 1.455039e+01 7.655417e+00 235
Ni 2.478863e+00 1.455105e+01 9.381090e+00 236
Ni 4.211337e+00 1.455099e+01 7.661963e+00 237
Ni 5.943734e+00 1.455284e+01 9.393612e+00 238
Ni 7.674619e+00 1.455229e+01 7.674998e+00 239
Ni 9.415717e+00 1.455617e+01 9.416040e+00 240
Ni 1.112940e+01 1.455769e+01 7.680323e+00 241
Ni 1.288019e+01 1.457133e+01 9.427023e+00 242
Ni 1.456623e+01 1.456613e+01 7.667068e+00 243
Ni 7.500524e-01 7.504437e-01 1.110382e+01 244
Ni 2.478713e+00 2.478986e+00 1.110437e+01 245
Ni 2.476827e+00 7.499746e-01 1.282803e+01 246
Ni 7.492531e-01 2.476998e+00 1.282826e+01 247
Ni 4.204997e+00 7.508440e-01 1.110421e+01 248
Ni 5.933165e+00 2.481253e+00 1.110515e+01 249
Ni 5.930499e+00 7.504920e-01 1.282733e+01 250
Ni 4.205778e+00 2.479608e+00 1.282777e+01 251
Ni 7.655955e+00 7.505672e-01 1.110427e+01 252
Ni 9.382182e+00 2.480671e+00 1.110575e+01 253
Ni 9.379298e+00 7.496603e-01 1.282720e+01 254
Ni 7.657557e+00 2.480723e+00 1.282799e+01 255
Ni 1.110356e+01 7.494865e-01 1.110374e+01 256
Ni 1.282847e+01 2.477844e+00 1.110509e+01 257
Ni 1.282681e+01 7.482597e-01 1.282680e+01 258
Ni 1.110480e+01 2.477933e+00 1.282832e+01 259
Ni 1.455113e+01 7.483752e-01 1.110282e+01 260
Ni 1.455179e+01 2.474389e+00 1.282774e+01 261
Ni 7.504382e-01 4.204985e+00 1.110440e+01 262
Ni 2.480956e+00 5.933046e+00 1.110533e+01 263
Ni 2.479150e+00 4.205751e+00 1.282797e+01 264
Ni 7.499759e-01 5.930069e+00 1.282776e+01 265
Ni 4.209082e+00 4.209226e+00 1.110570e+01 266
Ni 5.942067e+00 5.942109e+00 1.110956e+01 267
Ni 5.936182e+00 4.210944e+00 1.282870e+01 268
Ni 4.210690e+00 5.936104e+00 1.282882e+01 269
Ni 7.663254e+00 4.213322e+00 1.110830e+01 270
Ni 9.396136e+00 5.948153e+00 1.111588e+01 271
Ni 9.386467e+00 4.211339e+00 1.283050e+01 272
Ni 7.669422e+00 5.944777e+00 1.283190e+01 273
Ni 1.110969e+01 4.211013e+00 1.110990e+01 274
Ni 1.283669e+01 5.943182e+00 1.111787e+01 275
Ni 1.283138e+01 4.205563e+00 1.283134e+01 276
Ni 1.111759e+01 5.943254e+00 1.283660e+01 277
Ni 1.455298e+01 4.206754e+00 1.110861e+01 278
Ni 1.455691e+01 5.935006e+00 1.283717e+01 279
Ni 7.503203e-01 7.655679e+00 1.110453e+01 280
Ni 2.480532e+00 9.381935e+00 1.110588e+01 281
Ni 2.480402e+00 7.657236e+00 1.282824e+01 282
Ni 7.494924e-01 9.379024e+00 1.282737e+01 283
Ni 4.213157e+00 7.663106e+00 1.110842e+01 284
Ni 5.948120e+00 9.395966e+00 1.111592e+01 285
Ni 5.944672e+00 7.669322e+00 1.283196e+01 286
Ni 4.211190e+00 9.386222e+00 1.283061e+01 287
Ni 7.679769e+00 7.679723e+00 1.111899e+01 288
Ni 9.426626e+00 9.426497e+00 1.114099e+01 289
Ni 9.408303e+00 7.683999e+00 1.284018e+01 290
Ni 7.684026e+00 9.408163e+00 1.284020e+01 291
Ni 1.113172e+01 7.688600e+00 1.113193e+01 292
Ni 1.286391e+01 9.436926e+00 1.116045e+01 293
Ni 1.285015e+01 7.679042e+00 1.285014e+01 294
Ni 1.116018e+01 9.436934e+00 1.286391e+01 295
Ni 1.455795e+01 7.679608e+00 1.112970e+01 296
Ni 1.457154e+01 9.426276e+00 1.288031e+01 297
Ni 7.494282e-01 1.110333e+01 1.110378e+01 298
Ni 2.477887e+00 1.282821e+01 1.110499e+01 299
Ni 2.477875e+00 1.110457e+01 1.282836e+01 300
Ni 7.482681e-01 1.282663e+01 1.282672e+01 301
Ni 4.211001e+00 1.110945e+01 1.110991e+01 302
Ni 5.943313e+00 1.283644e+01 1.111779e+01 303
Ni 5.943268e+00 1.111736e+01 1.283660e+01 304
Ni 4.205645e+00 1.283112e+01 1.283127e+01 305
Ni 7.688697e+00 1.113152e+01 1.113191e+01 306
Ni 9.437136e+00 1.286371e+01 1.116039e+01 307
Ni 9.437074e+00 1.115998e+01 1.286389e+01 308
Ni 7.679214e+00 1.284990e+01 1.285008e+01 309
Ni 1.118635e+01 1.118615e+01 1.118655e+01 310
Ni 1.293975e+01 1.293954e+01 1.123457e+01 311
Ni 1.293975e+01 1.123406e+01 1.293986e+01 312
Ni 1.123427e+01 1.293951e+01 1.293981e+01 313
Ni 1.457014e+01 1.117685e+01 1.117739e+01 314
Ni 1.479914e+01 1.302755e+01 1.302807e+01 315
Ni 7.484261e-01 1.455080e+01 1.110256e+01 316
Ni 2.474523e+00 1.455149e+01 1.282752e+01 317
Ni 4.206931e+00 1.455267e+01 1.110840e+01 318
Ni 5.935255e+00 1.455660e+01 1.283700e+01 319
Ni 7.679871e+00 1.455772e+01 1.112958e+01 320
Ni 9.426564e+00 1.457133e+01 1.288022e+01 321
Ni 1.117714e+01 1.457001e+01 1.117738e+01 322
Ni 1.302779e+01 1.479896e+01 1.302806e+01 323
Ni 1.465263e+01 1.465241e+01 1.123976e+01 324
Ni 7.474166e-01 7.483455e-01 1.455293e+01 325
Ni 2.477053e+00 2.477430e+00 1.455138e+01 326
Ni 4.203909e+00 7.500973e-01 1.455080e+01 327
Ni 5.931840e+00 2.480177e+00 1.455053e+01 328
Ni 7.654839e+00 7.499928e-01 1.455034e+01 329
Ni 9.380626e+00 2.478981e+00 1.455089e+01 330
Ni 1.110228e+01 7.485718e-01 1.455059e+01 331
Ni 1.282748e+01 2.474595e+00 1.455136e+01 332
Ni 1.455079e+01 7.472533e-01 1.455073e+01 333
Ni 7.491144e-01 4.203246e+00 1.455143e+01 334
Ni 2.479607e+00 5.931399e+00 1.455085e+01 335
Ni 4.207433e+00 4.207595e+00 1.455077e+01 336
Ni 5.939391e+00 5.939452e+00 1.455101e+01 337
Ni 7.661215e+00 4.211195e+00 1.455102e+01 338
Ni 9.393098e+00 5.943680e+00 1.455276e+01 339
Ni 1.110813e+01 4.207035e+00 1.455250e+01 340
Ni 1.283704e+01 5.935202e+00 1.455654e+01 341
Ni 1.455322e+01 4.199415e+00 1.455299e+01 342
Ni 7.496246e-01 7.654388e+00 1.455064e+01 343
Ni 2.478775e+00 9.380342e+00 1.455102e+01 344
Ni 4.210893e+00 7.660940e+00 1.455117e+01 345
Ni 5.943572e+00 9.392896e+00 1.455282e+01 346
Ni 7.674332e+00 7.674313e+00 1.455232e+01 347
Ni 9.415585e+00 9.415475e+00 1.455615e+01 348
Ni 1.112932e+01 7.679769e+00 1.455766e+01 349
Ni 1.288018e+01 9.426342e+00 1.457137e+01 350
Ni 1.456643e+01 7.666214e+00 1.456623e+01 351
Ni 7.485210e-01 1.110216e+01 1.455061e+01 352
Ni 2.474631e+00 1.282732e+01 1.455131e+01 353
Ni 4.206981e+00 1.110790e+01 1.455253e+01 354
Ni 5.935321e+00 1.283678e+01 1.455649e+01 355
Ni 7.679833e+00 1.112911e+01 1.455767e+01 356
Ni 9.426538e+00 1.287993e+01 1.457134e+01 357
Ni 1.117705e+01 1.117687e+01 1.457004e+01 358
Ni 1.302781e+01 1.302759e+01 1.479918e+01 359
Ni 1.465260e+01 1.123903e+01 1.465267e+01 360
Ni 7.473079e-01 1.455062e+01 1.455057e+01 361
Ni 4.199614e+00 1.455293e+01 1.455284e+01 362
Ni 7.666498e+00 1.456613e+01 1.456612e+01 363
Ni 1.123925e+01 1.465230e+01 1.465256e+01 364
Ni 2.475859e+00 7.491113e-01 1.627494e+01 365
Ni 7.475807e-01 2.475179e+00 1.627559e+01 366
Ni 5.930062e+00 7.502296e-01 1.627363e+01 367
Ni 4.204863e+00 2.478743e+00 1.627389e+01 368
Ni 9.378179e+00 7.492021e-01 1.627396e+01 369
Ni 7.656376e+00 2.479914e+00 1.627353e+01 370
Ni 1.282587e+01 7.476406e-01 1.627472e+01 371
Ni 1.110325e+01 2.476463e+00 1.627433e+01 372
Ni 1.455121e+01 2.472382e+00 1.627537e+01 373
Ni 2.477983e+00 4.204429e+00 1.627418e+01 374
Ni 7.494627e-01 5.929195e+00 1.627407e+01 375
Ni 5.934527e+00 4.209443e+00 1.627321e+01 376
Ni 4.209054e+00 5.934294e+00 1.627333e+01 377
Ni 9.384401e+00 4.209539e+00 1.627330e+01 378
Ni 7.665989e+00 5.941595e+00 1.627232e+01 379
Ni 1.282953e+01 4.201871e+00 1.627489e+01 380
Ni 1.111456e+01 5.939707e+00 1.627294e+01 381
Ni 1.455597e+01 5.926446e+00 1.627599e+01 382
Ni 2.479477e+00 7.655911e+00 1.627371e+01 383
Ni 7.490676e-01 9.378031e+00 1.627403e+01 384
Ni 5.941419e+00 7.665850e+00 1.627237e+01 385
Ni 4.209324e+00 9.384125e+00 1.627338e+01 386
Ni 9.400123e+00 7.676275e+00 1.627080e+01 387
Ni 7.676264e+00 9.399992e+00 1.627082e+01 388
Ni 1.284816e+01 7.673571e+00 1.627277e+01 389
Ni 1.113827e+01 9.415558e+00 1.626851e+01 390
Ni 1.459640e+01 9.424254e+00 1.627631e+01 391
Ni 2.476402e+00 1.110311e+01 1.627435e+01 392
Ni 7.476504e-01 1.282583e+01 1.627467e+01 393
Ni 5.939682e+00 1.111434e+01 1.627296e+01 394
Ni 4.201927e+00 1.282936e+01 1.627486e+01 395
Ni 9.415698e+00 1.113810e+01 1.626852e+01 396
Ni 7.673739e+00 1.284790e+01 1.627277e+01 397
Ni 1.287800e+01 1.114080e+01 1.626825e+01 398
Ni 1.114105e+01 1.287782e+01 1.626828e+01 399
Ni 2.472481e+00 1.455107e+01 1.627527e+01 400
Ni 5.926693e+00 1.455566e+01 1.627590e+01 401
Ni 9.424546e+00 1.459611e+01 1.627629e+01 402
Ni 7.462599e-01 7.473074e-01 1.799971e+01 403
Ni 2.476462e+00 2.476746e+00 1.799783e+01 404
Ni 2.477061e+00 7.496543e-01 1.972138e+01 405
Ni 7.467715e-01 2.474243e+00 1.972139e+01 406
Ni 4.204292e+00 7.501784e-01 1.799734e+01 407
Ni 5.931374e+00 2.479762e+00 1.799684e+01 408
Ni 5.930069e+00 7.502619e-01 1.972101e+01 409
Ni 4.204868e+00 2.478631e+00 1.972077e+01 410
Ni 7.654448e+00 7.498637e-01 1.799728e+01 411
Ni 9.379824e+00 2.478748e+00 1.799700e+01 412
Ni 9.378279e+00 7.493507e-01 1.972134e+01 413
Ni 7.656192e+00 2.479845e+00 1.972024e+01 414
Ni 1.110164e+01 7.484041e-01 1.799814e+01 415
Ni 1.282658e+01 2.474538e+00 1.799840e+01 416
Ni 1.282567e+01 7.479192e-01 1.972262e+01 417
Ni 1.110321e+01 2.477543e+00 1.972085e+01 418
Ni 1.455018e+01 7.471094e-01 1.799929e+01 419
Ni 1.455062e+01 2.474228e+00 1.972264e+01 420
Ni 7.486534e-01 4.202654e+00 1.799786e+01 421
Ni 2.478977e+00 5.930613e+00 1.799701e+01 422
Ni 2.477500e+00 4.203909e+00 1.972077e+01 423
Ni 7.496343e-01 5.929403e+00 1.972101e+01 424
Ni 4.206551e+00 4.206684e+00 1.799674e+01 425
Ni 5.937785e+00 5.937853e+00 1.799504e+01 426
Ni 5.934020e+00 4.208930e+00 1.971921e+01 427
Ni 4.208423e+00 5.933651e+00 1.971921e+01 428
Ni 7.659936e+00 4.210221e+00 1.799560e+01 429
Ni 9.390477e+00 5.941701e+00 1.799284e+01 430
Ni 9.383901e+00 4.209767e+00 1.971793e+01 431
Ni 7.665224e+00 5.940943e+00 1.971560e+01 432
Ni 1.110676e+01 4.206843e+00 1.799578e+01 433
Ni 1.283486e+01 5.935100e+00 1.799286e+01 434
Ni 1.282922e+01 4.205111e+00 1.971876e+01 435
Ni 1.111327e+01 5.940581e+00 1.971278e+01 436
Ni 1.455225e+01 4.199473e+00 1.799815e+01 437
Ni 1.455485e+01 5.933939e+00 1.971426e+01 438
Ni 7.495766e-01 7.654152e+00 1.799735e+01 439
Ni 2.478554e+00 9.379604e+00 1.799704e+01 440
Ni 2.479430e+00 7.655767e+00 1.972023e+01 441
Ni 7.492420e-01 9.378193e+00 1.972133e+01 442
Ni 4.209821e+00 7.659564e+00 1.799567e+01 443
Ni 5.941547e+00 9.390263e+00 1.799287e+01 444
Ni 5.940724e+00 7.665058e+00 1.971561e+01 445
Ni 4.209542e+00 9.383641e+00 1.971793e+01 446
Ni 7.671228e+00 7.671229e+00 1.799171e+01 447
Ni 9.409180e+00 9.409089e+00 1.798463e+01 448
Ni 9.399892e+00 7.676307e+00 1.970764e+01 449
Ni 7.676294e+00 9.399780e+00 1.970765e+01 450
Ni 1.112371e+01 7.675088e+00 1.798687e+01 451
Ni 1.286749e+01 9.413936e+00 1.797416e+01 452
Ni 1.284375e+01 7.674567e+00 1.970192e+01 453
Ni 1.114112e+01 9.419693e+00 1.968731e+01 454
Ni 1.456380e+01 7.665379e+00 1.798664e+01 455
Ni 1.456588e+01 9.422189e+00 1.967477e+01 456
Ni 7.483698e-01 1.110162e+01 1.799813e+01 457
Ni 2.474558e+00 1.282652e+01 1.799838e+01 458
Ni 2.477481e+00 1.110312e+01 1.972084e+01 459
Ni 7.479268e-01 1.282570e+01 1.972260e+01 460
Ni 4.206770e+00 1.110658e+01 1.799579e+01 461
Ni 5.935189e+00 1.283464e+01 1.799285e+01 462
Ni 5.940543e+00 1.111308e+01 1.971278e+01 463
Ni 4.205147e+00 1.282909e+01 1.971875e+01 464
Ni 7.675153e+00 1.112352e+01 1.798690e+01 465
Ni 9.414217e+00 1.286729e+01 1.797422e+01 466
Ni 9.419919e+00 1.114102e+01 1.968732e+01 467
Ni 7.674734e+00 1.284353e+01 1.970192e+01 468
Ni 1.116426e+01 1.116409e+01 1.796465e+01 469
Ni 1.302154e+01 1.302123e+01 1.773432e+01 470
Ni 1.288654e+01 1.118656e+01 1.962718e+01 471
Ni 1.118725e+01 1.288667e+01 1.962709e+01 472
Ni 1.461684e+01 1.121288e+01 1.790612e+01 473
Ni 1.461856e+01 1.290924e+01 1.957707e+01 474
Ni 7.471423e-01 1.455018e+01 1.799924e+01 475
Ni 2.474298e+00 1.455056e+01 1.972262e+01 476
Ni 4.199623e+00 1.455206e+01 1.799810e+01 477
Ni 5.934159e+00 1.455460e+01 1.971425e+01 478
Ni 7.665659e+00 1.456350e+01 1.798660e+01 479
Ni 9.422505e+00 1.456565e+01 1.967475e+01 480
Ni 1.121328e+01 1.461660e+01 1.790625e+01 481
Ni 1.291118e+01 1.461952e+01 1.957632e+01 482
Ni 7.463440e-01 7.473836e-01 2.144374e+01 483
Ni 2.476331e+00 2.476615e+00 2.144472e+01 484
Ni 2.475631e+00 7.492481e-01 2.316901e+01 485
Ni 7.477417e-01 2.474966e+00 2.316836e+01 486
Ni 4.204175e+00 7.502675e-01 2.144524e+01 487
Ni 5.931259e+00 2.479641e+00 2.144423e+01 488
Ni 5.929905e+00 7.504941e-01 2.316945e+01 489
Ni 4.204291e+00 2.478293e+00 2.316878e+01 490
Ni 7.654714e+00 7.500870e-01 2.144501e+01 491
Ni 9.380148e+00 2.479489e+00 2.144390e+01 492
Ni 9.378759e+00 7.499516e-01 2.316940e+01 493
Ni 7.656181e+00 2.480054e+00 2.316799e+01 494
Ni 1.110213e+01 7.489969e-01 2.144570e+01 495
Ni 1.282678e+01 2.477146e+00 2.144497e+01 496
Ni 1.282606e+01 7.489825e-01 2.317020e+01 497
Ni 1.110357e+01 2.479243e+00 2.316805e+01 498
Ni 1.454996e+01 7.478911e-01 2.144696e+01 499
Ni 1.455042e+01 2.477607e+00 2.316904e+01 500
Ni 7.487521e-01 4.202549e+00 2.144473e+01 501
Ni 2.478859e+00 5.930506e+00 2.144406e+01 502
Ni 2.477540e+00 4.203868e+00 2.316849e+01 503
Ni 7.497378e-01 5.929057e+00 2.316902e+01 504
Ni 4.206201e+00 4.206337e+00 2.144364e+01 505
Ni 5.937322e+00 5.937393e+00 2.144024e+01 506
Ni 5.933381e+00 4.208393e+00 2.316640e+01 507
Ni 4.208005e+00 5.933158e+00 2.316629e+01 508
Ni 7.659750e+00 4.210249e+00 2.144146e+01 509
Ni 9.390150e+00 5.942690e+00 2.143529e+01 510
Ni 9.383445e+00 4.210557e+00 2.316423e+01 511
Ni 7.663768e+00 5.939989e+00 2.316088e+01 512
Ni 1.110678e+01 4.209137e+00 2.144062e+01 513
Ni 1.283342e+01 5.940347e+00 2.143393e+01 514
Ni 1.282872e+01 4.208984e+00 2.316432e+01 515
Ni 1.111098e+01 5.942396e+00 2.315717e+01 516
Ni 1.455165e+01 4.205599e+00 2.144209e+01 517
Ni 1.455232e+01 5.940061e+00 2.315789e+01 518
Ni 7.498040e-01 7.654426e+00 2.144493e+01 519
Ni 2.479296e+00 9.379938e+00 2.144386e+01 520
Ni 2.479623e+00 7.655733e+00 2.316780e+01 521
Ni 7.498217e-01 9.378627e+00 2.316932e+01 522
Ni 4.209852e+00 7.659386e+00 2.144139e+01 523
Ni 5.942544e+00 9.389954e+00 2.143526e+01 524
Ni 5.939813e+00 7.663646e+00 2.316084e+01 525
Ni 4.210347e+00 9.383192e+00 2.316414e+01 526
Ni 7.671020e+00 7.671025e+00 2.143265e+01 527
Ni 9.409099e+00 9.409014e+00 2.141665e+01 528
Ni 9.395318e+00 7.673465e+00 2.315089e+01 529
Ni 7.673459e+00 9.395221e+00 2.315086e+01 530
Ni 1.112210e+01 7.678816e+00 2.142281e+01 531
Ni 1.285120e+01 9.420235e+00 2.140041e+01 532
Ni 1.283612e+01 7.675456e+00 2.314701e+01 533
Ni 1.112535e+01 9.407160e+00 2.313732e+01 534
Ni 1.455620e+01 7.675814e+00 2.142243e+01 535
Ni 1.455542e+01 9.404901e+00 2.313949e+01 536
Ni 7.489632e-01 1.110213e+01 2.144568e+01 537
Ni 2.477163e+00 1.282673e+01 2.144497e+01 538
Ni 2.479181e+00 1.110345e+01 2.316801e+01 539
Ni 7.489910e-01 1.282604e+01 2.317021e+01 540
Ni 4.209065e+00 1.110661e+01 2.144060e+01 541
Ni 5.940437e+00 1.283322e+01 2.143393e+01 542
Ni 5.942385e+00 1.111080e+01 2.315713e+01 543
Ni 4.209034e+00 1.282857e+01 2.316433e+01 544
Ni 7.678907e+00 1.112195e+01 2.142279e+01 545
Ni 9.420609e+00 1.285111e+01 2.140032e+01 546
Ni 9.407318e+00 1.112525e+01 2.313729e+01 547
Ni 7.675662e+00 1.283593e+01 2.314697e+01 548
Ni 1.115017e+01 1.115002e+01 2.138848e+01 549
Ni 1.287829e+01 1.287821e+01 2.136594e+01 550
Ni 1.284728e+01 1.113404e+01 2.313081e+01 551
Ni 1.113431e+01 1.284723e+01 2.313075e+01 552
Ni 1.456323e+01 1.115391e+01 2.138564e+01 553
Ni 1.456077e+01 1.285345e+01 2.313058e+01 554
Ni 7.479215e-01 1.454998e+01 2.144697e+01 555
Ni 2.477698e+00 1.455031e+01 2.316910e+01 556
Ni 4.205742e+00 1.455148e+01 2.144212e+01 557
Ni 5.940299e+00 1.455205e+01 2.315795e+01 558
Ni 7.676100e+00 1.455594e+01 2.142244e+01 559
Ni 9.405280e+00 1.455526e+01 2.313943e+01 560
Ni 1.115455e+01 1.456328e+01 2.138536e+01 561
Ni 1.285370e+01 1.456086e+01 2.313054e+01 562
Ni 1.458404e+01 1.458409e+01 2.134072e+01 563
Ni 7.475820e-01 7.484887e-01 2.489300e+01 564
Ni 2.476432e+00 2.476804e+00 2.489373e+01 565
Ni 2.476091e+00 7.501398e-01 2.662001e+01 566
Ni 7.494413e-01 2.476265e+00 2.661979e+01 567
Ni 4.203159e+00 7.503284e-01 2.489433e+01 568
Ni 5.930538e+00 2.479321e+00 2.489325e+01 569
Ni 5.929115e+00 7.508924e-01 2.662012e+01 570
Ni 4.203833e+00 2.478175e+00 2.661957e+01 571
Ni 7.654581e+00 7.506262e-01 2.489423e+01 572
Ni 9.379916e+00 2.480015e+00 2.489256e+01 573
Ni 9.378544e+00 7.507283e-01 2.661989e+01 574
Ni 7.655188e+00 2.479612e+00 2.661875e+01 575
Ni 1.110248e+01 7.499889e-01 2.489433e+01 576
Ni 1.282677e+01 2.479124e+00 2.489282e+01 577
Ni 1.282619e+01 7.501076e-01 2.661988e+01 578
Ni 1.110307e+01 2.479555e+00 2.661837e+01 579
Ni 1.455007e+01 7.492188e-01 2.489474e+01 580
Ni 1.455031e+01 2.478656e+00 2.661834e+01 581
Ni 7.493664e-01 4.202519e+00 2.489371e+01 582
Ni 2.478760e+00 5.930117e+00 2.489293e+01 583
Ni 2.477727e+00 4.203816e+00 2.661938e+01 584
Ni 7.503914e-01 5.928712e+00 2.661970e+01 585
Ni 4.205561e+00 4.205728e+00 2.489250e+01 586
Ni 5.935288e+00 5.935360e+00 2.488871e+01 587
Ni 5.931644e+00 4.206805e+00 2.661749e+01 588
Ni 4.206552e+00 5.931582e+00 2.661737e+01 589
Ni 7.658247e+00 4.209230e+00 2.489002e+01 590
Ni 9.386068e+00 5.939750e+00 2.488431e+01 591
Ni 9.381098e+00 4.208542e+00 2.661579e+01 592
Ni 7.659242e+00 5.935461e+00 2.661370e+01 593
Ni 1.110547e+01 4.209829e+00 2.488883e+01 594
Ni 1.283005e+01 5.939655e+00 2.488342e+01 595
Ni 1.282743e+01 4.208060e+00 2.661547e+01 596
Ni 1.110624e+01 5.936766e+00 2.661199e+01 597
Ni 1.455086e+01 4.208398e+00 2.488925e+01 598
Ni 1.455093e+01 5.935430e+00 2.661231e+01 599
Ni 7.502679e-01 7.654154e+00 2.489392e+01 600
Ni 2.479815e+00 9.379659e+00 2.489242e+01 601
Ni 2.479300e+00 7.654895e+00 2.661850e+01 602
Ni 7.505693e-01 9.378297e+00 2.661971e+01 603
Ni 4.208931e+00 7.657998e+00 2.488986e+01 604
Ni 5.939648e+00 9.385904e+00 2.488424e+01 605
Ni 5.935350e+00 7.659169e+00 2.661364e+01 606
Ni 4.208397e+00 9.380888e+00 2.661567e+01 607
Ni 7.665398e+00 7.665397e+00 2.488219e+01 608
Ni 9.394256e+00 9.394177e+00 2.487475e+01 609
Ni 9.385684e+00 7.663026e+00 2.660954e+01 610
Ni 7.663042e+00 9.385585e+00 2.660951e+01 611
Ni 1.111242e+01 7.669697e+00 2.487747e+01 612
Ni 1.283513e+01 9.396195e+00 2.487389e+01 613
Ni 1.282981e+01 7.662983e+00 2.660940e+01 614
Ni 1.110979e+01 9.388016e+00 2.660782e+01 615
Ni 1.455219e+01 7.667848e+00 2.487872e+01 616
Ni 1.455181e+01 9.386890e+00 2.660928e+01 617
Ni 7.499414e-01 1.110238e+01 2.489429e+01 618
Ni 2.479155e+00 1.282664e+01 2.489285e+01 619
Ni 2.479500e+00 1.110288e+01 2.661831e+01 620
Ni 7.501176e-01 1.282603e+01 2.661994e+01 621
Ni 4.209778e+00 1.110528e+01 2.488878e+01 622
Ni 5.939779e+00 1.282984e+01 2.488343e+01 623
Ni 5.936782e+00 1.110605e+01 2.661196e+01 624
Ni 4.208138e+00 1.282721e+01 2.661552e+01 625
Ni 7.669775e+00 1.111228e+01 2.487744e+01 626
Ni 9.396422e+00 1.283500e+01 2.487387e+01 627
Ni 9.388140e+00 1.110966e+01 2.660782e+01 628
Ni 7.663152e+00 1.282962e+01 2.660942e+01 629
Ni 1.111874e+01 1.111861e+01 2.487205e+01 630
Ni 1.283887e+01 1.283875e+01 2.487493e+01 631
Ni 1.283173e+01 1.111042e+01 2.660961e+01 632
Ni 1.111060e+01 1.283162e+01 2.660962e+01 633
Ni 1.455430e+01 1.111871e+01 2.487470e+01 634
Ni 1.455241e+01 1.283117e+01 2.661402e+01 635
Ni 7.492695e-01 1.454994e+01 2.489486e+01 636
Ni 2.478781e+00 1.455004e+01 2.661854e+01 637
Ni 4.208583e+00 1.455060e+01 2.488938e+01 638
Ni 5.935665e+00 1.455066e+01 2.661245e+01 639
Ni 7.668141e+00 1.455195e+01 2.487876e+01 640
Ni 9.387153e+00 1.455166e+01 2.660933e+01 641
Ni 1.111898e+01 1.455425e+01 2.487469e+01 642
Ni 1.283133e+01 1.455238e+01 2.661402e+01 643
Ni 1.455551e+01 1.455549e+01 2.488146e+01 644
Ni 7.501405e-01 7.505196e-01 2.834741e+01 645
Ni 2.477322e+00 2.477591e+00 2.834695e+01 646
Ni 2.477541e+00 7.513074e-01 3.007496e+01 647
Ni 7.511152e-01 2.477719e+00 3.007499e+01 648
Ni 4.203183e+00 7.510206e-01 2.834707e+01 649
Ni 5.929702e+00 2.478866e+00 2.834628e+01 650
Ni 5.929114e+00 7.514486e-01 3.007466e+01 651