ITEM: TIMESTEP
0
ITEM: NUMBER OF ATOMS
19
ITEM: BOX BOUNDS xy xz yz pp pp pp
                     0.00000000000000e+00 3.10513001000000e+01 0.00000000000000e+00
0.00000000000000e+00	3.10513001000000e+01	0.00000000000000e+00
0.00000000000000e+00	3.10513001000000e+01	0.00000000000000e+00
ITEM: ATOMS id type x y z DisplacementX DisplacementY DisplacementZ
310 1 1.119e+01 1.119e+01 1.119e+01 1.627e-01 1.156e+00 -1.473e-01
311 1 1.294e+01 1.294e+01 1.123e+01 -1.097e+00 1.362e+00 -3.603e-01
312 1 1.294e+01 1.123e+01 1.294e+01 -1.254e+00 2.936e+00 -1.550e+00
313 1 1.123e+01 1.294e+01 1.294e+01 1.097e+00 4.790e-01 -1.414e+00
314 1 1.457e+01 1.118e+01 1.118e+01 -2.515e+00 1.478e+00 2.270e-01
322 1 1.118e+01 1.457e+01 1.118e+01 -2.120e+00 8.324e-01 -1.524e-01
358 1 1.118e+01 1.118e+01 1.457e+01 -1.540e+00 1.165e+00 -4.995e-01
469 1 1.116e+01 1.116e+01 1.796e+01 -6.631e-01 7.262e-01 -2.870e-02
471 1 1.289e+01 1.119e+01 1.963e+01 1.169e-01 2.272e+00 -6.259e-01
472 1 1.119e+01 1.289e+01 1.963e+01 7.185e-01 2.016e+00 -6.181e-01
989 1 1.116e+01 1.796e+01 1.116e+01 -2.267e+00 4.281e+00 -1.890e+00
990 1 1.289e+01 1.963e+01 1.119e+01 -2.440e+00 8.248e+00 -4.274e-02
992 1 1.119e+01 1.963e+01 1.289e+01 -1.385e+00 6.675e+00 -7.309e-01
1747 1 1.796e+01 1.116e+01 1.116e+01 2.611e-01 1.155e+00 -1.381e+00
1748 1 1.963e+01 1.289e+01 1.119e+01 -4.251e-01 3.047e+00 -9.927e-01
1749 1 1.963e+01 1.119e+01 1.289e+01 -2.498e-01 1.686e+00 -1.125e+00
2640 1 2.493e+01 2.834e+01 1.804e+01 1.646e+00 1.909e-02 1.644e+00
2643 1 2.831e+01 2.835e+01 1.804e+01 -1.590e+00 -8.731e-02 1.586e+00
2720 1 2.493e+01 2.834e+01 2.141e+01 1.714e+00 6.862e-02 -1.739e+00
