ITEM: TIMESTEP
0
ITEM: NUMBER OF ATOMS
12
ITEM: BOX BOUNDS xy xz yz pp pp pp
                     0.00000000000000e+00 3.10513001000000e+01 0.00000000000000e+00
0.00000000000000e+00	3.10513001000000e+01	0.00000000000000e+00
0.00000000000000e+00	3.10513001000000e+01	0.00000000000000e+00
ITEM: ATOMS id type x y z DisplacementX DisplacementY DisplacementZ
2623 1 2.662e+01 2.665e+01 1.803e+01 1.234e-01 4.937e-01 6.829e-01
2625 1 2.492e+01 2.664e+01 1.972e+01 8.414e-01 7.303e-01 2.898e-02
2629 1 2.831e+01 2.665e+01 1.972e+01 -1.020e+00 1.055e+00 -3.533e-01
2640 1 2.493e+01 2.834e+01 1.804e+01 8.610e-01 -1.192e-01 8.943e-01
2641 1 2.662e+01 3.004e+01 1.803e+01 -9.611e-02 -8.482e-01 8.041e-01
2642 1 2.493e+01 3.004e+01 1.972e+01 7.712e-01 -8.153e-01 -2.518e-01
2643 1 2.831e+01 2.835e+01 1.804e+01 -9.143e-01 2.751e-02 5.998e-01
2646 1 2.831e+01 3.004e+01 1.972e+01 -5.082e-01 1.051e+00 4.624e-01
2703 1 2.662e+01 2.665e+01 2.141e+01 -1.268e-01 9.871e-01 -1.044e+00
2720 1 2.493e+01 2.834e+01 2.141e+01 8.101e-01 -5.196e-02 -1.194e+00
2721 1 2.662e+01 3.004e+01 2.141e+01 1.152e-02 -1.130e+00 -8.760e-01
2724 1 2.831e+01 2.835e+01 2.141e+01 -9.042e-01 -1.582e-02 -9.046e-01
