ITEM: TIMESTEP
0
ITEM: NUMBER OF ATOMS
12
ITEM: BOX BOUNDS xy xz yz pp pp pp
                     0.00000000000000e+00 3.10513001000000e+01 0.00000000000000e+00
0.00000000000000e+00	3.10513001000000e+01	0.00000000000000e+00
0.00000000000000e+00	3.10513001000000e+01	0.00000000000000e+00
ITEM: ATOMS id type x y z DisplacementX DisplacementY DisplacementZ
2623 1 2.662e+01 2.665e+01 1.803e+01 1.672e-01 4.152e-01 6.206e-01
2625 1 2.492e+01 2.664e+01 1.972e+01 9.480e-01 4.837e-01 -1.176e-01
2629 1 2.831e+01 2.665e+01 1.972e+01 -1.030e+00 6.691e-01 -4.423e-01
2640 1 2.493e+01 2.834e+01 1.804e+01 9.499e-01 -3.895e-01 7.904e-01
2641 1 2.662e+01 3.004e+01 1.803e+01 -2.817e-02 -1.035e+00 7.907e-01
2642 1 2.493e+01 3.004e+01 1.972e+01 8.571e-01 -1.192e+00 -4.078e-01
2643 1 2.831e+01 2.835e+01 1.804e+01 -7.846e-01 -5.904e-01 3.931e-01
2646 1 2.831e+01 3.004e+01 1.972e+01 -5.994e-01 -1.087e+00 -2.386e-01
2703 1 2.662e+01 2.665e+01 2.141e+01 1.770e-02 6.605e-01 -1.120e+00
2720 1 2.493e+01 2.834e+01 2.141e+01 9.846e-01 -6.511e-01 -1.470e+00
2721 1 2.662e+01 3.004e+01 2.141e+01 9.106e-02 -1.198e+00 -9.838e-01
2724 1 2.831e+01 2.835e+01 2.141e+01 -8.266e-01 -4.458e-01 -1.007e+00
