ITEM: TIMESTEP
0
ITEM: NUMBER OF ATOMS
12
ITEM: BOX BOUNDS xy xz yz pp pp pp
                     0.00000000000000e+00 3.10513001000000e+01 0.00000000000000e+00
0.00000000000000e+00	3.10513001000000e+01	0.00000000000000e+00
0.00000000000000e+00	3.10513001000000e+01	0.00000000000000e+00
ITEM: ATOMS id type x y z DisplacementX DisplacementY DisplacementZ
2623 1 2.662e+01 2.665e+01 1.803e+01 1.616e-01 4.520e-01 6.401e-01
2625 1 2.492e+01 2.664e+01 1.972e+01 9.576e-01 4.294e-01 -1.462e-01
2629 1 2.831e+01 2.665e+01 1.972e+01 -1.021e+00 6.791e-01 -4.121e-01
2640 1 2.493e+01 2.834e+01 1.804e+01 9.414e-01 -4.190e-01 7.669e-01
2641 1 2.662e+01 3.004e+01 1.803e+01 -3.454e-02 -1.014e+00 8.493e-01
2642 1 2.493e+01 3.004e+01 1.972e+01 8.534e-01 -1.228e+00 -4.231e-01
2643 1 2.831e+01 2.835e+01 1.804e+01 -7.863e-01 -6.272e-01 3.818e-01
2646 1 2.831e+01 3.004e+01 1.972e+01 -6.031e-01 -1.041e+00 -2.171e-01
2703 1 2.662e+01 2.665e+01 2.141e+01 2.258e-03 6.343e-01 -1.147e+00
2720 1 2.493e+01 2.834e+01 2.141e+01 9.857e-01 -6.503e-01 -1.454e+00
2721 1 2.662e+01 3.004e+01 2.141e+01 5.483e-02 -1.204e+00 -9.835e-01
2724 1 2.831e+01 2.835e+01 2.141e+01 -8.297e-01 -4.254e-01 -1.033e+00
ITEM: TIMESTEP
1
ITEM: NUMBER OF ATOMS
12
ITEM: BOX BOUNDS xy xz yz pp pp pp
                     0.00000000000000e+00 3.10513001000000e+01 0.00000000000000e+00
0.00000000000000e+00	3.10513001000000e+01	0.00000000000000e+00
0.00000000000000e+00	3.10513001000000e+01	0.00000000000000e+00
ITEM: ATOMS id type x y z DisplacementX DisplacementY DisplacementZ
2623 1 2.662e+01 2.665e+01 1.803e+01 1.694e-01 4.405e-01 6.486e-01
2625 1 2.492e+01 2.664e+01 1.972e+01 9.480e-01 4.552e-01 -1.229e-01
2629 1 2.831e+01 2.665e+01 1.972e+01 -1.019e+00 6.641e-01 -4.474e-01
2640 1 2.493e+01 2.834e+01 1.804e+01 9.370e-01 -4.134e-01 7.498e-01
2641 1 2.662e+01 3.004e+01 1.803e+01 -5.124e-02 -1.039e+00 8.024e-01
2642 1 2.493e+01 3.004e+01 1.972e+01 8.631e-01 -1.236e+00 -4.031e-01
2643 1 2.831e+01 2.835e+01 1.804e+01 -7.728e-01 -6.103e-01 3.668e-01
2646 1 2.831e+01 3.004e+01 1.972e+01 -6.229e-01 -1.038e+00 -2.250e-01
2703 1 2.662e+01 2.665e+01 2.141e+01 1.786e-02 6.418e-01 -1.141e+00
2720 1 2.493e+01 2.834e+01 2.141e+01 9.706e-01 -6.620e-01 -1.462e+00
2721 1 2.662e+01 3.004e+01 2.141e+01 7.342e-02 -1.198e+00 -9.855e-01
2724 1 2.831e+01 2.835e+01 2.141e+01 -8.419e-01 -3.859e-01 -1.007e+00
ITEM: TIMESTEP
2
ITEM: NUMBER OF ATOMS
12
ITEM: BOX BOUNDS xy xz yz pp pp pp
                     0.00000000000000e+00 3.10513001000000e+01 0.00000000000000e+00
0.00000000000000e+00	3.10513001000000e+01	0.00000000000000e+00
0.00000000000000e+00	3.10513001000000e+01	0.00000000000000e+00
ITEM: ATOMS id type x y z DisplacementX DisplacementY DisplacementZ
2623 1 2.662e+01 2.665e+01 1.803e+01 1.780e-01 4.174e-01 6.411e-01
2625 1 2.492e+01 2.664e+01 1.972e+01 9.574e-01 4.698e-01 -1.302e-01
2629 1 2.831e+01 2.665e+01 1.972e+01 -1.007e+00 6.875e-01 -3.992e-01
2640 1 2.493e+01 2.834e+01 1.804e+01 9.375e-01 -4.195e-01 7.688e-01
2641 1 2.662e+01 3.004e+01 1.803e+01 -4.802e-02 -1.014e+00 8.310e-01
2642 1 2.493e+01 3.004e+01 1.972e+01 8.710e-01 -1.235e+00 -4.214e-01
2643 1 2.831e+01 2.835e+01 1.804e+01 -7.761e-01 -6.215e-01 3.683e-01
2646 1 2.831e+01 3.004e+01 1.972e+01 -6.195e-01 -1.062e+00 -2.227e-01
2703 1 2.662e+01 2.665e+01 2.141e+01 1.035e-02 6.344e-01 -1.161e+00
2720 1 2.493e+01 2.834e+01 2.141e+01 9.940e-01 -6.456e-01 -1.439e+00
2721 1 2.662e+01 3.004e+01 2.141e+01 7.336e-02 -1.219e+00 -9.846e-01
2724 1 2.831e+01 2.835e+01 2.141e+01 -8.440e-01 -4.005e-01 -1.008e+00
