ITEM: TIMESTEP
0
ITEM: NUMBER OF ATOMS
12
ITEM: BOX BOUNDS xy xz yz pp pp pp
                     0.00000000000000e+00 3.10513001000000e+01 0.00000000000000e+00
0.00000000000000e+00	3.10513001000000e+01	0.00000000000000e+00
0.00000000000000e+00	3.10513001000000e+01	0.00000000000000e+00
ITEM: ATOMS id type x y z DisplacementX DisplacementY DisplacementZ
2623 1 2.662e+01 2.665e+01 1.803e+01 -6.398e-03 1.574e+00 1.654e+00
2625 1 2.492e+01 2.664e+01 1.972e+01 1.483e+00 1.497e+00 1.131e-01
2629 1 2.831e+01 2.665e+01 1.972e+01 -1.623e+00 1.600e+00 3.948e-02
2640 1 2.493e+01 2.834e+01 1.804e+01 1.646e+00 1.909e-02 1.644e+00
2641 1 2.662e+01 3.004e+01 1.803e+01 2.256e-03 -1.664e+00 1.651e+00
2642 1 2.493e+01 3.004e+01 1.972e+01 1.609e+00 -1.672e+00 6.328e-02
2643 1 2.831e+01 2.835e+01 1.804e+01 -1.590e+00 -8.731e-02 1.586e+00
2646 1 2.831e+01 3.004e+01 1.972e+01 -1.201e+00 1.995e+00 1.058e+00
2703 1 2.662e+01 2.665e+01 2.141e+01 -3.358e-03 1.619e+00 -1.560e+00
2720 1 2.493e+01 2.834e+01 2.141e+01 1.714e+00 6.862e-02 -1.739e+00
2721 1 2.662e+01 3.004e+01 2.141e+01 -3.726e-03 -1.627e+00 -1.491e+00
2724 1 2.831e+01 2.835e+01 2.141e+01 -1.694e+00 4.994e-02 -1.580e+00
ITEM: TIMESTEP
1
ITEM: NUMBER OF ATOMS
12
ITEM: BOX BOUNDS xy xz yz pp pp pp
                     0.00000000000000e+00 3.10513001000000e+01 0.00000000000000e+00
0.00000000000000e+00	3.10513001000000e+01	0.00000000000000e+00
0.00000000000000e+00	3.10513001000000e+01	0.00000000000000e+00
ITEM: ATOMS id type x y z DisplacementX DisplacementY DisplacementZ
2556 1 2.661e+01 2.492e+01 1.631e+01 2.729e-02 1.566e+00 1.662e+00
2557 1 2.492e+01 2.661e+01 1.631e+01 1.641e+00 9.516e-03 1.656e+00
2559 1 2.831e+01 2.662e+01 1.631e+01 -1.565e+00 -1.265e-01 1.565e+00
2565 1 2.662e+01 2.831e+01 1.631e+01 -1.154e-02 -1.672e+00 1.666e+00
2622 1 2.491e+01 2.491e+01 1.799e+01 1.469e+00 1.435e+00 1.451e-01
2623 1 2.662e+01 2.831e+01 1.968e+01 -1.473e-02 -1.636e+00 -1.511e+00
2624 1 2.661e+01 2.492e+01 1.968e+01 2.633e-02 1.619e+00 -1.562e+00
2625 1 2.492e+01 2.661e+01 1.968e+01 1.699e+00 5.046e-02 -1.720e+00
2626 1 2.831e+01 2.493e+01 1.800e+01 -1.594e+00 1.565e+00 3.166e-02
2629 1 2.831e+01 2.662e+01 1.968e+01 -1.666e+00 1.616e-02 -1.570e+00
2640 1 2.493e+01 2.831e+01 1.800e+01 1.600e+00 -1.671e+00 6.779e-02
2643 1 2.831e+01 2.831e+01 1.800e+01 -1.171e+00 1.960e+00 1.056e+00
ITEM: TIMESTEP
2
ITEM: NUMBER OF ATOMS
12
ITEM: BOX BOUNDS xy xz yz pp pp pp
                     0.00000000000000e+00 3.10513001000000e+01 0.00000000000000e+00
0.00000000000000e+00	3.10513001000000e+01	0.00000000000000e+00
0.00000000000000e+00	3.10513001000000e+01	0.00000000000000e+00
ITEM: ATOMS id type x y z DisplacementX DisplacementY DisplacementZ
2510 1 2.661e+01 2.320e+01 1.459e+01 6.763e-02 1.561e+00 1.664e+00
2518 1 2.492e+01 2.488e+01 1.459e+01 1.649e+00 -3.929e-03 1.655e+00
2519 1 2.662e+01 2.658e+01 1.459e+01 -2.184e-02 -1.684e+00 1.684e+00
2520 1 2.831e+01 2.489e+01 1.459e+01 -1.521e+00 -1.743e-01 1.523e+00
2548 1 2.491e+01 2.318e+01 1.627e+01 1.491e+00 1.355e+00 1.440e-01
2550 1 2.831e+01 2.320e+01 1.627e+01 -1.554e+00 1.523e+00 1.474e-02
2556 1 2.662e+01 2.658e+01 1.796e+01 -2.724e-02 -1.644e+00 -1.553e+00
2557 1 2.492e+01 2.658e+01 1.627e+01 1.598e+00 -1.661e+00 7.620e-02
2559 1 2.831e+01 2.659e+01 1.627e+01 -1.138e+00 1.926e+00 1.044e+00
2605 1 2.661e+01 2.320e+01 1.795e+01 8.234e-02 1.623e+00 -1.586e+00
2622 1 2.492e+01 2.488e+01 1.795e+01 1.688e+00 1.845e-02 -1.680e+00
2626 1 2.831e+01 2.489e+01 1.796e+01 -1.618e+00 -2.827e-02 -1.573e+00
ITEM: TIMESTEP
3
ITEM: NUMBER OF ATOMS
12
ITEM: BOX BOUNDS xy xz yz pp pp pp
                     0.00000000000000e+00 3.10513001000000e+01 0.00000000000000e+00
0.00000000000000e+00	3.10513001000000e+01	0.00000000000000e+00
0.00000000000000e+00	3.10513001000000e+01	0.00000000000000e+00
ITEM: ATOMS id type x y z DisplacementX DisplacementY DisplacementZ
2519 1 2.665e+01 2.662e+01 1.459e+01 1.636e+00 -1.789e-03 1.626e+00
2520 1 2.834e+01 2.493e+01 1.459e+01 1.939e-02 1.584e+00 1.656e+00
2521 1 3.004e+01 2.662e+01 1.459e+01 -1.532e+00 -1.268e-01 1.519e+00
2529 1 2.835e+01 2.831e+01 1.459e+01 -6.124e-03 -1.666e+00 1.667e+00
2556 1 2.664e+01 2.492e+01 1.627e+01 1.518e+00 1.453e+00 9.325e-02
2558 1 3.004e+01 2.493e+01 1.627e+01 -1.593e+00 1.559e+00 1.589e-02
2559 1 2.665e+01 2.662e+01 1.796e+01 1.699e+00 3.106e-02 -1.687e+00
2565 1 2.665e+01 2.831e+01 1.627e+01 1.613e+00 -1.659e+00 5.879e-02
2567 1 3.004e+01 2.832e+01 1.627e+01 -1.185e+00 1.985e+00 1.044e+00
2626 1 2.834e+01 2.493e+01 1.796e+01 4.962e-02 1.613e+00 -1.591e+00
2627 1 3.004e+01 2.662e+01 1.796e+01 -1.639e+00 1.485e-03 -1.592e+00
2643 1 2.835e+01 2.831e+01 1.796e+01 -1.301e-02 -1.631e+00 -1.558e+00
ITEM: TIMESTEP
4
ITEM: NUMBER OF ATOMS
12
ITEM: BOX BOUNDS xy xz yz pp pp pp
                     0.00000000000000e+00 3.10513001000000e+01 0.00000000000000e+00
0.00000000000000e+00	3.10513001000000e+01	0.00000000000000e+00
0.00000000000000e+00	3.10513001000000e+01	0.00000000000000e+00
ITEM: ATOMS id type x y z DisplacementX DisplacementY DisplacementZ
2510 1 2.661e+01 2.320e+01 1.459e+01 6.768e-02 1.561e+00 1.664e+00
2518 1 2.492e+01 2.488e+01 1.459e+01 1.649e+00 -3.960e-03 1.655e+00
2519 1 2.662e+01 2.658e+01 1.459e+01 -2.181e-02 -1.684e+00 1.684e+00
2520 1 2.831e+01 2.489e+01 1.459e+01 -1.521e+00 -1.743e-01 1.523e+00
2548 1 2.491e+01 2.319e+01 1.627e+01 1.491e+00 1.355e+00 1.440e-01
2550 1 2.831e+01 2.320e+01 1.627e+01 -1.554e+00 1.523e+00 1.474e-02
2556 1 2.831e+01 2.659e+01 1.627e+01 -1.138e+00 1.926e+00 1.044e+00
2557 1 2.492e+01 2.658e+01 1.627e+01 1.598e+00 -1.661e+00 7.619e-02
2559 1 2.662e+01 2.658e+01 1.796e+01 -2.725e-02 -1.644e+00 -1.553e+00
2605 1 2.661e+01 2.320e+01 1.795e+01 8.231e-02 1.623e+00 -1.586e+00
2622 1 2.492e+01 2.488e+01 1.796e+01 1.688e+00 1.851e-02 -1.680e+00
2626 1 2.831e+01 2.489e+01 1.796e+01 -1.618e+00 -2.833e-02 -1.573e+00
ITEM: TIMESTEP
5
ITEM: NUMBER OF ATOMS
12
ITEM: BOX BOUNDS xy xz yz pp pp pp
                     0.00000000000000e+00 3.10513001000000e+01 0.00000000000000e+00
0.00000000000000e+00	3.10513001000000e+01	0.00000000000000e+00
0.00000000000000e+00	3.10513001000000e+01	0.00000000000000e+00
ITEM: ATOMS id type x y z DisplacementX DisplacementY DisplacementZ
2510 1 2.664e+01 2.316e+01 1.459e+01 1.655e+00 -4.804e-02 1.587e+00
2511 1 2.834e+01 2.148e+01 1.459e+01 6.147e-02 1.556e+00 1.652e+00
2512 1 3.004e+01 2.317e+01 1.459e+01 -1.462e+00 -2.012e-01 1.466e+00
2520 1 2.834e+01 2.485e+01 1.459e+01 -9.345e-03 -1.680e+00 1.698e+00
2547 1 2.664e+01 2.147e+01 1.627e+01 1.593e+00 1.390e+00 8.229e-02
2549 1 3.004e+01 2.148e+01 1.627e+01 -1.576e+00 1.520e+00 7.080e-04
2550 1 2.665e+01 2.485e+01 1.627e+01 1.640e+00 -1.653e+00 4.310e-02
2558 1 3.004e+01 2.486e+01 1.627e+01 -1.164e+00 1.946e+00 1.039e+00
2605 1 2.664e+01 2.316e+01 1.796e+01 1.710e+00 -3.375e-02 -1.624e+00
2608 1 2.834e+01 2.148e+01 1.796e+01 9.096e-02 1.609e+00 -1.619e+00
2609 1 3.004e+01 2.317e+01 1.796e+01 -1.564e+00 -8.288e-02 -1.585e+00
2626 1 2.834e+01 2.485e+01 1.796e+01 -1.324e-02 -1.657e+00 -1.614e+00
ITEM: TIMESTEP
6
ITEM: NUMBER OF ATOMS
12
ITEM: BOX BOUNDS xy xz yz pp pp pp
                     0.00000000000000e+00 3.10513001000000e+01 0.00000000000000e+00
0.00000000000000e+00	3.10513001000000e+01	0.00000000000000e+00
0.00000000000000e+00	3.10513001000000e+01	0.00000000000000e+00
ITEM: ATOMS id type x y z DisplacementX DisplacementY DisplacementZ
1069 1 7.173e-01 2.490e+01 1.459e+01 -1.490e+00 -1.488e-01 1.468e+00
1100 1 7.166e-01 2.321e+01 1.627e+01 -1.606e+00 1.544e+00 5.669e-03
1109 1 7.188e-01 2.659e+01 1.627e+01 -1.203e+00 2.000e+00 1.041e+00
1169 1 7.170e-01 2.490e+01 1.796e+01 -1.602e+00 -4.540e-02 -1.601e+00
2512 1 3.007e+01 2.321e+01 1.459e+01 1.588e-02 1.578e+00 1.654e+00
2520 1 2.838e+01 2.489e+01 1.459e+01 1.621e+00 -3.216e-02 1.586e+00
2521 1 3.007e+01 2.658e+01 1.459e+01 -4.517e-03 -1.662e+00 1.677e+00
2556 1 2.838e+01 2.659e+01 1.627e+01 1.629e+00 -1.654e+00 3.990e-02
2558 1 2.838e+01 2.489e+01 1.796e+01 1.696e+00 -3.688e-03 -1.646e+00
2609 1 3.007e+01 2.321e+01 1.796e+01 5.313e-02 1.612e+00 -1.615e+00
2626 1 2.837e+01 2.320e+01 1.627e+01 1.570e+00 1.468e+00 6.254e-02
2627 1 3.007e+01 2.658e+01 1.796e+01 -9.332e-03 -1.640e+00 -1.609e+00
ITEM: TIMESTEP
7
ITEM: NUMBER OF ATOMS
12
ITEM: BOX BOUNDS xy xz yz pp pp pp
                     0.00000000000000e+00 3.10513001000000e+01 0.00000000000000e+00
0.00000000000000e+00	3.10513001000000e+01	0.00000000000000e+00
0.00000000000000e+00	3.10513001000000e+01	0.00000000000000e+00
ITEM: ATOMS id type x y z DisplacementX DisplacementY DisplacementZ
1069 1 7.500e-01 2.494e+01 1.459e+01 -1.637e-02 1.610e+00 1.655e+00
1070 1 2.446e+00 2.662e+01 1.459e+01 -1.515e+00 -8.278e-02 1.480e+00
1078 1 7.510e-01 2.831e+01 1.459e+01 3.361e-03 -1.647e+00 1.656e+00
1108 1 2.448e+00 2.493e+01 1.627e+01 -1.606e+00 1.548e+00 8.744e-03
1109 1 3.011e+01 2.662e+01 1.796e+01 1.700e+00 2.919e-02 -1.674e+00
1117 1 2.447e+00 2.832e+01 1.627e+01 -1.218e+00 2.038e+00 1.030e+00
1169 1 7.497e-01 2.494e+01 1.796e+01 2.655e-02 1.634e+00 -1.627e+00
1170 1 2.446e+00 2.662e+01 1.796e+01 -1.641e+00 6.156e-03 -1.636e+00
1187 1 7.507e-01 2.831e+01 1.796e+01 -7.176e-03 -1.619e+00 -1.601e+00
2521 1 3.011e+01 2.662e+01 1.459e+01 1.613e+00 -1.666e-02 1.582e+00
2567 1 3.011e+01 2.832e+01 1.627e+01 1.616e+00 -1.650e+00 4.897e-02
2627 1 3.010e+01 2.493e+01 1.627e+01 1.554e+00 1.521e+00 4.390e-02
ITEM: TIMESTEP
8
ITEM: NUMBER OF ATOMS
12
ITEM: BOX BOUNDS xy xz yz pp pp pp
                     0.00000000000000e+00 3.10513001000000e+01 0.00000000000000e+00
0.00000000000000e+00	3.10513001000000e+01	0.00000000000000e+00
0.00000000000000e+00	3.10513001000000e+01	0.00000000000000e+00
ITEM: ATOMS id type x y z DisplacementX DisplacementY DisplacementZ
1078 1 7.165e-01 2.835e+01 1.459e+01 -1.546e+00 -7.428e-02 1.521e+00
1109 1 3.007e+01 2.666e+01 1.796e+01 2.737e-02 1.628e+00 -1.604e+00
1118 1 7.191e-01 3.005e+01 1.627e+01 -1.202e+00 2.021e+00 1.034e+00
1187 1 7.161e-01 2.835e+01 1.796e+01 -1.662e+00 3.956e-02 -1.621e+00
2521 1 3.007e+01 2.666e+01 1.459e+01 -1.187e-02 1.615e+00 1.651e+00
2529 1 2.838e+01 2.835e+01 1.459e+01 1.632e+00 7.331e-03 1.611e+00
2530 1 3.007e+01 3.004e+01 1.459e+01 4.596e-03 -1.652e+00 1.652e+00
2556 1 2.838e+01 2.665e+01 1.627e+01 1.529e+00 1.517e+00 6.148e-02
2567 1 7.182e-01 2.666e+01 1.627e+01 -1.604e+00 1.575e+00 1.639e-02
2568 1 2.838e+01 3.004e+01 1.627e+01 1.612e+00 -1.651e+00 6.091e-02
2643 1 2.838e+01 2.835e+01 1.796e+01 1.710e+00 5.544e-02 -1.700e+00
2644 1 3.007e+01 3.004e+01 1.796e+01 -6.452e-03 -1.612e+00 -1.565e+00
ITEM: TIMESTEP
9
ITEM: NUMBER OF ATOMS
12
ITEM: BOX BOUNDS xy xz yz pp pp pp
                     0.00000000000000e+00 3.10513001000000e+01 0.00000000000000e+00
0.00000000000000e+00	3.10513001000000e+01	0.00000000000000e+00
0.00000000000000e+00	3.10513001000000e+01	0.00000000000000e+00
ITEM: ATOMS id type x y z DisplacementX DisplacementY DisplacementZ
1109 1 3.004e+01 2.662e+01 1.796e+01 -1.639e+00 1.483e-03 -1.592e+00
2519 1 2.665e+01 2.662e+01 1.459e+01 1.636e+00 -1.813e-03 1.626e+00
2520 1 2.834e+01 2.493e+01 1.459e+01 1.938e-02 1.584e+00 1.656e+00
2521 1 3.004e+01 2.662e+01 1.459e+01 -1.532e+00 -1.268e-01 1.519e+00
2529 1 2.835e+01 2.831e+01 1.459e+01 -6.140e-03 -1.666e+00 1.667e+00
2550 1 2.664e+01 2.492e+01 1.627e+01 1.518e+00 1.453e+00 9.330e-02
2556 1 3.004e+01 2.832e+01 1.627e+01 -1.185e+00 1.985e+00 1.044e+00
2558 1 2.834e+01 2.493e+01 1.796e+01 4.967e-02 1.613e+00 -1.591e+00
2559 1 2.665e+01 2.662e+01 1.796e+01 1.699e+00 3.107e-02 -1.687e+00
2565 1 2.665e+01 2.831e+01 1.627e+01 1.613e+00 -1.659e+00 5.881e-02
2627 1 3.004e+01 2.493e+01 1.627e+01 -1.593e+00 1.559e+00 1.586e-02
2643 1 2.835e+01 2.831e+01 1.796e+01 -1.300e-02 -1.631e+00 -1.558e+00
