ITEM: TIMESTEP
0
ITEM: NUMBER OF ATOMS
12
ITEM: BOX BOUNDS xy xz yz pp pp pp
                     0.00000000000000e+00 3.10513001000000e+01 0.00000000000000e+00
0.00000000000000e+00	3.10513001000000e+01	0.00000000000000e+00
0.00000000000000e+00	3.10513001000000e+01	0.00000000000000e+00
ITEM: ATOMS id type x y z DisplacementX DisplacementY DisplacementZ
2623 1 2.662e+01 2.665e+01 1.803e+01 -6.398e-03 1.574e+00 1.654e+00
2625 1 2.492e+01 2.664e+01 1.972e+01 1.483e+00 1.497e+00 1.131e-01
2629 1 2.831e+01 2.665e+01 1.972e+01 -1.623e+00 1.600e+00 3.948e-02
2640 1 2.493e+01 2.834e+01 1.804e+01 1.646e+00 1.909e-02 1.644e+00
2641 1 2.662e+01 3.004e+01 1.803e+01 2.256e-03 -1.664e+00 1.651e+00
2642 1 2.493e+01 3.004e+01 1.972e+01 1.609e+00 -1.672e+00 6.328e-02
2643 1 2.831e+01 2.835e+01 1.804e+01 -1.590e+00 -8.731e-02 1.586e+00
2646 1 2.831e+01 3.004e+01 1.972e+01 -1.201e+00 1.995e+00 1.058e+00
2703 1 2.662e+01 2.665e+01 2.141e+01 -3.358e-03 1.619e+00 -1.560e+00
2720 1 2.493e+01 2.834e+01 2.141e+01 1.714e+00 6.862e-02 -1.739e+00
2721 1 2.662e+01 3.004e+01 2.141e+01 -3.726e-03 -1.627e+00 -1.491e+00
2724 1 2.831e+01 2.835e+01 2.141e+01 -1.694e+00 4.994e-02 -1.580e+00
