ITEM: TIMESTEP
0
ITEM: NUMBER OF ATOMS
12
ITEM: BOX BOUNDS xy xz yz pp pp pp
                     0.00000000000000e+00 3.10513001000000e+01 0.00000000000000e+00
0.00000000000000e+00	3.10513001000000e+01	0.00000000000000e+00
0.00000000000000e+00	3.10513001000000e+01	0.00000000000000e+00
ITEM: ATOMS id type x y z DisplacementX DisplacementY DisplacementZ
2623 1 2.662e+01 2.665e+01 1.803e+01 1.168e-01 4.969e-01 6.873e-01
2625 1 2.492e+01 2.664e+01 1.972e+01 8.551e-01 7.313e-01 3.191e-02
2629 1 2.831e+01 2.665e+01 1.972e+01 -1.003e+00 1.072e+00 -3.712e-01
2640 1 2.493e+01 2.834e+01 1.804e+01 8.539e-01 -1.298e-01 8.708e-01
2641 1 2.662e+01 3.004e+01 1.803e+01 -1.001e-01 -8.364e-01 8.246e-01
2642 1 2.493e+01 3.004e+01 1.972e+01 7.587e-01 -8.121e-01 -2.465e-01
2643 1 2.831e+01 2.835e+01 1.804e+01 -9.165e-01 2.200e-02 5.924e-01
2646 1 2.831e+01 3.004e+01 1.972e+01 -5.214e-01 1.051e+00 4.412e-01
2703 1 2.662e+01 2.665e+01 2.141e+01 -1.213e-01 9.898e-01 -1.042e+00
2720 1 2.493e+01 2.834e+01 2.141e+01 7.859e-01 -4.445e-02 -1.205e+00
2721 1 2.662e+01 3.004e+01 2.141e+01 2.060e-02 -1.134e+00 -9.059e-01
2724 1 2.831e+01 2.835e+01 2.141e+01 -9.217e-01 -6.653e-03 -8.873e-01
