ITEM: TIMESTEP
0
ITEM: NUMBER OF ATOMS
12
ITEM: BOX BOUNDS xy xz yz pp pp pp
                     0.00000000000000e+00 3.10513001000000e+01 0.00000000000000e+00
0.00000000000000e+00	3.10513001000000e+01	0.00000000000000e+00
0.00000000000000e+00	3.10513001000000e+01	0.00000000000000e+00
ITEM: ATOMS id type x y z DisplacementX DisplacementY DisplacementZ
2623 1 2.662e+01 2.665e+01 1.803e+01 -6.398e-03 1.574e+00 1.654e+00
2625 1 2.492e+01 2.664e+01 1.972e+01 1.483e+00 1.497e+00 1.131e-01
2629 1 2.831e+01 2.665e+01 1.972e+01 -1.623e+00 1.600e+00 3.948e-02
2640 1 2.493e+01 2.834e+01 1.804e+01 1.646e+00 1.909e-02 1.644e+00
2641 1 2.662e+01 3.004e+01 1.803e+01 2.256e-03 -1.664e+00 1.651e+00
2642 1 2.493e+01 3.004e+01 1.972e+01 1.609e+00 -1.672e+00 6.328e-02
2643 1 2.831e+01 2.835e+01 1.804e+01 -1.590e+00 -8.731e-02 1.586e+00
2646 1 2.831e+01 3.004e+01 1.972e+01 -1.201e+00 1.995e+00 1.058e+00
2703 1 2.662e+01 2.665e+01 2.141e+01 -3.358e-03 1.619e+00 -1.560e+00
2720 1 2.493e+01 2.834e+01 2.141e+01 1.714e+00 6.862e-02 -1.739e+00
2721 1 2.662e+01 3.004e+01 2.141e+01 -3.726e-03 -1.627e+00 -1.491e+00
2724 1 2.831e+01 2.835e+01 2.141e+01 -1.694e+00 4.994e-02 -1.580e+00
ITEM: TIMESTEP
1
ITEM: NUMBER OF ATOMS
12
ITEM: BOX BOUNDS xy xz yz pp pp pp
                     0.00000000000000e+00 3.10513001000000e+01 0.00000000000000e+00
0.00000000000000e+00	3.10513001000000e+01	0.00000000000000e+00
0.00000000000000e+00	3.10513001000000e+01	0.00000000000000e+00
ITEM: ATOMS id type x y z DisplacementX DisplacementY DisplacementZ
1860 1 2.665e+01 7.185e-01 1.972e+01 1.611e+00 -1.659e+00 7.010e-02
1862 1 2.835e+01 7.169e-01 1.803e+01 1.225e-02 -1.656e+00 1.647e+00
1864 1 3.004e+01 7.194e-01 1.972e+01 -1.216e+00 2.029e+00 1.045e+00
1941 1 2.835e+01 7.170e-01 2.141e+01 -4.061e-03 -1.606e+00 -1.525e+00
2641 1 2.666e+01 3.007e+01 1.804e+01 1.639e+00 2.005e-02 1.629e+00
2643 1 2.835e+01 2.838e+01 1.803e+01 -2.368e-02 1.613e+00 1.648e+00
2644 1 3.004e+01 3.008e+01 1.804e+01 -1.578e+00 -5.882e-02 1.561e+00
2645 1 3.004e+01 2.838e+01 1.972e+01 -1.621e+00 1.611e+00 2.983e-02
2646 1 2.666e+01 3.007e+01 2.141e+01 1.720e+00 8.356e-02 -1.728e+00
2721 1 2.665e+01 2.838e+01 1.972e+01 1.516e+00 1.545e+00 7.143e-02
2724 1 2.835e+01 2.838e+01 2.141e+01 2.146e-03 1.628e+00 -1.579e+00
2725 1 3.004e+01 3.008e+01 2.141e+01 -1.689e+00 6.586e-02 -1.607e+00
ITEM: TIMESTEP
2
ITEM: NUMBER OF ATOMS
12
ITEM: BOX BOUNDS xy xz yz pp pp pp
                     0.00000000000000e+00 3.10513001000000e+01 0.00000000000000e+00
0.00000000000000e+00	3.10513001000000e+01	0.00000000000000e+00
0.00000000000000e+00	3.10513001000000e+01	0.00000000000000e+00
ITEM: ATOMS id type x y z DisplacementX DisplacementY DisplacementZ
403 1 7.185e-01 7.195e-01 1.800e+01 -1.205e+00 2.025e+00 1.034e+00
1118 1 7.155e-01 3.008e+01 1.631e+01 -1.564e+00 -5.301e-02 1.540e+00
1187 1 7.179e-01 2.838e+01 1.800e+01 -1.611e+00 1.599e+00 2.132e-02
1190 1 7.154e-01 3.008e+01 1.968e+01 -1.679e+00 6.592e-02 -1.624e+00
1816 1 3.007e+01 7.166e-01 1.631e+01 1.086e-02 -1.651e+00 1.647e+00
1862 1 2.838e+01 7.189e-01 1.800e+01 1.609e+00 -1.651e+00 6.767e-02
1864 1 3.007e+01 7.164e-01 1.968e+01 -3.748e-03 -1.603e+00 -1.554e+00
2567 1 3.007e+01 2.838e+01 1.631e+01 -2.641e-02 1.635e+00 1.646e+00
2568 1 2.838e+01 3.007e+01 1.631e+01 1.633e+00 1.907e-02 1.615e+00
2643 1 2.838e+01 2.838e+01 1.800e+01 1.526e+00 1.555e+00 5.484e-02
2644 1 2.838e+01 3.007e+01 1.968e+01 1.718e+00 8.161e-02 -1.718e+00
2645 1 3.007e+01 2.838e+01 1.968e+01 1.128e-02 1.639e+00 -1.599e+00
ITEM: TIMESTEP
3
ITEM: NUMBER OF ATOMS
12
ITEM: BOX BOUNDS xy xz yz pp pp pp
                     0.00000000000000e+00 3.10513001000000e+01 0.00000000000000e+00
0.00000000000000e+00	3.10513001000000e+01	0.00000000000000e+00
0.00000000000000e+00	3.10513001000000e+01	0.00000000000000e+00
ITEM: ATOMS id type x y z DisplacementX DisplacementY DisplacementZ
325 1 7.511e-01 7.168e-01 1.459e+01 1.245e-02 -1.648e+00 1.641e+00
365 1 2.446e+00 7.200e-01 1.627e+01 -1.195e+00 2.019e+00 1.029e+00
403 1 7.508e-01 7.165e-01 1.796e+01 -8.506e-04 -1.600e+00 -1.567e+00
1078 1 7.507e-01 2.838e+01 1.459e+01 -3.810e-02 1.653e+00 1.639e+00
1079 1 2.443e+00 3.008e+01 1.459e+01 -1.567e+00 -3.563e-02 1.541e+00
1117 1 2.447e+00 2.838e+01 1.627e+01 -1.604e+00 1.587e+00 2.114e-02
1118 1 3.011e+01 3.008e+01 1.796e+01 1.726e+00 8.469e-02 -1.722e+00
1187 1 7.504e-01 2.838e+01 1.796e+01 8.644e-03 1.651e+00 -1.616e+00
1188 1 2.443e+00 3.007e+01 1.796e+01 -1.685e+00 7.810e-02 -1.640e+00
1816 1 3.011e+01 7.195e-01 1.627e+01 1.611e+00 -1.645e+00 6.244e-02
2530 1 3.011e+01 3.008e+01 1.459e+01 1.639e+00 2.142e-02 1.597e+00
2567 1 3.011e+01 2.838e+01 1.627e+01 1.532e+00 1.574e+00 3.242e-02
ITEM: TIMESTEP
4
ITEM: NUMBER OF ATOMS
12
ITEM: BOX BOUNDS xy xz yz pp pp pp
                     0.00000000000000e+00 3.10513001000000e+01 0.00000000000000e+00
0.00000000000000e+00	3.10513001000000e+01	0.00000000000000e+00
0.00000000000000e+00	3.10513001000000e+01	0.00000000000000e+00
ITEM: ATOMS id type x y z DisplacementX DisplacementY DisplacementZ
365 1 2.443e+00 7.520e-01 1.631e+01 -1.565e+00 -4.536e-02 1.543e+00
366 1 7.510e-01 2.444e+00 1.631e+01 1.644e-02 -1.653e+00 1.645e+00
403 1 7.508e-01 3.011e+01 1.631e+01 -4.180e-02 1.668e+00 1.634e+00
404 1 2.447e+00 2.448e+00 1.800e+01 -1.183e+00 2.003e+00 1.029e+00
405 1 2.443e+00 7.519e-01 1.968e+01 -1.677e+00 7.973e-02 -1.636e+00
406 1 7.509e-01 2.444e+00 1.968e+01 3.265e-03 -1.601e+00 -1.575e+00
1118 1 3.011e+01 3.011e+01 1.800e+01 1.533e+00 1.604e+00 2.518e-02
1188 1 2.446e+00 3.011e+01 1.800e+01 -1.611e+00 1.612e+00 2.000e-02
1190 1 7.506e-01 3.011e+01 1.968e+01 3.368e-03 1.660e+00 -1.615e+00
1816 1 3.011e+01 7.518e-01 1.631e+01 1.634e+00 2.485e-02 1.594e+00
1863 1 3.011e+01 2.447e+00 1.800e+01 1.613e+00 -1.649e+00 6.152e-02
1864 1 3.011e+01 7.516e-01 1.968e+01 1.724e+00 9.644e-02 -1.725e+00
ITEM: TIMESTEP
5
ITEM: NUMBER OF ATOMS
12
ITEM: BOX BOUNDS xy xz yz pp pp pp
                     0.00000000000000e+00 3.10513001000000e+01 0.00000000000000e+00
0.00000000000000e+00	3.10513001000000e+01	0.00000000000000e+00
0.00000000000000e+00	3.10513001000000e+01	0.00000000000000e+00
ITEM: ATOMS id type x y z DisplacementX DisplacementY DisplacementZ
406 1 7.185e-01 2.447e+00 1.972e+01 -1.206e+00 2.024e+00 1.034e+00
483 1 7.157e-01 7.519e-01 2.141e+01 -1.677e+00 6.937e-02 -1.627e+00
1118 1 3.007e+01 3.011e+01 1.803e+01 -3.723e-02 1.655e+00 1.640e+00
1190 1 7.180e-01 3.011e+01 1.972e+01 -1.618e+00 1.620e+00 2.069e-02
1862 1 2.838e+01 7.514e-01 1.804e+01 1.624e+00 2.286e-02 1.611e+00
1863 1 3.007e+01 2.444e+00 1.803e+01 1.509e-02 -1.653e+00 1.648e+00
1864 1 7.156e-01 7.519e-01 1.803e+01 -1.564e+00 -5.036e-02 1.540e+00
1865 1 2.838e+01 2.447e+00 1.972e+01 1.605e+00 -1.651e+00 7.221e-02
1941 1 2.838e+01 7.514e-01 2.141e+01 1.716e+00 1.003e-01 -1.722e+00
1942 1 3.007e+01 2.444e+00 2.141e+01 -4.130e-03 -1.597e+00 -1.563e+00
2644 1 2.838e+01 3.011e+01 1.972e+01 1.531e+00 1.594e+00 4.007e-02
2725 1 3.007e+01 3.011e+01 2.141e+01 8.299e-04 1.651e+00 -1.604e+00
ITEM: TIMESTEP
6
ITEM: NUMBER OF ATOMS
12
ITEM: BOX BOUNDS xy xz yz pp pp pp
                     0.00000000000000e+00 3.10513001000000e+01 0.00000000000000e+00
0.00000000000000e+00	3.10513001000000e+01	0.00000000000000e+00
0.00000000000000e+00	3.10513001000000e+01	0.00000000000000e+00
ITEM: ATOMS id type x y z DisplacementX DisplacementY DisplacementZ
405 1 2.443e+00 7.520e-01 1.976e+01 -1.559e+00 -4.953e-02 1.535e+00
406 1 7.509e-01 2.444e+00 1.976e+01 1.600e-02 -1.649e+00 1.640e+00
483 1 3.011e+01 7.517e-01 1.976e+01 1.629e+00 2.768e-02 1.589e+00
484 1 2.446e+00 2.447e+00 2.145e+01 -1.201e+00 2.021e+00 1.033e+00
485 1 2.443e+00 7.522e-01 2.313e+01 -1.673e+00 7.822e-02 -1.639e+00
486 1 7.511e-01 2.444e+00 2.313e+01 3.413e-03 -1.593e+00 -1.574e+00
1190 1 7.506e-01 3.011e+01 1.976e+01 -4.315e-02 1.666e+00 1.633e+00
1269 1 2.445e+00 3.011e+01 2.145e+01 -1.623e+00 1.626e+00 1.730e-02
1271 1 7.508e-01 3.011e+01 2.313e+01 -2.931e-03 1.662e+00 -1.618e+00
1942 1 3.011e+01 2.446e+00 2.145e+01 1.621e+00 -1.646e+00 5.084e-02
1943 1 3.011e+01 7.518e-01 2.313e+01 1.718e+00 1.019e-01 -1.725e+00
2725 1 3.011e+01 3.011e+01 2.145e+01 1.543e+00 1.618e+00 2.207e-02
ITEM: TIMESTEP
7
ITEM: NUMBER OF ATOMS
12
ITEM: BOX BOUNDS xy xz yz pp pp pp
                     0.00000000000000e+00 3.10513001000000e+01 0.00000000000000e+00
0.00000000000000e+00	3.10513001000000e+01	0.00000000000000e+00
0.00000000000000e+00	3.10513001000000e+01	0.00000000000000e+00
ITEM: ATOMS id type x y z DisplacementX DisplacementY DisplacementZ
405 1 2.478e+00 7.884e-01 1.976e+01 -4.177e-02 1.678e+00 1.622e+00
406 1 7.863e-01 2.481e+00 1.976e+01 1.644e+00 2.368e-02 1.572e+00
410 1 4.171e+00 2.482e+00 1.976e+01 -1.552e+00 -6.891e-02 1.541e+00
423 1 2.480e+00 4.173e+00 1.976e+01 2.390e-02 -1.662e+00 1.645e+00
484 1 7.862e-01 2.480e+00 2.313e+01 1.728e+00 9.639e-02 -1.728e+00
485 1 2.478e+00 7.884e-01 2.313e+01 4.303e-03 1.662e+00 -1.619e+00
486 1 7.837e-01 7.859e-01 2.145e+01 1.545e+00 1.636e+00 3.454e-03
487 1 4.172e+00 7.862e-01 2.145e+01 -1.620e+00 1.641e+00 1.557e-02
490 1 4.171e+00 2.482e+00 2.313e+01 -1.656e+00 8.844e-02 -1.641e+00
501 1 7.840e-01 4.174e+00 2.145e+01 1.640e+00 -1.651e+00 3.495e-02
503 1 2.480e+00 4.173e+00 2.313e+01 1.994e-02 -1.599e+00 -1.596e+00
505 1 4.176e+00 4.178e+00 2.144e+01 -1.157e+00 1.979e+00 1.031e+00
ITEM: TIMESTEP
8
ITEM: NUMBER OF ATOMS
12
ITEM: BOX BOUNDS xy xz yz pp pp pp
                     0.00000000000000e+00 3.10513001000000e+01 0.00000000000000e+00
0.00000000000000e+00	3.10513001000000e+01	0.00000000000000e+00
0.00000000000000e+00	3.10513001000000e+01	0.00000000000000e+00
ITEM: ATOMS id type x y z DisplacementX DisplacementY DisplacementZ
406 1 7.511e-01 2.518e+00 1.976e+01 -2.745e-02 1.684e+00 1.634e+00
423 1 2.446e+00 4.208e+00 1.976e+01 -1.503e+00 -1.196e-01 1.495e+00
424 1 7.509e-01 5.896e+00 1.976e+01 1.291e-02 -1.666e+00 1.670e+00
484 1 7.513e-01 2.517e+00 2.313e+01 1.247e-02 1.673e+00 -1.638e+00
501 1 2.446e+00 2.515e+00 2.145e+01 -1.614e+00 1.640e+00 7.989e-04
502 1 2.449e+00 5.901e+00 2.145e+01 -1.172e+00 1.974e+00 1.031e+00
503 1 2.446e+00 4.208e+00 2.313e+01 -1.612e+00 2.732e-02 -1.635e+00
504 1 7.512e-01 5.896e+00 2.313e+01 4.742e-03 -1.616e+00 -1.627e+00
1882 1 3.011e+01 4.207e+00 1.976e+01 1.588e+00 -6.869e-03 1.571e+00
1942 1 3.011e+01 2.514e+00 2.145e+01 1.549e+00 1.640e+00 8.742e-03
1960 1 3.010e+01 5.899e+00 2.145e+01 1.612e+00 -1.665e+00 5.235e-02
1961 1 3.011e+01 4.207e+00 2.313e+01 1.694e+00 8.604e-02 -1.695e+00
ITEM: TIMESTEP
9
ITEM: NUMBER OF ATOMS
12
ITEM: BOX BOUNDS xy xz yz pp pp pp
                     0.00000000000000e+00 3.10513001000000e+01 0.00000000000000e+00
0.00000000000000e+00	3.10513001000000e+01	0.00000000000000e+00
0.00000000000000e+00	3.10513001000000e+01	0.00000000000000e+00
ITEM: ATOMS id type x y z DisplacementX DisplacementY DisplacementZ
405 1 2.478e+00 7.884e-01 1.976e+01 -4.178e-02 1.678e+00 1.622e+00
406 1 7.863e-01 2.481e+00 1.976e+01 1.644e+00 2.368e-02 1.572e+00
410 1 4.171e+00 2.482e+00 1.976e+01 -1.552e+00 -6.892e-02 1.541e+00
423 1 2.480e+00 4.173e+00 1.976e+01 2.391e-02 -1.662e+00 1.645e+00
484 1 7.862e-01 2.480e+00 2.313e+01 1.728e+00 9.641e-02 -1.728e+00
485 1 2.478e+00 7.884e-01 2.313e+01 4.305e-03 1.662e+00 -1.619e+00
486 1 7.837e-01 7.859e-01 2.145e+01 1.545e+00 1.636e+00 3.466e-03
487 1 4.172e+00 7.862e-01 2.145e+01 -1.620e+00 1.641e+00 1.559e-02
490 1 4.171e+00 2.482e+00 2.313e+01 -1.656e+00 8.845e-02 -1.641e+00
501 1 7.840e-01 4.174e+00 2.145e+01 1.640e+00 -1.652e+00 3.495e-02
503 1 2.480e+00 4.173e+00 2.313e+01 1.995e-02 -1.599e+00 -1.596e+00
505 1 4.176e+00 4.178e+00 2.144e+01 -1.157e+00 1.979e+00 1.031e+00
ITEM: TIMESTEP
10
ITEM: NUMBER OF ATOMS
12
ITEM: BOX BOUNDS xy xz yz pp pp pp
                     0.00000000000000e+00 3.10513001000000e+01 0.00000000000000e+00
0.00000000000000e+00	3.10513001000000e+01	0.00000000000000e+00
0.00000000000000e+00	3.10513001000000e+01	0.00000000000000e+00
ITEM: ATOMS id type x y z DisplacementX DisplacementY DisplacementZ
484 1 7.848e-01 2.447e+00 2.317e+01 1.642e+00 -1.641e+00 2.952e-02
485 1 2.479e+00 2.447e+00 2.148e+01 1.943e-02 -1.647e+00 1.626e+00
486 1 7.868e-01 7.532e-01 2.148e+01 1.646e+00 3.782e-02 1.573e+00
487 1 4.169e+00 7.533e-01 2.148e+01 -1.569e+00 -4.182e-02 1.546e+00
490 1 4.173e+00 2.450e+00 2.317e+01 -1.206e+00 2.026e+00 1.037e+00
564 1 7.868e-01 7.535e-01 2.486e+01 1.726e+00 1.079e-01 -1.736e+00
565 1 2.479e+00 2.446e+00 2.486e+01 1.124e-02 -1.586e+00 -1.568e+00
568 1 4.169e+00 7.537e-01 2.486e+01 -1.684e+00 9.717e-02 -1.645e+00
1269 1 2.478e+00 3.011e+01 2.148e+01 -5.617e-02 1.667e+00 1.622e+00
1271 1 7.844e-01 3.011e+01 2.317e+01 1.554e+00 1.643e+00 -8.403e-04
1275 1 4.172e+00 3.011e+01 2.317e+01 -1.632e+00 1.636e+00 2.023e-02
1350 1 2.478e+00 3.011e+01 2.486e+01 -1.079e-02 1.662e+00 -1.621e+00
ITEM: TIMESTEP
11
ITEM: NUMBER OF ATOMS
12
ITEM: BOX BOUNDS xy xz yz pp pp pp
                     0.00000000000000e+00 3.10513001000000e+01 0.00000000000000e+00
0.00000000000000e+00	3.10513001000000e+01	0.00000000000000e+00
0.00000000000000e+00	3.10513001000000e+01	0.00000000000000e+00
ITEM: ATOMS id type x y z DisplacementX DisplacementY DisplacementZ
405 1 2.478e+00 7.185e-01 1.976e+01 1.216e-02 -1.642e+00 1.627e+00
486 1 7.841e-01 7.204e-01 2.145e+01 1.627e+00 -1.642e+00 4.219e-02
487 1 4.172e+00 7.208e-01 2.145e+01 -1.221e+00 2.035e+00 1.037e+00
1189 1 2.479e+00 2.838e+01 1.976e+01 -5.910e-02 1.654e+00 1.629e+00
1190 1 7.865e-01 3.008e+01 1.976e+01 1.644e+00 2.952e-02 1.578e+00
1194 1 4.169e+00 3.008e+01 1.976e+01 -1.575e+00 -2.865e-02 1.548e+00
1268 1 7.836e-01 2.838e+01 2.145e+01 1.550e+00 1.619e+00 6.358e-03
1269 1 2.478e+00 7.189e-01 2.313e+01 2.897e-03 -1.594e+00 -1.553e+00
1270 1 2.478e+00 2.838e+01 2.313e+01 -1.050e-02 1.663e+00 -1.627e+00
1271 1 7.864e-01 3.008e+01 2.314e+01 1.728e+00 9.716e-02 -1.732e+00
1272 1 4.173e+00 2.838e+01 2.145e+01 -1.620e+00 1.598e+00 2.531e-02
1275 1 4.169e+00 3.008e+01 2.313e+01 -1.701e+00 9.041e-02 -1.648e+00
ITEM: TIMESTEP
12
ITEM: NUMBER OF ATOMS
12
ITEM: BOX BOUNDS xy xz yz pp pp pp
                     0.00000000000000e+00 3.10513001000000e+01 0.00000000000000e+00
0.00000000000000e+00	3.10513001000000e+01	0.00000000000000e+00
0.00000000000000e+00	3.10513001000000e+01	0.00000000000000e+00
ITEM: ATOMS id type x y z DisplacementX DisplacementY DisplacementZ
484 1 7.848e-01 2.447e+00 2.317e+01 1.642e+00 -1.640e+00 2.951e-02
485 1 2.479e+00 2.447e+00 2.148e+01 1.943e-02 -1.647e+00 1.626e+00
486 1 7.868e-01 7.532e-01 2.148e+01 1.646e+00 3.780e-02 1.573e+00
487 1 4.169e+00 7.534e-01 2.148e+01 -1.569e+00 -4.183e-02 1.546e+00
490 1 4.173e+00 2.450e+00 2.317e+01 -1.206e+00 2.026e+00 1.037e+00
564 1 7.867e-01 7.535e-01 2.486e+01 1.726e+00 1.079e-01 -1.736e+00
565 1 2.479e+00 2.446e+00 2.486e+01 1.124e-02 -1.586e+00 -1.568e+00
568 1 4.169e+00 7.538e-01 2.486e+01 -1.684e+00 9.718e-02 -1.645e+00
1269 1 2.478e+00 3.011e+01 2.148e+01 -5.616e-02 1.667e+00 1.622e+00
1271 1 7.843e-01 3.011e+01 2.317e+01 1.554e+00 1.643e+00 -8.115e-04
1275 1 4.172e+00 3.011e+01 2.317e+01 -1.632e+00 1.636e+00 2.022e-02
1350 1 2.478e+00 3.011e+01 2.486e+01 -1.079e-02 1.662e+00 -1.621e+00
ITEM: TIMESTEP
13
ITEM: NUMBER OF ATOMS
12
ITEM: BOX BOUNDS xy xz yz pp pp pp
                     0.00000000000000e+00 3.10513001000000e+01 0.00000000000000e+00
0.00000000000000e+00	3.10513001000000e+01	0.00000000000000e+00
0.00000000000000e+00	3.10513001000000e+01	0.00000000000000e+00
ITEM: ATOMS id type x y z DisplacementX DisplacementY DisplacementZ
484 1 7.864e-01 2.481e+00 2.321e+01 1.639e+00 3.411e-02 1.561e+00
490 1 4.171e+00 2.482e+00 2.321e+01 -1.537e+00 -6.975e-02 1.517e+00
503 1 2.480e+00 4.173e+00 2.321e+01 2.663e-02 -1.651e+00 1.625e+00
564 1 7.850e-01 7.872e-01 2.490e+01 1.567e+00 1.661e+00 -9.033e-03
565 1 2.478e+00 7.887e-01 2.321e+01 -4.361e-02 1.682e+00 1.617e+00
566 1 2.478e+00 7.887e-01 2.659e+01 -3.560e-03 1.659e+00 -1.624e+00
567 1 7.865e-01 2.481e+00 2.659e+01 1.713e+00 1.061e-01 -1.724e+00
568 1 4.171e+00 7.877e-01 2.490e+01 -1.637e+00 1.674e+00 4.494e-03
571 1 4.170e+00 2.482e+00 2.659e+01 -1.652e+00 8.925e-02 -1.649e+00
582 1 7.855e-01 4.173e+00 2.490e+01 1.659e+00 -1.640e+00 1.196e-02
584 1 2.480e+00 4.173e+00 2.659e+01 1.726e-02 -1.584e+00 -1.598e+00
586 1 4.174e+00 4.177e+00 2.489e+01 -1.201e+00 2.028e+00 1.032e+00
ITEM: TIMESTEP
14
ITEM: NUMBER OF ATOMS
12
ITEM: BOX BOUNDS xy xz yz pp pp pp
                     0.00000000000000e+00 3.10513001000000e+01 0.00000000000000e+00
0.00000000000000e+00	3.10513001000000e+01	0.00000000000000e+00
0.00000000000000e+00	3.10513001000000e+01	0.00000000000000e+00
ITEM: ATOMS id type x y z DisplacementX DisplacementY DisplacementZ
484 1 2.444e+00 2.481e+00 2.486e+01 -1.646e+00 6.548e-02 -1.641e+00
485 1 2.444e+00 2.481e+00 2.148e+01 -1.534e+00 -7.514e-02 1.515e+00
486 1 7.510e-01 7.890e-01 2.148e+01 -3.922e-02 1.681e+00 1.629e+00
501 1 7.512e-01 4.172e+00 2.148e+01 1.832e-02 -1.653e+00 1.646e+00
503 1 2.447e+00 4.175e+00 2.317e+01 -1.198e+00 2.017e+00 1.033e+00
564 1 7.513e-01 7.890e-01 2.486e+01 -1.012e-03 1.667e+00 -1.626e+00
565 1 2.445e+00 7.871e-01 2.317e+01 -1.629e+00 1.652e+00 7.095e-03
582 1 7.516e-01 4.171e+00 2.486e+01 5.843e-03 -1.592e+00 -1.598e+00
1942 1 3.011e+01 2.480e+00 2.148e+01 1.613e+00 2.082e-02 1.577e+00
1943 1 3.011e+01 7.866e-01 2.317e+01 1.554e+00 1.645e+00 9.070e-03
1961 1 3.011e+01 4.174e+00 2.317e+01 1.627e+00 -1.649e+00 4.302e-02
2023 1 3.011e+01 2.480e+00 2.486e+01 1.706e+00 1.055e-01 -1.716e+00
ITEM: TIMESTEP
15
ITEM: NUMBER OF ATOMS
12
ITEM: BOX BOUNDS xy xz yz pp pp pp
                     0.00000000000000e+00 3.10513001000000e+01 0.00000000000000e+00
0.00000000000000e+00	3.10513001000000e+01	0.00000000000000e+00
0.00000000000000e+00	3.10513001000000e+01	0.00000000000000e+00
ITEM: ATOMS id type x y z DisplacementX DisplacementY DisplacementZ
484 1 2.445e+00 2.516e+00 2.490e+01 -1.633e+00 1.673e+00 -7.983e-03
503 1 2.446e+00 4.208e+00 2.321e+01 -1.497e+00 -1.103e-01 1.480e+00
504 1 7.512e-01 5.896e+00 2.321e+01 1.787e-02 -1.654e+00 1.650e+00
567 1 7.517e-01 2.517e+00 2.659e+01 3.813e-03 1.667e+00 -1.639e+00
582 1 7.513e-01 2.517e+00 2.321e+01 -3.052e-02 1.691e+00 1.628e+00
583 1 2.448e+00 5.900e+00 2.489e+01 -1.211e+00 2.025e+00 1.032e+00
584 1 2.446e+00 4.208e+00 2.659e+01 -1.616e+00 4.131e-02 -1.643e+00
585 1 7.518e-01 5.896e+00 2.658e+01 6.166e-03 -1.593e+00 -1.623e+00
1961 1 3.011e+01 4.207e+00 2.321e+01 1.591e+00 7.277e-03 1.562e+00
2023 1 3.011e+01 2.515e+00 2.490e+01 1.572e+00 1.666e+00 -2.983e-03
2041 1 3.011e+01 5.898e+00 2.490e+01 1.635e+00 -1.650e+00 2.937e-02
2042 1 3.011e+01 4.207e+00 2.659e+01 1.688e+00 9.953e-02 -1.697e+00
ITEM: TIMESTEP
16
ITEM: NUMBER OF ATOMS
12
ITEM: BOX BOUNDS xy xz yz pp pp pp
                     0.00000000000000e+00 3.10513001000000e+01 0.00000000000000e+00
0.00000000000000e+00	3.10513001000000e+01	0.00000000000000e+00
0.00000000000000e+00	3.10513001000000e+01	0.00000000000000e+00
ITEM: ATOMS id type x y z DisplacementX DisplacementY DisplacementZ
484 1 2.445e+00 2.481e+00 2.493e+01 -1.524e+00 -7.057e-02 1.496e+00
564 1 7.513e-01 7.891e-01 2.493e+01 -4.260e-02 1.687e+00 1.623e+00
566 1 2.444e+00 7.887e-01 2.662e+01 -1.653e+00 1.687e+00 -2.288e-03
567 1 7.516e-01 4.172e+00 2.493e+01 2.008e-02 -1.639e+00 1.627e+00
584 1 2.446e+00 4.174e+00 2.662e+01 -1.248e+00 2.069e+00 1.039e+00
645 1 7.518e-01 7.893e-01 2.831e+01 -1.097e-02 1.663e+00 -1.629e+00
646 1 2.444e+00 2.481e+00 2.831e+01 -1.646e+00 6.270e-02 -1.640e+00
663 1 7.521e-01 4.172e+00 2.831e+01 5.299e-03 -1.583e+00 -1.587e+00
2023 1 3.011e+01 2.481e+00 2.493e+01 1.609e+00 3.405e-02 1.562e+00
2024 1 3.011e+01 7.881e-01 2.662e+01 1.578e+00 1.675e+00 -5.335e-03
2042 1 3.011e+01 4.172e+00 2.662e+01 1.649e+00 -1.638e+00 1.403e-02
2104 1 3.011e+01 2.481e+00 2.831e+01 1.696e+00 1.077e-01 -1.711e+00
ITEM: TIMESTEP
17
ITEM: NUMBER OF ATOMS
12
ITEM: BOX BOUNDS xy xz yz pp pp pp
                     0.00000000000000e+00 3.10513001000000e+01 0.00000000000000e+00
0.00000000000000e+00	3.10513001000000e+01	0.00000000000000e+00
0.00000000000000e+00	3.10513001000000e+01	0.00000000000000e+00
ITEM: ATOMS id type x y z DisplacementX DisplacementY DisplacementZ
567 1 7.177e-01 4.207e+00 2.493e+01 -1.509e+00 -8.544e-02 1.481e+00
585 1 7.178e-01 5.898e+00 2.662e+01 -1.266e+00 2.079e+00 1.047e+00
663 1 7.185e-01 4.207e+00 2.831e+01 -1.627e+00 2.816e-02 -1.631e+00
2023 1 3.008e+01 2.517e+00 2.493e+01 -4.294e-02 1.697e+00 1.632e+00
2025 1 2.838e+01 2.516e+00 2.662e+01 1.583e+00 1.692e+00 -4.761e-03
2040 1 2.838e+01 4.208e+00 2.493e+01 1.576e+00 1.762e-02 1.563e+00
2041 1 3.007e+01 5.897e+00 2.493e+01 2.047e-02 -1.642e+00 1.641e+00
2042 1 7.176e-01 2.516e+00 2.662e+01 -1.654e+00 1.679e+00 -5.803e-03
2043 1 2.838e+01 5.898e+00 2.662e+01 1.634e+00 -1.642e+00 2.930e-02
2104 1 3.008e+01 2.516e+00 2.831e+01 -1.180e-02 1.662e+00 -1.633e+00
2121 1 2.838e+01 4.207e+00 2.831e+01 1.680e+00 1.114e-01 -1.695e+00
2122 1 3.008e+01 5.896e+00 2.831e+01 -5.566e-03 -1.585e+00 -1.600e+00
ITEM: TIMESTEP
18
ITEM: NUMBER OF ATOMS
12
ITEM: BOX BOUNDS xy xz yz pp pp pp
                     0.00000000000000e+00 3.10513001000000e+01 0.00000000000000e+00
0.00000000000000e+00	3.10513001000000e+01	0.00000000000000e+00
0.00000000000000e+00	3.10513001000000e+01	0.00000000000000e+00
ITEM: ATOMS id type x y z DisplacementX DisplacementY DisplacementZ
484 1 2.445e+00 2.481e+00 2.493e+01 -1.524e+00 -7.056e-02 1.496e+00
564 1 7.513e-01 7.891e-01 2.493e+01 -4.260e-02 1.687e+00 1.623e+00
566 1 2.444e+00 7.887e-01 2.662e+01 -1.653e+00 1.687e+00 -2.305e-03
567 1 7.516e-01 4.172e+00 2.493e+01 2.007e-02 -1.639e+00 1.627e+00
584 1 2.446e+00 4.174e+00 2.662e+01 -1.248e+00 2.069e+00 1.039e+00
645 1 7.518e-01 7.893e-01 2.831e+01 -1.093e-02 1.663e+00 -1.629e+00
646 1 2.444e+00 2.481e+00 2.831e+01 -1.646e+00 6.269e-02 -1.640e+00
663 1 7.521e-01 4.172e+00 2.831e+01 5.316e-03 -1.583e+00 -1.587e+00
2023 1 3.011e+01 2.481e+00 2.493e+01 1.609e+00 3.407e-02 1.562e+00
2024 1 3.011e+01 7.881e-01 2.662e+01 1.578e+00 1.675e+00 -5.282e-03
2042 1 3.011e+01 4.172e+00 2.662e+01 1.649e+00 -1.638e+00 1.405e-02
2104 1 3.011e+01 2.481e+00 2.831e+01 1.696e+00 1.077e-01 -1.711e+00
ITEM: TIMESTEP
19
ITEM: NUMBER OF ATOMS
12
ITEM: BOX BOUNDS xy xz yz pp pp pp
                     0.00000000000000e+00 3.10513001000000e+01 0.00000000000000e+00
0.00000000000000e+00	3.10513001000000e+01	0.00000000000000e+00
0.00000000000000e+00	3.10513001000000e+01	0.00000000000000e+00
ITEM: ATOMS id type x y z DisplacementX DisplacementY DisplacementZ
566 1 2.444e+00 7.540e-01 2.666e+01 -1.541e+00 -4.925e-02 1.506e+00
645 1 7.517e-01 2.446e+00 2.666e+01 1.334e-02 -1.625e+00 1.616e+00
646 1 2.444e+00 2.447e+00 2.835e+01 -1.279e+00 2.097e+00 1.045e+00
647 1 2.444e+00 7.545e-01 3.004e+01 -1.665e+00 7.090e-02 -1.633e+00
648 1 7.522e-01 2.446e+00 3.004e+01 2.998e-03 -1.582e+00 -1.556e+00
1352 1 7.513e-01 3.011e+01 2.666e+01 -5.033e-02 1.678e+00 1.624e+00
1431 1 2.444e+00 3.011e+01 2.835e+01 -1.668e+00 1.693e+00 1.962e-03
1433 1 7.518e-01 3.011e+01 3.004e+01 -1.966e-02 1.659e+00 -1.624e+00
2024 1 3.011e+01 7.536e-01 2.666e+01 1.613e+00 4.905e-02 1.564e+00
2104 1 3.011e+01 2.446e+00 2.835e+01 1.652e+00 -1.632e+00 4.189e-03
2105 1 3.011e+01 7.541e-01 3.004e+01 1.699e+00 1.087e-01 -1.717e+00
2887 1 3.011e+01 3.011e+01 2.835e+01 1.582e+00 1.679e+00 -5.645e-03
ITEM: TIMESTEP
20
ITEM: NUMBER OF ATOMS
12
ITEM: BOX BOUNDS xy xz yz pp pp pp
                     0.00000000000000e+00 3.10513001000000e+01 0.00000000000000e+00
0.00000000000000e+00	3.10513001000000e+01	0.00000000000000e+00
0.00000000000000e+00	3.10513001000000e+01	0.00000000000000e+00
ITEM: ATOMS id type x y z DisplacementX DisplacementY DisplacementZ
1 1 7.176e-01 7.546e-01 7.181e-01 -1.662e+00 6.118e-02 -1.624e+00
648 1 7.174e-01 2.446e+00 3.008e+01 -1.294e+00 2.108e+00 1.051e+00
1433 1 7.169e-01 3.011e+01 3.008e+01 -1.675e+00 1.696e+00 2.705e-03
1462 1 2.838e+01 7.541e-01 7.174e-01 1.692e+00 1.023e-01 -1.710e+00
1463 1 3.008e+01 2.446e+00 7.178e-01 1.215e-03 -1.590e+00 -1.548e+00
2103 1 2.838e+01 7.536e-01 2.838e+01 1.602e+00 5.067e-02 1.568e+00
2104 1 3.008e+01 2.446e+00 2.838e+01 8.796e-03 -1.620e+00 1.623e+00
2105 1 7.169e-01 7.541e-01 2.838e+01 -1.543e+00 -4.566e-02 1.510e+00
2106 1 2.838e+01 2.446e+00 3.008e+01 1.645e+00 -1.634e+00 5.530e-03
2248 1 3.008e+01 3.011e+01 7.173e-01 -1.804e-02 1.654e+00 -1.621e+00
2887 1 3.008e+01 3.011e+01 2.838e+01 -4.949e-02 1.679e+00 1.630e+00
2889 1 2.838e+01 3.011e+01 3.008e+01 1.582e+00 1.683e+00 -3.759e-03
ITEM: TIMESTEP
21
ITEM: NUMBER OF ATOMS
12
ITEM: BOX BOUNDS xy xz yz pp pp pp
                     0.00000000000000e+00 3.10513001000000e+01 0.00000000000000e+00
0.00000000000000e+00	3.10513001000000e+01	0.00000000000000e+00
0.00000000000000e+00	3.10513001000000e+01	0.00000000000000e+00
ITEM: ATOMS id type x y z DisplacementX DisplacementY DisplacementZ
1459 1 2.666e+01 2.446e+00 7.522e-01 1.636e+00 -1.639e+00 8.645e-03
1460 1 2.666e+01 7.541e-01 2.444e+00 1.689e+00 9.718e-02 -1.706e+00
1462 1 3.004e+01 7.542e-01 3.011e+01 -1.549e+00 -4.218e-02 1.521e+00
1463 1 3.004e+01 2.446e+00 7.527e-01 -1.302e+00 2.107e+00 1.055e+00
1464 1 3.004e+01 7.546e-01 2.444e+00 -1.672e+00 6.260e-02 -1.618e+00
1465 1 2.835e+01 2.447e+00 2.445e+00 1.087e-03 -1.603e+00 -1.532e+00
2101 1 2.666e+01 7.537e-01 3.011e+01 1.598e+00 5.291e-02 1.574e+00
2106 1 2.835e+01 2.446e+00 3.011e+01 4.441e-03 -1.618e+00 1.627e+00
2244 1 2.666e+01 3.011e+01 7.518e-01 1.579e+00 1.683e+00 -6.652e-03
2248 1 3.004e+01 3.011e+01 7.522e-01 -1.676e+00 1.692e+00 7.897e-03
2250 1 2.835e+01 3.011e+01 2.444e+00 -1.412e-02 1.642e+00 -1.612e+00
2889 1 2.835e+01 3.011e+01 3.011e+01 -5.349e-02 1.675e+00 1.632e+00
ITEM: TIMESTEP
22
ITEM: NUMBER OF ATOMS
12
ITEM: BOX BOUNDS xy xz yz pp pp pp
                     0.00000000000000e+00 3.10513001000000e+01 0.00000000000000e+00
0.00000000000000e+00	3.10513001000000e+01	0.00000000000000e+00
0.00000000000000e+00	3.10513001000000e+01	0.00000000000000e+00
ITEM: ATOMS id type x y z DisplacementX DisplacementY DisplacementZ
1 1 7.177e-01 7.200e-01 7.527e-01 -1.292e+00 2.105e+00 1.051e+00
789 1 7.170e-01 2.839e+01 7.522e-01 -1.674e+00 1.688e+00 3.518e-03
792 1 7.174e-01 3.008e+01 2.444e+00 -1.667e+00 6.723e-02 -1.622e+00
1433 1 7.169e-01 3.008e+01 3.011e+01 -1.550e+00 -3.989e-02 1.519e+00
1462 1 3.008e+01 7.192e-01 3.011e+01 9.520e-04 -1.614e+00 1.625e+00
1464 1 3.008e+01 7.198e-01 2.444e+00 3.032e-04 -1.591e+00 -1.541e+00
2247 1 2.838e+01 2.839e+01 7.518e-01 1.581e+00 1.673e+00 -6.036e-03
2248 1 2.838e+01 7.193e-01 7.522e-01 1.638e+00 -1.633e+00 7.342e-03
2249 1 3.008e+01 2.839e+01 2.444e+00 -1.071e-02 1.641e+00 -1.619e+00
2250 1 2.838e+01 3.008e+01 2.444e+00 1.698e+00 9.998e-02 -1.711e+00
2888 1 3.008e+01 2.839e+01 3.011e+01 -5.065e-02 1.675e+00 1.633e+00
2889 1 2.838e+01 3.008e+01 3.011e+01 1.603e+00 5.396e-02 1.573e+00
ITEM: TIMESTEP
23
ITEM: NUMBER OF ATOMS
12
ITEM: BOX BOUNDS xy xz yz pp pp pp
                     0.00000000000000e+00 3.10513001000000e+01 0.00000000000000e+00
0.00000000000000e+00	3.10513001000000e+01	0.00000000000000e+00
0.00000000000000e+00	3.10513001000000e+01	0.00000000000000e+00
ITEM: ATOMS id type x y z DisplacementX DisplacementY DisplacementZ
1 1 7.523e-01 7.200e-01 7.180e-01 1.429e-04 -1.582e+00 -1.540e+00
647 1 2.444e+00 7.197e-01 3.008e+01 -1.296e+00 2.110e+00 1.050e+00
789 1 7.519e-01 2.839e+01 7.173e-01 -2.065e-02 1.650e+00 -1.621e+00
790 1 2.444e+00 3.008e+01 7.178e-01 -1.671e+00 7.222e-02 -1.626e+00
1430 1 7.514e-01 2.839e+01 2.838e+01 -5.397e-02 1.673e+00 1.626e+00
1431 1 2.443e+00 3.008e+01 2.838e+01 -1.548e+00 -4.147e-02 1.511e+00
1432 1 2.443e+00 2.839e+01 3.008e+01 -1.676e+00 1.692e+00 2.355e-03
1433 1 3.011e+01 3.008e+01 7.173e-01 1.701e+00 1.072e-01 -1.717e+00
1462 1 3.011e+01 7.192e-01 3.008e+01 1.648e+00 -1.631e+00 1.458e-03
2105 1 7.519e-01 7.193e-01 2.838e+01 3.938e-03 -1.614e+00 1.615e+00
2887 1 3.011e+01 3.008e+01 2.838e+01 1.609e+00 5.419e-02 1.566e+00
2888 1 3.011e+01 2.839e+01 3.008e+01 1.587e+00 1.680e+00 -7.484e-03
ITEM: TIMESTEP
24
ITEM: NUMBER OF ATOMS
12
ITEM: BOX BOUNDS xy xz yz pp pp pp
                     0.00000000000000e+00 3.10513001000000e+01 0.00000000000000e+00
0.00000000000000e+00	3.10513001000000e+01	0.00000000000000e+00
0.00000000000000e+00	3.10513001000000e+01	0.00000000000000e+00
ITEM: ATOMS id type x y z DisplacementX DisplacementY DisplacementZ
1 1 7.519e-01 3.011e+01 3.011e+01 -5.472e-02 1.689e+00 1.627e+00
2 1 2.445e+00 2.447e+00 7.530e-01 -1.293e+00 2.105e+00 1.050e+00
3 1 2.445e+00 7.550e-01 2.445e+00 -1.667e+00 6.667e-02 -1.621e+00
4 1 7.527e-01 2.447e+00 2.445e+00 2.150e-03 -1.592e+00 -1.542e+00
647 1 2.444e+00 7.546e-01 3.011e+01 -1.547e+00 -3.934e-02 1.513e+00
648 1 7.523e-01 2.446e+00 3.011e+01 4.325e-03 -1.614e+00 1.620e+00
790 1 2.444e+00 3.011e+01 7.526e-01 -1.676e+00 1.702e+00 2.899e-04
792 1 7.523e-01 3.011e+01 2.444e+00 -1.907e-02 1.656e+00 -1.621e+00
1433 1 3.011e+01 3.011e+01 7.522e-01 1.584e+00 1.688e+00 -1.235e-02
1462 1 3.011e+01 7.542e-01 3.011e+01 1.606e+00 5.785e-02 1.563e+00
1463 1 3.011e+01 2.446e+00 7.526e-01 1.649e+00 -1.633e+00 -2.693e-04
1464 1 3.011e+01 7.546e-01 2.444e+00 1.701e+00 1.018e-01 -1.714e+00
ITEM: TIMESTEP
25
ITEM: NUMBER OF ATOMS
12
ITEM: BOX BOUNDS xy xz yz pp pp pp
                     0.00000000000000e+00 3.10513001000000e+01 0.00000000000000e+00
0.00000000000000e+00	3.10513001000000e+01	0.00000000000000e+00
0.00000000000000e+00	3.10513001000000e+01	0.00000000000000e+00
ITEM: ATOMS id type x y z DisplacementX DisplacementY DisplacementZ
2 1 2.480e+00 2.447e+00 7.880e-01 6.988e-05 -1.612e+00 1.620e+00
3 1 7.874e-01 7.546e-01 7.878e-01 1.616e+00 6.443e-02 1.566e+00
4 1 7.876e-01 2.447e+00 2.480e+00 1.649e+00 -1.636e+00 2.095e-03
5 1 4.170e+00 7.549e-01 7.886e-01 -1.566e+00 -2.446e-02 1.539e+00
8 1 4.172e+00 2.449e+00 2.481e+00 -1.285e+00 2.091e+00 1.054e+00
82 1 7.882e-01 7.549e-01 4.170e+00 1.722e+00 1.100e-01 -1.730e+00