ITEM: TIMESTEP
0
ITEM: NUMBER OF ATOMS
12
ITEM: BOX BOUNDS xy xz yz pp pp pp
                     0.00000000000000e+00 3.10513001000000e+01 0.00000000000000e+00
0.00000000000000e+00	3.10513001000000e+01	0.00000000000000e+00
0.00000000000000e+00	3.10513001000000e+01	0.00000000000000e+00
ITEM: ATOMS id type x y z DisplacementX DisplacementY DisplacementZ
2623 1 2.662e+01 2.665e+01 1.803e+01 1.189e-01 5.019e-01 6.695e-01
2625 1 2.492e+01 2.664e+01 1.972e+01 8.419e-01 7.414e-01 3.767e-02
2629 1 2.831e+01 2.665e+01 1.972e+01 -1.006e+00 1.076e+00 -3.649e-01
2640 1 2.493e+01 2.834e+01 1.804e+01 8.457e-01 -1.154e-01 8.716e-01
2641 1 2.662e+01 3.004e+01 1.803e+01 -8.265e-02 -8.240e-01 8.361e-01
2642 1 2.493e+01 3.004e+01 1.972e+01 7.506e-01 -7.888e-01 -2.761e-01
2643 1 2.831e+01 2.835e+01 1.804e+01 -9.194e-01 1.676e-02 5.558e-01
2646 1 2.831e+01 3.004e+01 1.972e+01 -5.193e-01 1.056e+00 4.605e-01
2703 1 2.662e+01 2.665e+01 2.141e+01 -1.269e-01 9.851e-01 -1.055e+00
2720 1 2.493e+01 2.834e+01 2.141e+01 7.903e-01 -5.490e-02 -1.190e+00
2721 1 2.662e+01 3.004e+01 2.141e+01 2.517e-02 -1.127e+00 -8.976e-01
2724 1 2.831e+01 2.835e+01 2.141e+01 -9.139e-01 -1.260e-02 -8.957e-01
