ITEM: TIMESTEP
0
ITEM: NUMBER OF ATOMS
1371
ITEM: BOX BOUNDS xy xz yz pp pp pp
                     0.00000000000000e+00 2.47800007000000e+01 0.00000000000000e+00
0.00000000000000e+00	2.47800007000000e+01	0.00000000000000e+00
0.00000000000000e+00	2.47800007000000e+01	0.00000000000000e+00
ITEM: ATOMS id type x y z dx dy dz
1 1 1.982e+01 1.805e+01 1.982e+01 0.000e+00 0.000e+00 0.000e+00
2 1 3.538e-01 1.628e+01 2.124e+00 0.000e+00 0.000e+00 0.000e+00
3 1 1.805e+01 1.628e+01 5.664e+00 0.000e+00 0.000e+00 0.000e+00
4 1 3.894e+00 1.274e+01 1.628e+01 0.000e+00 0.000e+00 0.000e+00
5 1 9.204e+00 5.664e+00 3.540e-01 0.000e+00 0.000e+00 0.000e+00
6 1 1.274e+01 9.204e+00 3.894e+00 0.000e+00 0.000e+00 0.000e+00
7 1 2.159e+01 2.123e+00 9.205e+00 0.000e+00 0.000e+00 0.000e+00
8 1 3.538e-01 9.204e+00 2.336e+01 0.000e+00 0.000e+00 0.000e+00
9 1 5.664e+00 9.204e+00 1.097e+01 0.000e+00 0.000e+00 0.000e+00
10 1 1.097e+01 7.434e+00 1.805e+01 0.000e+00 0.000e+00 0.000e+00
11 1 1.805e+01 1.097e+01 1.097e+01 0.000e+00 0.000e+00 0.000e+00
12 1 3.531e-01 1.805e+01 1.805e+01 0.000e+00 0.000e+00 0.000e+00
13 1 1.451e+01 3.523e-01 1.098e+01 0.000e+00 0.000e+00 0.000e+00
14 1 3.894e+00 1.805e+01 1.451e+01 0.000e+00 0.000e+00 0.000e+00
15 1 1.451e+01 1.274e+01 5.665e+00 0.000e+00 0.000e+00 0.000e+00
16 1 2.159e+01 7.434e+00 3.540e-01 0.000e+00 0.000e+00 0.000e+00
17 1 1.451e+01 2.124e+00 2.336e+01 0.000e+00 0.000e+00 0.000e+00
18 1 1.805e+01 3.894e+00 1.805e+01 0.000e+00 0.000e+00 0.000e+00
19 1 3.538e-01 9.204e+00 9.204e+00 0.000e+00 0.000e+00 0.000e+00
20 1 1.097e+01 3.894e+00 7.434e+00 0.000e+00 0.000e+00 0.000e+00
21 1 1.451e+01 1.628e+01 1.982e+01 0.000e+00 0.000e+00 0.000e+00
22 1 9.204e+00 3.537e-01 5.664e+00 0.000e+00 0.000e+00 0.000e+00
23 1 1.805e+01 3.894e+00 3.540e-01 0.000e+00 0.000e+00 0.000e+00
24 1 1.629e+01 1.629e+01 1.451e+01 0.000e+00 0.000e+00 0.000e+00
25 1 1.982e+01 1.805e+01 2.336e+01 0.000e+00 0.000e+00 0.000e+00
26 1 5.664e+00 1.805e+01 1.628e+01 0.000e+00 0.000e+00 0.000e+00
27 1 3.536e-01 1.097e+01 1.097e+01 0.000e+00 0.000e+00 0.000e+00
28 1 7.434e+00 1.097e+01 3.894e+00 0.000e+00 0.000e+00 0.000e+00
29 1 1.275e+01 2.336e+01 1.805e+01 0.000e+00 0.000e+00 0.000e+00
30 1 3.538e-01 2.124e+00 2.124e+00 0.000e+00 0.000e+00 0.000e+00
31 1 5.664e+00 3.894e+00 1.628e+01 0.000e+00 0.000e+00 0.000e+00
32 1 1.451e+01 2.124e+00 2.124e+00 0.000e+00 0.000e+00 0.000e+00
33 1 1.275e+01 1.806e+01 9.205e+00 0.000e+00 0.000e+00 0.000e+00
34 1 3.542e-01 1.982e+01 1.274e+01 0.000e+00 0.000e+00 0.000e+00
35 1 3.894e+00 9.204e+00 9.204e+00 0.000e+00 0.000e+00 0.000e+00
36 1 9.204e+00 2.159e+01 9.204e+00 0.000e+00 0.000e+00 0.000e+00
37 1 1.274e+01 1.274e+01 1.805e+01 0.000e+00 0.000e+00 0.000e+00
38 1 7.434e+00 3.538e-01 2.159e+01 0.000e+00 0.000e+00 0.000e+00
39 1 1.805e+01 1.629e+01 1.628e+01 0.000e+00 0.000e+00 0.000e+00
40 1 1.274e+01 1.097e+01 2.124e+00 0.000e+00 0.000e+00 0.000e+00
41 1 1.628e+01 2.124e+00 1.451e+01 0.000e+00 0.000e+00 0.000e+00
42 1 2.159e+01 9.204e+00 5.664e+00 0.000e+00 0.000e+00 0.000e+00
43 1 3.894e+00 3.894e+00 1.097e+01 0.000e+00 0.000e+00 0.000e+00
44 1 2.124e+00 5.664e+00 1.097e+01 0.000e+00 0.000e+00 0.000e+00
45 1 1.451e+01 1.452e+01 1.451e+01 0.000e+00 0.000e+00 0.000e+00
46 1 5.664e+00 1.805e+01 2.336e+01 0.000e+00 0.000e+00 0.000e+00
47 1 3.894e+00 7.434e+00 3.540e-01 0.000e+00 0.000e+00 0.000e+00
48 1 2.124e+00 1.097e+01 1.982e+01 0.000e+00 0.000e+00 0.000e+00
49 1 2.124e+00 2.336e+01 3.540e-01 0.000e+00 0.000e+00 0.000e+00
50 1 2.336e+01 1.451e+01 2.336e+01 0.000e+00 0.000e+00 0.000e+00
51 1 2.159e+01 3.894e+00 7.434e+00 0.000e+00 0.000e+00 0.000e+00
52 1 3.538e-01 5.664e+00 1.982e+01 0.000e+00 0.000e+00 0.000e+00
53 1 1.451e+01 1.628e+01 2.336e+01 0.000e+00 0.000e+00 0.000e+00
54 1 2.336e+01 3.894e+00 1.628e+01 0.000e+00 0.000e+00 0.000e+00
55 1 2.124e+00 1.982e+01 3.540e-01 0.000e+00 0.000e+00 0.000e+00
56 1 2.336e+01 2.336e+01 2.159e+01 0.000e+00 0.000e+00 0.000e+00
57 1 1.097e+01 1.628e+01 1.274e+01 0.000e+00 0.000e+00 0.000e+00
58 1 3.538e-01 2.336e+01 2.124e+00 0.000e+00 0.000e+00 0.000e+00
59 1 9.204e+00 7.434e+00 1.274e+01 0.000e+00 0.000e+00 0.000e+00
60 1 2.124e+00 1.982e+01 1.451e+01 0.000e+00 0.000e+00 0.000e+00
61 1 7.434e+00 1.805e+01 1.097e+01 0.000e+00 0.000e+00 0.000e+00
62 1 7.434e+00 2.336e+01 1.628e+01 0.000e+00 0.000e+00 0.000e+00
63 1 5.664e+00 1.628e+01 1.097e+01 0.000e+00 0.000e+00 0.000e+00
64 1 1.097e+01 1.982e+01 2.336e+01 0.000e+00 0.000e+00 0.000e+00
65 1 3.536e-01 1.451e+01 3.894e+00 0.000e+00 0.000e+00 0.000e+00
66 1 7.434e+00 1.274e+01 1.628e+01 0.000e+00 0.000e+00 0.000e+00
67 1 7.434e+00 1.097e+01 1.451e+01 0.000e+00 0.000e+00 0.000e+00
68 1 2.336e+01 2.159e+01 1.274e+01 0.000e+00 0.000e+00 0.000e+00
69 1 2.159e+01 1.982e+01 5.664e+00 0.000e+00 0.000e+00 0.000e+00
70 1 2.336e+01 7.434e+00 1.274e+01 0.000e+00 0.000e+00 0.000e+00
71 1 3.894e+00 3.538e-01 1.805e+01 0.000e+00 0.000e+00 0.000e+00
72 1 2.336e+01 1.628e+01 7.435e+00 0.000e+00 0.000e+00 0.000e+00
73 1 7.434e+00 2.159e+01 3.894e+00 0.000e+00 0.000e+00 0.000e+00
74 1 3.894e+00 3.894e+00 1.451e+01 0.000e+00 0.000e+00 0.000e+00
75 1 5.664e+00 2.159e+01 1.274e+01 0.000e+00 0.000e+00 0.000e+00
76 1 5.664e+00 5.664e+00 1.097e+01 0.000e+00 0.000e+00 0.000e+00
77 1 1.097e+01 1.274e+01 2.124e+00 0.000e+00 0.000e+00 0.000e+00
78 1 9.204e+00 2.159e+01 1.274e+01 0.000e+00 0.000e+00 0.000e+00
79 1 1.451e+01 1.274e+01 1.628e+01 0.000e+00 0.000e+00 0.000e+00
80 1 1.274e+01 2.123e+00 1.097e+01 0.000e+00 0.000e+00 0.000e+00
81 1 5.664e+00 9.204e+00 2.159e+01 0.000e+00 0.000e+00 0.000e+00
82 1 5.664e+00 3.538e-01 1.982e+01 0.000e+00 0.000e+00 0.000e+00
83 1 9.204e+00 1.274e+01 1.097e+01 0.000e+00 0.000e+00 0.000e+00
84 1 2.336e+01 1.274e+01 7.435e+00 0.000e+00 0.000e+00 0.000e+00
85 1 1.274e+01 5.664e+00 1.805e+01 0.000e+00 0.000e+00 0.000e+00
86 1 3.536e-01 2.124e+00 5.664e+00 0.000e+00 0.000e+00 0.000e+00
87 1 1.805e+01 1.097e+01 1.805e+01 0.000e+00 0.000e+00 0.000e+00
88 1 3.894e+00 1.274e+01 9.204e+00 0.000e+00 0.000e+00 0.000e+00
89 1 3.536e-01 1.097e+01 7.434e+00 0.000e+00 0.000e+00 0.000e+00
90 1 7.434e+00 1.097e+01 3.540e-01 0.000e+00 0.000e+00 0.000e+00
91 1 2.336e+01 5.664e+00 2.159e+01 0.000e+00 0.000e+00 0.000e+00
92 1 2.124e+00 1.274e+01 3.540e-01 0.000e+00 0.000e+00 0.000e+00
93 1 3.894e+00 1.982e+01 5.664e+00 0.000e+00 0.000e+00 0.000e+00
94 1 1.982e+01 1.452e+01 9.205e+00 0.000e+00 0.000e+00 0.000e+00
95 1 2.336e+01 1.452e+01 1.274e+01 0.000e+00 0.000e+00 0.000e+00
96 1 1.982e+01 1.274e+01 1.805e+01 0.000e+00 0.000e+00 0.000e+00
97 1 2.159e+01 1.274e+01 1.982e+01 0.000e+00 0.000e+00 0.000e+00
98 1 2.336e+01 1.451e+01 5.665e+00 0.000e+00 0.000e+00 0.000e+00
99 1 5.664e+00 9.204e+00 1.451e+01 0.000e+00 0.000e+00 0.000e+00
100 1 3.894e+00 1.805e+01 1.097e+01 0.000e+00 0.000e+00 0.000e+00
101 1 9.204e+00 1.451e+01 2.336e+01 0.000e+00 0.000e+00 0.000e+00
102 1 2.336e+01 2.159e+01 2.124e+00 0.000e+00 0.000e+00 0.000e+00
103 1 1.274e+01 2.123e+00 1.805e+01 0.000e+00 0.000e+00 0.000e+00
104 1 9.204e+00 1.628e+01 1.097e+01 0.000e+00 0.000e+00 0.000e+00
105 1 1.451e+01 1.097e+01 3.894e+00 0.000e+00 0.000e+00 0.000e+00
106 1 1.982e+01 3.523e-01 1.628e+01 0.000e+00 0.000e+00 0.000e+00
107 1 1.805e+01 5.664e+00 1.274e+01 0.000e+00 0.000e+00 0.000e+00
108 1 5.664e+00 9.204e+00 3.894e+00 0.000e+00 0.000e+00 0.000e+00
109 1 1.982e+01 3.533e-01 1.982e+01 0.000e+00 0.000e+00 0.000e+00
110 1 5.664e+00 2.124e+00 7.434e+00 0.000e+00 0.000e+00 0.000e+00
111 1 9.204e+00 9.204e+00 3.540e-01 0.000e+00 0.000e+00 0.000e+00
112 1 2.159e+01 1.274e+01 5.665e+00 0.000e+00 0.000e+00 0.000e+00
113 1 1.097e+01 1.982e+01 1.982e+01 0.000e+00 0.000e+00 0.000e+00
114 1 2.159e+01 2.123e+00 1.628e+01 0.000e+00 0.000e+00 0.000e+00
115 1 2.336e+01 1.806e+01 1.628e+01 0.000e+00 0.000e+00 0.000e+00
116 1 1.274e+01 2.124e+00 3.894e+00 0.000e+00 0.000e+00 0.000e+00
117 1 1.628e+01 3.542e-01 1.274e+01 0.000e+00 0.000e+00 0.000e+00
118 1 1.451e+01 1.097e+01 7.434e+00 0.000e+00 0.000e+00 0.000e+00
119 1 7.434e+00 5.664e+00 1.982e+01 0.000e+00 0.000e+00 0.000e+00
120 1 7.434e+00 3.894e+00 1.451e+01 0.000e+00 0.000e+00 0.000e+00
121 1 7.434e+00 2.159e+01 2.159e+01 0.000e+00 0.000e+00 0.000e+00
122 1 1.805e+01 9.204e+00 5.664e+00 0.000e+00 0.000e+00 0.000e+00
123 1 1.274e+01 2.159e+01 2.336e+01 0.000e+00 0.000e+00 0.000e+00
124 1 1.452e+01 1.629e+01 1.274e+01 0.000e+00 0.000e+00 0.000e+00
125 1 7.434e+00 1.451e+01 3.540e-01 0.000e+00 0.000e+00 0.000e+00
126 1 3.894e+00 1.451e+01 1.097e+01 0.000e+00 0.000e+00 0.000e+00
127 1 2.124e+00 1.451e+01 1.982e+01 0.000e+00 0.000e+00 0.000e+00
128 1 7.434e+00 1.451e+01 2.159e+01 0.000e+00 0.000e+00 0.000e+00
129 1 1.097e+01 2.336e+01 1.274e+01 0.000e+00 0.000e+00 0.000e+00
130 1 1.631e+01 1.808e+01 1.274e+01 0.000e+00 0.000e+00 0.000e+00
131 1 3.894e+00 1.274e+01 1.982e+01 0.000e+00 0.000e+00 0.000e+00
132 1 1.805e+01 3.542e-01 1.097e+01 0.000e+00 0.000e+00 0.000e+00
133 1 2.336e+01 9.204e+00 1.097e+01 0.000e+00 0.000e+00 0.000e+00
134 1 9.204e+00 1.451e+01 5.664e+00 0.000e+00 0.000e+00 0.000e+00
135 1 2.336e+01 9.204e+00 2.159e+01 0.000e+00 0.000e+00 0.000e+00
136 1 1.805e+01 1.274e+01 2.124e+00 0.000e+00 0.000e+00 0.000e+00
137 1 1.628e+01 2.124e+00 3.894e+00 0.000e+00 0.000e+00 0.000e+00
138 1 3.894e+00 2.159e+01 1.097e+01 0.000e+00 0.000e+00 0.000e+00
139 1 7.434e+00 2.124e+00 1.628e+01 0.000e+00 0.000e+00 0.000e+00
140 1 1.451e+01 7.434e+00 1.097e+01 0.000e+00 0.000e+00 0.000e+00
141 1 1.982e+01 1.982e+01 7.434e+00 0.000e+00 0.000e+00 0.000e+00
142 1 1.451e+01 9.204e+00 2.124e+00 0.000e+00 0.000e+00 0.000e+00
143 1 7.434e+00 2.124e+00 2.336e+01 0.000e+00 0.000e+00 0.000e+00
144 1 7.434e+00 3.538e-01 1.805e+01 0.000e+00 0.000e+00 0.000e+00
145 1 1.451e+01 3.536e-01 2.159e+01 0.000e+00 0.000e+00 0.000e+00
146 1 2.159e+01 3.536e-01 2.159e+01 0.000e+00 0.000e+00 0.000e+00
147 1 1.982e+01 1.452e+01 1.628e+01 0.000e+00 0.000e+00 0.000e+00
148 1 1.805e+01 5.664e+00 1.628e+01 0.000e+00 0.000e+00 0.000e+00
149 1 2.336e+01 9.204e+00 1.451e+01 0.000e+00 0.000e+00 0.000e+00
150 1 3.536e-01 1.805e+01 3.894e+00 0.000e+00 0.000e+00 0.000e+00
151 1 3.538e-01 7.434e+00 1.805e+01 0.000e+00 0.000e+00 0.000e+00
152 1 2.159e+01 1.097e+01 3.894e+00 0.000e+00 0.000e+00 0.000e+00
153 1 3.894e+00 1.097e+01 2.159e+01 0.000e+00 0.000e+00 0.000e+00
154 1 1.097e+01 1.628e+01 5.665e+00 0.000e+00 0.000e+00 0.000e+00
155 1 1.805e+01 9.204e+00 1.274e+01 0.000e+00 0.000e+00 0.000e+00
156 1 1.274e+01 1.982e+01 3.540e-01 0.000e+00 0.000e+00 0.000e+00
157 1 2.159e+01 1.806e+01 1.451e+01 0.000e+00 0.000e+00 0.000e+00
158 1 7.434e+00 2.159e+01 3.540e-01 0.000e+00 0.000e+00 0.000e+00
159 1 1.274e+01 2.159e+01 1.274e+01 0.000e+00 0.000e+00 0.000e+00
160 1 1.982e+01 3.533e-01 5.665e+00 0.000e+00 0.000e+00 0.000e+00
161 1 9.204e+00 1.097e+01 1.628e+01 0.000e+00 0.000e+00 0.000e+00
162 1 2.124e+00 1.451e+01 9.204e+00 0.000e+00 0.000e+00 0.000e+00
163 1 1.805e+01 5.664e+00 2.124e+00 0.000e+00 0.000e+00 0.000e+00
164 1 1.097e+01 9.204e+00 5.664e+00 0.000e+00 0.000e+00 0.000e+00
165 1 7.434e+00 7.434e+00 1.805e+01 0.000e+00 0.000e+00 0.000e+00
166 1 2.336e+01 1.628e+01 1.098e+01 0.000e+00 0.000e+00 0.000e+00
167 1 2.124e+00 1.628e+01 7.434e+00 0.000e+00 0.000e+00 0.000e+00
168 1 3.894e+00 5.664e+00 5.664e+00 0.000e+00 0.000e+00 0.000e+00
169 1 7.434e+00 3.539e-01 1.097e+01 0.000e+00 0.000e+00 0.000e+00
170 1 1.628e+01 1.274e+01 7.435e+00 0.000e+00 0.000e+00 0.000e+00
171 1 2.336e+01 9.204e+00 3.540e-01 0.000e+00 0.000e+00 0.000e+00
172 1 1.274e+01 1.274e+01 2.159e+01 0.000e+00 0.000e+00 0.000e+00
173 1 3.538e-01 3.894e+00 2.159e+01 0.000e+00 0.000e+00 0.000e+00
174 1 1.451e+01 3.894e+00 3.894e+00 0.000e+00 0.000e+00 0.000e+00
175 1 2.124e+00 3.536e-01 9.204e+00 0.000e+00 0.000e+00 0.000e+00
176 1 1.274e+01 7.434e+00 1.982e+01 0.000e+00 0.000e+00 0.000e+00
177 1 1.097e+01 2.336e+01 1.982e+01 0.000e+00 0.000e+00 0.000e+00
178 1 3.539e-01 7.434e+00 3.540e-01 0.000e+00 0.000e+00 0.000e+00
179 1 3.894e+00 5.664e+00 9.204e+00 0.000e+00 0.000e+00 0.000e+00
180 1 2.159e+01 3.894e+00 2.159e+01 0.000e+00 0.000e+00 0.000e+00
181 1 1.982e+01 2.336e+01 1.451e+01 0.000e+00 0.000e+00 0.000e+00
182 1 3.538e-01 1.451e+01 3.540e-01 0.000e+00 0.000e+00 0.000e+00
183 1 1.982e+01 2.124e+00 3.894e+00 0.000e+00 0.000e+00 0.000e+00
184 1 1.451e+01 1.274e+01 1.274e+01 0.000e+00 0.000e+00 0.000e+00
185 1 1.628e+01 7.434e+00 9.204e+00 0.000e+00 0.000e+00 0.000e+00
186 1 9.204e+00 2.124e+00 3.894e+00 0.000e+00 0.000e+00 0.000e+00
187 1 1.982e+01 3.894e+00 2.336e+01 0.000e+00 0.000e+00 0.000e+00
188 1 5.664e+00 1.451e+01 9.204e+00 0.000e+00 0.000e+00 0.000e+00
189 1 1.097e+01 1.274e+01 1.274e+01 0.000e+00 0.000e+00 0.000e+00
190 1 3.538e-01 1.628e+01 2.336e+01 0.000e+00 0.000e+00 0.000e+00
191 1 1.097e+01 3.533e-01 1.451e+01 0.000e+00 0.000e+00 0.000e+00
192 1 7.434e+00 1.628e+01 1.274e+01 0.000e+00 0.000e+00 0.000e+00
193 1 1.275e+01 1.628e+01 1.098e+01 0.000e+00 0.000e+00 0.000e+00
194 1 1.097e+01 3.538e-01 3.540e-01 0.000e+00 0.000e+00 0.000e+00
195 1 7.434e+00 2.336e+01 9.204e+00 0.000e+00 0.000e+00 0.000e+00
196 1 2.336e+01 1.805e+01 5.665e+00 0.000e+00 0.000e+00 0.000e+00
197 1 1.451e+01 2.159e+01 2.159e+01 0.000e+00 0.000e+00 0.000e+00
198 1 1.628e+01 9.204e+00 3.540e-01 0.000e+00 0.000e+00 0.000e+00
199 1 1.628e+01 2.124e+00 1.097e+01 0.000e+00 0.000e+00 0.000e+00
200 1 1.452e+01 1.806e+01 1.451e+01 0.000e+00 0.000e+00 0.000e+00
201 1 7.434e+00 3.538e-01 7.434e+00 0.000e+00 0.000e+00 0.000e+00
202 1 1.097e+01 1.982e+01 1.274e+01 0.000e+00 0.000e+00 0.000e+00
203 1 1.982e+01 5.664e+00 3.540e-01 0.000e+00 0.000e+00 0.000e+00
204 1 2.159e+01 1.274e+01 2.124e+00 0.000e+00 0.000e+00 0.000e+00
205 1 2.336e+01 1.628e+01 3.894e+00 0.000e+00 0.000e+00 0.000e+00
206 1 1.805e+01 1.628e+01 1.274e+01 0.000e+00 0.000e+00 0.000e+00
207 1 5.664e+00 1.097e+01 2.124e+00 0.000e+00 0.000e+00 0.000e+00
208 1 1.275e+01 1.982e+01 1.805e+01 0.000e+00 0.000e+00 0.000e+00
209 1 1.275e+01 2.336e+01 1.098e+01 0.000e+00 0.000e+00 0.000e+00
210 1 9.204e+00 9.204e+00 3.894e+00 0.000e+00 0.000e+00 0.000e+00
211 1 1.451e+01 5.664e+00 2.124e+00 0.000e+00 0.000e+00 0.000e+00
212 1 3.536e-01 3.537e-01 3.894e+00 0.000e+00 0.000e+00 0.000e+00
213 1 1.451e+01 1.805e+01 3.540e-01 0.000e+00 0.000e+00 0.000e+00
214 1 5.664e+00 7.434e+00 9.204e+00 0.000e+00 0.000e+00 0.000e+00
215 1 1.805e+01 2.336e+01 5.664e+00 0.000e+00 0.000e+00 0.000e+00
216 1 5.664e+00 2.124e+00 1.805e+01 0.000e+00 0.000e+00 0.000e+00
217 1 2.159e+01 1.097e+01 7.434e+00 0.000e+00 0.000e+00 0.000e+00
218 1 3.538e-01 1.982e+01 2.336e+01 0.000e+00 0.000e+00 0.000e+00
219 1 5.664e+00 1.451e+01 5.664e+00 0.000e+00 0.000e+00 0.000e+00
220 1 1.982e+01 1.628e+01 1.805e+01 0.000e+00 0.000e+00 0.000e+00
221 1 2.124e+00 2.159e+01 1.982e+01 0.000e+00 0.000e+00 0.000e+00
222 1 5.664e+00 5.664e+00 3.894e+00 0.000e+00 0.000e+00 0.000e+00
223 1 1.097e+01 2.336e+01 2.336e+01 0.000e+00 0.000e+00 0.000e+00
224 1 2.336e+01 2.336e+01 7.435e+00 0.000e+00 0.000e+00 0.000e+00
225 1 1.274e+01 1.982e+01 3.894e+00 0.000e+00 0.000e+00 0.000e+00
226 1 7.434e+00 1.982e+01 1.628e+01 0.000e+00 0.000e+00 0.000e+00
227 1 1.628e+01 5.664e+00 1.805e+01 0.000e+00 0.000e+00 0.000e+00
228 1 1.451e+01 2.123e+00 9.205e+00 0.000e+00 0.000e+00 0.000e+00
229 1 9.204e+00 5.664e+00 3.894e+00 0.000e+00 0.000e+00 0.000e+00
230 1 2.124e+00 3.894e+00 1.982e+01 0.000e+00 0.000e+00 0.000e+00
231 1 1.451e+01 1.805e+01 2.159e+01 0.000e+00 0.000e+00 0.000e+00
232 1 2.159e+01 1.274e+01 9.205e+00 0.000e+00 0.000e+00 0.000e+00
233 1 3.894e+00 9.204e+00 1.982e+01 0.000e+00 0.000e+00 0.000e+00
234 1 9.204e+00 2.124e+00 2.159e+01 0.000e+00 0.000e+00 0.000e+00
235 1 1.628e+01 3.894e+00 1.982e+01 0.000e+00 0.000e+00 0.000e+00
236 1 2.336e+01 7.434e+00 2.336e+01 0.000e+00 0.000e+00 0.000e+00
237 1 9.204e+00 1.628e+01 3.894e+00 0.000e+00 0.000e+00 0.000e+00
238 1 1.451e+01 1.274e+01 9.205e+00 0.000e+00 0.000e+00 0.000e+00
239 1 1.628e+01 1.982e+01 7.434e+00 0.000e+00 0.000e+00 0.000e+00
240 1 9.204e+00 1.628e+01 2.159e+01 0.000e+00 0.000e+00 0.000e+00
241 1 5.664e+00 1.097e+01 9.204e+00 0.000e+00 0.000e+00 0.000e+00
242 1 2.336e+01 1.097e+01 5.664e+00 0.000e+00 0.000e+00 0.000e+00
243 1 1.097e+01 3.894e+00 1.451e+01 0.000e+00 0.000e+00 0.000e+00
244 1 1.805e+01 9.204e+00 1.628e+01 0.000e+00 0.000e+00 0.000e+00
245 1 1.805e+01 1.097e+01 3.540e-01 0.000e+00 0.000e+00 0.000e+00
246 1 2.159e+01 2.159e+01 7.436e+00 0.000e+00 0.000e+00 0.000e+00
247 1 3.537e-01 2.159e+01 1.451e+01 0.000e+00 0.000e+00 0.000e+00
248 1 9.204e+00 1.451e+01 1.628e+01 0.000e+00 0.000e+00 0.000e+00
249 1 1.274e+01 1.274e+01 3.540e-01 0.000e+00 0.000e+00 0.000e+00
250 1 1.628e+01 1.805e+01 2.124e+00 0.000e+00 0.000e+00 0.000e+00
251 1 3.536e-01 1.274e+01 5.664e+00 0.000e+00 0.000e+00 0.000e+00
252 1 2.336e+01 3.534e-01 1.982e+01 0.000e+00 0.000e+00 0.000e+00
253 1 2.336e+01 5.664e+00 1.097e+01 0.000e+00 0.000e+00 0.000e+00
254 1 1.097e+01 1.805e+01 3.894e+00 0.000e+00 0.000e+00 0.000e+00
255 1 5.664e+00 2.336e+01 7.434e+00 0.000e+00 0.000e+00 0.000e+00
256 1 3.894e+00 2.159e+01 1.451e+01 0.000e+00 0.000e+00 0.000e+00
257 1 2.336e+01 1.097e+01 2.336e+01 0.000e+00 0.000e+00 0.000e+00
258 1 2.124e+00 7.434e+00 2.124e+00 0.000e+00 0.000e+00 0.000e+00
259 1 1.097e+01 9.204e+00 9.204e+00 0.000e+00 0.000e+00 0.000e+00
260 1 9.204e+00 1.982e+01 3.540e-01 0.000e+00 0.000e+00 0.000e+00
261 1 1.097e+01 5.664e+00 9.204e+00 0.000e+00 0.000e+00 0.000e+00
262 1 2.159e+01 1.274e+01 1.274e+01 0.000e+00 0.000e+00 0.000e+00
263 1 2.124e+00 1.805e+01 2.124e+00 0.000e+00 0.000e+00 0.000e+00
264 1 2.159e+01 2.124e+00 2.124e+00 0.000e+00 0.000e+00 0.000e+00
265 1 3.536e-01 2.124e+00 1.982e+01 0.000e+00 0.000e+00 0.000e+00
266 1 3.538e-01 3.894e+00 3.894e+00 0.000e+00 0.000e+00 0.000e+00
267 1 1.451e+01 7.434e+00 7.434e+00 0.000e+00 0.000e+00 0.000e+00
268 1 1.629e+01 1.629e+01 1.098e+01 0.000e+00 0.000e+00 0.000e+00
269 1 2.159e+01 1.451e+01 3.540e-01 0.000e+00 0.000e+00 0.000e+00
270 1 1.451e+01 3.523e-01 1.451e+01 0.000e+00 0.000e+00 0.000e+00
271 1 9.204e+00 7.434e+00 2.336e+01 0.000e+00 0.000e+00 0.000e+00
272 1 7.434e+00 1.451e+01 1.451e+01 0.000e+00 0.000e+00 0.000e+00
273 1 1.097e+01 1.097e+01 3.540e-01 0.000e+00 0.000e+00 0.000e+00
274 1 1.097e+01 1.628e+01 1.628e+01 0.000e+00 0.000e+00 0.000e+00
275 1 9.204e+00 7.434e+00 9.204e+00 0.000e+00 0.000e+00 0.000e+00
276 1 7.434e+00 1.805e+01 1.805e+01 0.000e+00 0.000e+00 0.000e+00
277 1 1.097e+01 1.274e+01 1.628e+01 0.000e+00 0.000e+00 0.000e+00
278 1 1.982e+01 3.894e+00 5.664e+00 0.000e+00 0.000e+00 0.000e+00
279 1 5.664e+00 1.274e+01 1.805e+01 0.000e+00 0.000e+00 0.000e+00
280 1 3.894e+00 1.097e+01 1.451e+01 0.000e+00 0.000e+00 0.000e+00
281 1 1.982e+01 7.434e+00 2.124e+00 0.000e+00 0.000e+00 0.000e+00
282 1 1.274e+01 5.664e+00 2.159e+01 0.000e+00 0.000e+00 0.000e+00
283 1 1.451e+01 1.274e+01 2.336e+01 0.000e+00 0.000e+00 0.000e+00
284 1 3.894e+00 5.664e+00 2.124e+00 0.000e+00 0.000e+00 0.000e+00
285 1 7.434e+00 1.274e+01 9.204e+00 0.000e+00 0.000e+00 0.000e+00
286 1 5.664e+00 2.159e+01 2.336e+01 0.000e+00 0.000e+00 0.000e+00
287 1 9.204e+00 7.434e+00 1.982e+01 0.000e+00 0.000e+00 0.000e+00
288 1 5.664e+00 3.539e-01 2.124e+00 0.000e+00 0.000e+00 0.000e+00
289 1 2.159e+01 2.336e+01 9.206e+00 0.000e+00 0.000e+00 0.000e+00
290 1 1.451e+01 9.204e+00 2.336e+01 0.000e+00 0.000e+00 0.000e+00
291 1 1.982e+01 1.628e+01 2.159e+01 0.000e+00 0.000e+00 0.000e+00
292 1 2.124e+00 1.628e+01 1.805e+01 0.000e+00 0.000e+00 0.000e+00
293 1 5.664e+00 1.628e+01 1.805e+01 0.000e+00 0.000e+00 0.000e+00
294 1 1.805e+01 3.520e-01 7.436e+00 0.000e+00 0.000e+00 0.000e+00
295 1 9.204e+00 2.336e+01 3.540e-01 0.000e+00 0.000e+00 0.000e+00
296 1 3.538e-01 1.274e+01 2.336e+01 0.000e+00 0.000e+00 0.000e+00
297 1 1.628e+01 9.204e+00 2.159e+01 0.000e+00 0.000e+00 0.000e+00
298 1 5.664e+00 3.539e-01 9.204e+00 0.000e+00 0.000e+00 0.000e+00
299 1 5.664e+00 2.336e+01 3.894e+00 0.000e+00 0.000e+00 0.000e+00
300 1 1.628e+01 1.982e+01 3.540e-01 0.000e+00 0.000e+00 0.000e+00
301 1 3.531e-01 1.628e+01 9.205e+00 0.000e+00 0.000e+00 0.000e+00
302 1 5.664e+00 1.628e+01 2.159e+01 0.000e+00 0.000e+00 0.000e+00
303 1 7.434e+00 3.539e-01 3.540e-01 0.000e+00 0.000e+00 0.000e+00
304 1 1.628e+01 5.664e+00 7.434e+00 0.000e+00 0.000e+00 0.000e+00
305 1 2.159e+01 2.336e+01 5.665e+00 0.000e+00 0.000e+00 0.000e+00
306 1 2.336e+01 1.628e+01 3.540e-01 0.000e+00 0.000e+00 0.000e+00
307 1 3.534e-01 2.123e+00 1.628e+01 0.000e+00 0.000e+00 0.000e+00
308 1 1.805e+01 2.336e+01 1.628e+01 0.000e+00 0.000e+00 0.000e+00
309 1 1.451e+01 2.123e+00 1.982e+01 0.000e+00 0.000e+00 0.000e+00
310 1 2.124e+00 3.894e+00 1.628e+01 0.000e+00 0.000e+00 0.000e+00
311 1 7.434e+00 2.336e+01 2.124e+00 0.000e+00 0.000e+00 0.000e+00
312 1 2.336e+01 1.628e+01 1.451e+01 0.000e+00 0.000e+00 0.000e+00
313 1 5.664e+00 1.097e+01 1.274e+01 0.000e+00 0.000e+00 0.000e+00
314 1 5.664e+00 1.982e+01 7.434e+00 0.000e+00 0.000e+00 0.000e+00
315 1 3.532e-01 1.982e+01 1.982e+01 0.000e+00 0.000e+00 0.000e+00
316 1 3.537e-01 1.628e+01 1.274e+01 0.000e+00 0.000e+00 0.000e+00
317 1 1.982e+01 1.097e+01 1.274e+01 0.000e+00 0.000e+00 0.000e+00
318 1 5.664e+00 7.434e+00 2.124e+00 0.000e+00 0.000e+00 0.000e+00
319 1 1.805e+01 7.434e+00 2.159e+01 0.000e+00 0.000e+00 0.000e+00
320 1 1.274e+01 5.664e+00 1.097e+01 0.000e+00 0.000e+00 0.000e+00
321 1 1.451e+01 1.628e+01 5.665e+00 0.000e+00 0.000e+00 0.000e+00
322 1 1.629e+01 1.628e+01 1.805e+01 0.000e+00 0.000e+00 0.000e+00
323 1 1.628e+01 1.451e+01 2.124e+00 0.000e+00 0.000e+00 0.000e+00
324 1 1.451e+01 1.628e+01 2.124e+00 0.000e+00 0.000e+00 0.000e+00
325 1 1.097e+01 2.123e+00 1.274e+01 0.000e+00 0.000e+00 0.000e+00
326 1 1.097e+01 2.159e+01 3.894e+00 0.000e+00 0.000e+00 0.000e+00
327 1 2.336e+01 3.538e-01 2.336e+01 0.000e+00 0.000e+00 0.000e+00
328 1 3.538e-01 7.434e+00 3.894e+00 0.000e+00 0.000e+00 0.000e+00
329 1 3.538e-01 9.204e+00 1.982e+01 0.000e+00 0.000e+00 0.000e+00
330 1 1.451e+01 7.434e+00 2.159e+01 0.000e+00 0.000e+00 0.000e+00
331 1 5.664e+00 1.628e+01 3.540e-01 0.000e+00 0.000e+00 0.000e+00
332 1 1.097e+01 1.097e+01 3.894e+00 0.000e+00 0.000e+00 0.000e+00
333 1 1.274e+01 1.097e+01 5.664e+00 0.000e+00 0.000e+00 0.000e+00
334 1 3.537e-01 1.982e+01 1.628e+01 0.000e+00 0.000e+00 0.000e+00
335 1 1.452e+01 1.982e+01 9.212e+00 0.000e+00 0.000e+00 0.000e+00
336 1 7.434e+00 1.805e+01 2.159e+01 0.000e+00 0.000e+00 0.000e+00
337 1 1.274e+01 1.097e+01 2.336e+01 0.000e+00 0.000e+00 0.000e+00
338 1 9.204e+00 2.336e+01 1.805e+01 0.000e+00 0.000e+00 0.000e+00
339 1 1.805e+01 1.451e+01 2.159e+01 0.000e+00 0.000e+00 0.000e+00
340 1 1.274e+01 5.664e+00 3.540e-01 0.000e+00 0.000e+00 0.000e+00
341 1 1.097e+01 2.159e+01 3.540e-01 0.000e+00 0.000e+00 0.000e+00
342 1 2.124e+00 2.124e+00 3.894e+00 0.000e+00 0.000e+00 0.000e+00
343 1 1.097e+01 1.982e+01 1.628e+01 0.000e+00 0.000e+00 0.000e+00
344 1 1.629e+01 2.336e+01 1.451e+01 0.000e+00 0.000e+00 0.000e+00
345 1 1.805e+01 2.159e+01 3.540e-01 0.000e+00 0.000e+00 0.000e+00
346 1 9.204e+00 1.628e+01 1.451e+01 0.000e+00 0.000e+00 0.000e+00
347 1 1.982e+01 2.159e+01 2.124e+00 0.000e+00 0.000e+00 0.000e+00
348 1 1.097e+01 3.534e-01 7.435e+00 0.000e+00 0.000e+00 0.000e+00
349 1 2.159e+01 9.204e+00 2.124e+00 0.000e+00 0.000e+00 0.000e+00
350 1 2.336e+01 1.805e+01 2.124e+00 0.000e+00 0.000e+00 0.000e+00
351 1 2.336e+01 3.894e+00 9.204e+00 0.000e+00 0.000e+00 0.000e+00
352 1 1.805e+01 7.434e+00 3.540e-01 0.000e+00 0.000e+00 0.000e+00
353 1 3.894e+00 3.894e+00 7.434e+00 0.000e+00 0.000e+00 0.000e+00
354 1 1.097e+01 9.204e+00 1.982e+01 0.000e+00 0.000e+00 0.000e+00
355 1 9.204e+00 9.204e+00 2.159e+01 0.000e+00 0.000e+00 0.000e+00
356 1 3.531e-01 2.159e+01 7.435e+00 0.000e+00 0.000e+00 0.000e+00
357 1 1.982e+01 3.894e+00 1.628e+01 0.000e+00 0.000e+00 0.000e+00
358 1 1.097e+01 1.805e+01 7.435e+00 0.000e+00 0.000e+00 0.000e+00
359 1 7.434e+00 1.982e+01 1.274e+01 0.000e+00 0.000e+00 0.000e+00
360 1 5.664e+00 2.159e+01 5.664e+00 0.000e+00 0.000e+00 0.000e+00
361 1 9.204e+00 1.982e+01 1.097e+01 0.000e+00 0.000e+00 0.000e+00
362 1 1.275e+01 1.452e+01 1.628e+01 0.000e+00 0.000e+00 0.000e+00
363 1 2.124e+00 2.159e+01 1.274e+01 0.000e+00 0.000e+00 0.000e+00
364 1 7.434e+00 1.451e+01 7.434e+00 0.000e+00 0.000e+00 0.000e+00
365 1 2.124e+00 1.805e+01 1.628e+01 0.000e+00 0.000e+00 0.000e+00
366 1 1.274e+01 1.628e+01 3.540e-01 0.000e+00 0.000e+00 0.000e+00
367 1 1.628e+01 1.982e+01 2.159e+01 0.000e+00 0.000e+00 0.000e+00
368 1 1.805e+01 5.664e+00 2.336e+01 0.000e+00 0.000e+00 0.000e+00
369 1 1.451e+01 3.894e+00 1.805e+01 0.000e+00 0.000e+00 0.000e+00
370 1 1.452e+01 1.982e+01 1.628e+01 0.000e+00 0.000e+00 0.000e+00
371 1 2.124e+00 1.451e+01 5.664e+00 0.000e+00 0.000e+00 0.000e+00
372 1 3.894e+00 3.538e-01 7.434e+00 0.000e+00 0.000e+00 0.000e+00
373 1 1.275e+01 3.520e-01 1.274e+01 0.000e+00 0.000e+00 0.000e+00
374 1 3.538e-01 1.982e+01 2.124e+00 0.000e+00 0.000e+00 0.000e+00
375 1 1.451e+01 2.159e+01 3.540e-01 0.000e+00 0.000e+00 0.000e+00
376 1 3.531e-01 2.159e+01 1.805e+01 0.000e+00 0.000e+00 0.000e+00
377 1 2.336e+01 1.982e+01 1.451e+01 0.000e+00 0.000e+00 0.000e+00
378 1 1.805e+01 5.664e+00 1.982e+01 0.000e+00 0.000e+00 0.000e+00
379 1 2.124e+00 1.628e+01 1.097e+01 0.000e+00 0.000e+00 0.000e+00
380 1 1.980e+01 1.982e+01 1.100e+01 0.000e+00 0.000e+00 0.000e+00
381 1 1.451e+01 5.664e+00 1.982e+01 0.000e+00 0.000e+00 0.000e+00
382 1 5.664e+00 3.894e+00 2.336e+01 0.000e+00 0.000e+00 0.000e+00
383 1 7.434e+00 1.451e+01 1.805e+01 0.000e+00 0.000e+00 0.000e+00
384 1 2.336e+01 3.520e-01 1.274e+01 0.000e+00 0.000e+00 0.000e+00
385 1 1.451e+01 7.434e+00 1.451e+01 0.000e+00 0.000e+00 0.000e+00
386 1 1.274e+01 1.097e+01 1.982e+01 0.000e+00 0.000e+00 0.000e+00
387 1 1.274e+01 2.159e+01 5.665e+00 0.000e+00 0.000e+00 0.000e+00
388 1 1.097e+01 2.123e+00 9.204e+00 0.000e+00 0.000e+00 0.000e+00
389 1 3.894e+00 1.628e+01 1.982e+01 0.000e+00 0.000e+00 0.000e+00
390 1 1.805e+01 3.894e+00 7.434e+00 0.000e+00 0.000e+00 0.000e+00
391 1 1.982e+01 1.451e+01 5.665e+00 0.000e+00 0.000e+00 0.000e+00
392 1 1.982e+01 7.434e+00 9.204e+00 0.000e+00 0.000e+00 0.000e+00
393 1 9.204e+00 2.124e+00 7.434e+00 0.000e+00 0.000e+00 0.000e+00
394 1 2.124e+00 9.204e+00 1.805e+01 0.000e+00 0.000e+00 0.000e+00
395 1 1.097e+01 1.097e+01 7.434e+00 0.000e+00 0.000e+00 0.000e+00
396 1 3.894e+00 1.982e+01 9.204e+00 0.000e+00 0.000e+00 0.000e+00
397 1 5.664e+00 1.451e+01 1.274e+01 0.000e+00 0.000e+00 0.000e+00
398 1 2.159e+01 3.529e-01 7.435e+00 0.000e+00 0.000e+00 0.000e+00
399 1 9.204e+00 2.124e+00 1.451e+01 0.000e+00 0.000e+00 0.000e+00
400 1 5.664e+00 3.894e+00 2.124e+00 0.000e+00 0.000e+00 0.000e+00
401 1 2.124e+00 1.097e+01 2.124e+00 0.000e+00 0.000e+00 0.000e+00
402 1 9.204e+00 3.894e+00 9.204e+00 0.000e+00 0.000e+00 0.000e+00
403 1 2.124e+00 7.434e+00 5.664e+00 0.000e+00 0.000e+00 0.000e+00
404 1 1.628e+01 9.204e+00 1.097e+01 0.000e+00 0.000e+00 0.000e+00
405 1 7.434e+00 1.805e+01 3.540e-01 0.000e+00 0.000e+00 0.000e+00
406 1 9.204e+00 1.097e+01 1.982e+01 0.000e+00 0.000e+00 0.000e+00
407 1 1.451e+01 3.894e+00 2.159e+01 0.000e+00 0.000e+00 0.000e+00
408 1 1.274e+01 9.204e+00 1.805e+01 0.000e+00 0.000e+00 0.000e+00
409 1 7.434e+00 3.539e-01 1.451e+01 0.000e+00 0.000e+00 0.000e+00
410 1 1.451e+01 5.664e+00 1.628e+01 0.000e+00 0.000e+00 0.000e+00
411 1 1.628e+01 3.894e+00 2.336e+01 0.000e+00 0.000e+00 0.000e+00
412 1 1.097e+01 3.894e+00 2.159e+01 0.000e+00 0.000e+00 0.000e+00
413 1 1.628e+01 1.274e+01 3.540e-01 0.000e+00 0.000e+00 0.000e+00
414 1 2.336e+01 2.159e+01 5.665e+00 0.000e+00 0.000e+00 0.000e+00
415 1 5.664e+00 2.336e+01 1.805e+01 0.000e+00 0.000e+00 0.000e+00
416 1 1.274e+01 1.451e+01 5.665e+00 0.000e+00 0.000e+00 0.000e+00
417 1 1.982e+01 1.451e+01 1.982e+01 0.000e+00 0.000e+00 0.000e+00
418 1 3.894e+00 1.982e+01 1.982e+01 0.000e+00 0.000e+00 0.000e+00
419 1 5.664e+00 1.097e+01 2.336e+01 0.000e+00 0.000e+00 0.000e+00
420 1 3.894e+00 5.664e+00 2.336e+01 0.000e+00 0.000e+00 0.000e+00
421 1 1.097e+01 7.434e+00 7.434e+00 0.000e+00 0.000e+00 0.000e+00
422 1 9.204e+00 3.894e+00 1.982e+01 0.000e+00 0.000e+00 0.000e+00
423 1 2.336e+01 2.124e+00 2.159e+01 0.000e+00 0.000e+00 0.000e+00
424 1 2.124e+00 2.124e+00 1.451e+01 0.000e+00 0.000e+00 0.000e+00
425 1 1.097e+01 5.664e+00 1.628e+01 0.000e+00 0.000e+00 0.000e+00
426 1 2.124e+00 1.805e+01 9.204e+00 0.000e+00 0.000e+00 0.000e+00
427 1 2.336e+01 5.664e+00 3.540e-01 0.000e+00 0.000e+00 0.000e+00
428 1 1.274e+01 1.805e+01 1.982e+01 0.000e+00 0.000e+00 0.000e+00
429 1 9.204e+00 3.537e-01 1.274e+01 0.000e+00 0.000e+00 0.000e+00
430 1 5.664e+00 1.274e+01 1.451e+01 0.000e+00 0.000e+00 0.000e+00
431 1 1.274e+01 9.204e+00 1.097e+01 0.000e+00 0.000e+00 0.000e+00
432 1 1.097e+01 2.159e+01 1.097e+01 0.000e+00 0.000e+00 0.000e+00
433 1 3.534e-01 1.628e+01 5.665e+00 0.000e+00 0.000e+00 0.000e+00
434 1 2.124e+00 9.204e+00 1.097e+01 0.000e+00 0.000e+00 0.000e+00
435 1 2.336e+01 1.982e+01 1.097e+01 0.000e+00 0.000e+00 0.000e+00
436 1 7.434e+00 3.894e+00 3.894e+00 0.000e+00 0.000e+00 0.000e+00
437 1 1.805e+01 1.097e+01 2.159e+01 0.000e+00 0.000e+00 0.000e+00
438 1 1.805e+01 1.452e+01 7.436e+00 0.000e+00 0.000e+00 0.000e+00
439 1 9.204e+00 5.664e+00 1.805e+01 0.000e+00 0.000e+00 0.000e+00
440 1 1.274e+01 3.894e+00 1.274e+01 0.000e+00 0.000e+00 0.000e+00
441 1 9.204e+00 3.538e-01 2.124e+00 0.000e+00 0.000e+00 0.000e+00
442 1 1.628e+01 2.159e+01 1.982e+01 0.000e+00 0.000e+00 0.000e+00
443 1 1.097e+01 1.274e+01 5.664e+00 0.000e+00 0.000e+00 0.000e+00
444 1 1.982e+01 2.336e+01 2.159e+01 0.000e+00 0.000e+00 0.000e+00
445 1 3.894e+00 7.434e+00 1.451e+01 0.000e+00 0.000e+00 0.000e+00
446 1 1.097e+01 3.894e+00 1.097e+01 0.000e+00 0.000e+00 0.000e+00
447 1 1.274e+01 1.805e+01 2.336e+01 0.000e+00 0.000e+00 0.000e+00
448 1 1.982e+01 1.097e+01 2.336e+01 0.000e+00 0.000e+00 0.000e+00
449 1 7.434e+00 1.274e+01 5.664e+00 0.000e+00 0.000e+00 0.000e+00
450 1 2.336e+01 1.097e+01 1.982e+01 0.000e+00 0.000e+00 0.000e+00
451 1 3.533e-01 3.534e-01 1.805e+01 0.000e+00 0.000e+00 0.000e+00