         107
Lattice="  10.6200   0.0000   0.0000   0.0000  10.6200   0.0000   0.0000   0.0000  10.6200 " Time=0.000E+00  Step=0  Energy=-474.306  Barrier=0.000
Ni     0.34475073    0.35400000    0.36324927       1
Ni     2.12147070    2.12226836    0.35573164       2
Ni     2.13315952    0.35400000    2.12400000       3
Ni     0.34475073    2.11475073    2.12400000       4
Ni     3.89400000    0.35400000    0.35227359       5
Ni     5.66652930    2.12226836    0.35573164       6
Ni     5.65484048    0.35400000    2.12400000       7
Ni     3.89400000    2.12572641    2.12400000       8
Ni     7.44324927    0.35400000    0.36324927       9
Ni     9.20400000    2.11475073    0.36324927      10
Ni     7.44324927    2.11475073    2.12400000      11
Ni     0.35226836    3.89147070    0.35573164      12
Ni     2.12069403    3.89069403    2.12400000      13
Ni     3.89400000    3.89324435    0.35470320      14
Ni     5.66730597    3.89069403    2.12400000      15
Ni     7.43573164    3.89147070    0.35573164      16
Ni     9.20400000    3.90315952    2.12400000      17
Ni     0.34475073    0.35400000    3.88475073      18
Ni     2.12147070    2.12226836    3.89226836      19
Ni     3.89400000    0.35400000    3.89572641      20
Ni     5.66652930    2.12226836    3.89226836      21
Ni     7.44324927    0.35400000    3.88475073      22
Ni     9.20400000    2.11475073    3.88475073      23
Ni     0.35226836    3.89147070    3.89226836      24
Ni     3.89400000    3.89324435    3.89329680      25
Ni     7.43573164    3.89147070    3.89226836      26
Ni     2.12069403    0.35400000    5.66069403      27
Ni     0.35226836    2.12226836    5.66147070      28
Ni     5.66730597    0.35400000    5.66069403      29
Ni     3.89400000    2.12329680    5.66324435      30
Ni     9.20400000    0.35400000    5.67315952      31
Ni     7.43573164    2.12226836    5.66147070      32
Ni     2.12306493    3.89306493    5.66306493      33
Ni     5.66493507    3.89306493    5.66306493      34
Ni     9.20400000    3.89069403    5.66069403      35
Ni     0.35572641    0.35400000    7.43400000      36
Ni     2.12324435    2.12329680    7.43400000      37
Ni     2.12069403    0.35400000    9.20730597      38
Ni     0.35226836    2.12226836    9.20652930      39
Ni     3.89400000    0.35400000    7.43400000      40
Ni     5.66475565    2.12329680    7.43400000      41
Ni     5.66730597    0.35400000    9.20730597      42
Ni     3.89400000    2.12329680    9.20475565      43
Ni     7.43227359    0.35400000    7.43400000      44
Ni     9.20400000    2.12572641    7.43400000      45
Ni     9.20400000    0.35400000    9.19484048      46
Ni     7.43573164    2.12226836    9.20652930      47
Ni     0.35329680    3.89324435    7.43400000      48
Ni     2.12306493    3.89306493    9.20493507      49
Ni     3.89400000    3.89351599    7.43400000      50
Ni     5.66493507    3.89306493    9.20493507      51
Ni     7.43470320    3.89324435    7.43400000      52
Ni     9.20400000    3.89069403    9.20730597      53
Ni     2.12324435    5.66400000    0.35470320      54
Ni     0.35572641    5.66400000    2.12400000      55
Ni     5.66475565    5.66400000    0.35470320      56
Ni     3.89400000    5.66400000    2.12400000      57
Ni     9.20400000    5.66400000    0.35227359      58
Ni     7.43227359    5.66400000    2.12400000      59
Ni     0.35226836    7.43652930    0.35573164      60
Ni     2.12147070    9.20573164    0.35573164      61
Ni     2.12069403    7.43730597    2.12400000      62
Ni     0.34475073    9.21324927    2.12400000      63
Ni     3.89400000    7.43475565    0.35470320      64
Ni     5.66652930    9.20573164    0.35573164      65
Ni     5.66730597    7.43730597    2.12400000      66
Ni     3.89400000    9.20227359    2.12400000      67
Ni     7.43573164    7.43652930    0.35573164      68
Ni     9.20400000    9.21324927    0.36324927      69
Ni     9.20400000    7.42484048    2.12400000      70
Ni     7.44324927    9.21324927    2.12400000      71
Ni     2.12324435    5.66400000    3.89329680      72
Ni     5.66475565    5.66400000    3.89329680      73
Ni     9.20400000    5.66400000    3.89572641      74
Ni     0.35226836    7.43652930    3.89226836      75
Ni     2.12147070    9.20573164    3.89226836      76
Ni     3.89400000    7.43475565    3.89329680      77
Ni     5.66652930    9.20573164    3.89226836      78
Ni     7.43573164    7.43652930    3.89226836      79
Ni     9.20400000    9.21324927    3.88475073      80
Ni     0.35329680    5.66400000    5.66324435      81
Ni     3.89400000    5.66400000    5.66351599      82
Ni     7.43470320    5.66400000    5.66324435      83
Ni     2.12306493    7.43493507    5.66306493      84
Ni     0.35226836    9.20573164    5.66147070      85
Ni     5.66493507    7.43493507    5.66306493      86
Ni     3.89400000    9.20470320    5.66324435      87
Ni     9.20400000    7.43730597    5.66069403      88
Ni     7.43573164    9.20573164    5.66147070      89
Ni     2.12351599    5.66400000    7.43400000      90
Ni     0.35329680    5.66400000    9.20475565      91
Ni     5.66448401    5.66400000    7.43400000      92
Ni     3.89400000    5.66400000    9.20448401      93
Ni     9.20400000    5.66400000    7.43400000      94
Ni     7.43470320    5.66400000    9.20475565      95
Ni     0.35329680    7.43475565    7.43400000      96
Ni     2.12324435    9.20470320    7.43400000      97
Ni     2.12306493    7.43493507    9.20493507      98
Ni     0.35226836    9.20573164    9.20652930      99
Ni     3.89400000    7.43448401    7.43400000     100
Ni     5.66475565    9.20470320    7.43400000     101
Ni     5.66493507    7.43493507    9.20493507     102
Ni     3.89400000    9.20470320    9.20475565     103
Ni     7.43470320    7.43475565    7.43400000     104
Ni     9.20400000    9.20227359    7.43400000     105
Ni     9.20400000    7.43730597    9.20730597     106
Ni     7.43573164    9.20573164    9.20652930     107
         107
Lattice="  10.6200   0.0000   0.0000   0.0000  10.6200   0.0000   0.0000   0.0000  10.6200 " Time=4.902E-12  Step=0.5  Energy=-473.283  Barrier=1.022
Ni     0.35322762    0.33322421    0.39700440       1
Ni     2.11489134    2.12171966    0.35614553       2
Ni     2.18386326    0.36046412    2.11741900       3
Ni     0.35394893    2.08120465    2.14460481       4
Ni     3.89391611    0.35860486    0.33079100       5
Ni     5.67280959    2.12199569    0.35611095       6
Ni     5.60442465    0.36070934    2.11748736       7
Ni     3.89362859    2.14714463    2.11918841       8
Ni     7.43420042    0.33340188    0.39689168       9
Ni     9.20395201    2.08144779    0.39678152      10
Ni     7.43444290    2.08148334    2.14455218      11
Ni     0.33709296    3.87891820    0.37245539      12
Ni     2.10753596    3.88931286    2.12727769      13
Ni     3.89404762    3.88850322    0.35013437      14
Ni     5.68056136    3.88907964    2.12736158      15
Ni     7.45089377    3.87868152    0.37232857      16
Ni     9.20414630    3.87910591    2.14079990      17
Ni     0.51706179    0.37935484    3.93575884      18
Ni     2.16296201    2.15294646    3.90893755      19
Ni     3.89381769    0.36048997    3.91691733      20
Ni     5.62478355    2.15303698    3.90884745      21
Ni     7.27071957    0.37925537    3.93553953      22
Ni     9.20397598    2.03925359    3.86456215      23
Ni     0.34362059    3.87076693    3.89716102      24
Ni     3.89399022    3.91266635    3.90920814      25
Ni     7.44445425    3.87076215    3.89711450      26
Ni     2.16292794    0.35263421    5.70927618      27
Ni     0.35394525    2.11282721    5.66909977      28
Ni     5.62483124    0.35253090    5.70966918      29
Ni     3.89404792    2.13971672    5.69633692      30
Ni     9.20401286    0.30833201    5.59567063      31
Ni     7.43402348    2.11268071    5.66915356      32
Ni     2.11201151    3.89551998    5.68170877      33
Ni     5.67606800    3.89550069    5.68181183      34
Ni     9.20406179    3.86955460    5.65215019      35
Ni     0.34345216    0.34069370    7.42712631      36
Ni     2.11199930    2.12499808    7.45222508      37
Ni     2.10719044    0.35057494    9.20915836      38
Ni     0.33710726    2.10549784    9.21970912      39
Ni     3.89414755    0.35254364    7.46946317      40
Ni     5.67611080    2.12530134    7.45229186      41
Ni     5.68059783    0.35054515    9.20882581      42
Ni     3.89403101    2.12786752    9.20938733      43
Ni     7.44456076    0.34062111    7.42720489      44
Ni     9.20414761    2.09553932    7.42622775      45
Ni     9.20405283    0.33714535    9.21933946      46
Ni     7.45092861    2.10540501    9.21943449      47
Ni     0.33479440    3.88405589    7.44085020      48
Ni     2.10574941    3.88679074    9.21110740      49
Ni     3.89404976    3.89397502    7.45045169      50
Ni     5.68245406    3.88695877    9.21105904      51
Ni     7.45352975    3.88405117    7.44080671      52
Ni     9.20397172    3.87575804    9.22202946      53
Ni     2.11211662    5.64577730    0.35265637      54
Ni     0.34357095    5.67063764    2.13754886      55
Ni     5.67589531    5.64591218    0.35267249      56
Ni     3.89429557    5.62863663    2.12531134      57
Ni     9.20386172    5.67183996    0.38226568      58
Ni     7.44421553    5.67067922    2.13737114      59
Ni     0.35383401    7.42871540    0.36560784      60
Ni     2.16307667    9.18853236    0.32476731      61
Ni     2.16297380    7.38835172    2.12529323      62
Ni     0.51741265    9.16290233    2.09921089      63
Ni     3.89416342    7.40176458    0.33819281      64
Ni     5.62506107    9.18906880    0.32513485      65
Ni     5.62498847    7.38862167    2.12564284      66
Ni     3.89411580    9.18086750    2.11745914      67
Ni     7.43385348    7.42861352    0.36521859      68
Ni     9.20401748    9.23273871    0.43907668      69
Ni     9.20438322    7.50220383    2.16991297      70
Ni     7.27110686    9.16215802    2.09897583      71
Ni     2.10784363    5.65238443    3.90728922      72
Ni     5.68020480    5.65236407    3.90749630      73
Ni     9.20383775    5.66227571    3.89393533      74
Ni     0.35366646    7.45998315    3.88956109      75
Ni     2.18351001    9.18054860    3.91713701      76
Ni     3.89402334    7.39424457    3.91528444      77
Ni     5.60459203    9.18096108    3.91722231      78
Ni     7.43396844    7.45989584    3.88994786      79
Ni     9.20399001   10.08073615    3.01727066      80
Ni     0.33715884    5.66278683    5.66233966      81
Ni     3.89400849    5.65289712    5.68458992      82
Ni     7.45074400    5.66269585    5.66218002      83
Ni     2.11504474    7.41954337    5.67841660      84
Ni     0.35372049    9.20808089    5.63747300      85
Ni     5.67270703    7.41951260    5.67851935      86
Ni     3.89375977    9.18299396    5.70367557      87
Ni     9.20389459    7.46017988    5.63782325      88
Ni     7.43432339    9.20826550    5.63762727      89
Ni     2.10582307    5.65465209    7.44336495      90
Ni     0.33458658    5.65701233    9.21337881      91
Ni     5.68246714    5.65462762    7.44351385      92
Ni     3.89404498    5.64764853    9.20396167      93
Ni     9.20382297    5.66559315    7.43236657      94
Ni     7.45324359    5.65726600    9.21372025      95
Ni     0.33715524    7.43609622    7.43521751      96
Ni     2.10748716    9.19112024    7.44554211      97
Ni     2.11198402    7.41624525    9.20220624      98
Ni     0.34340292    9.20091284    9.22736914      99
Ni     3.89392866    7.41397736    7.44510791     100
Ni     5.68072124    9.19068529    7.44544914     101
Ni     5.67599002    7.41645255    9.20241285     102
Ni     3.89408663    9.18899050    9.18532332     103
Ni     7.45098945    7.43589180    7.43508666     104
Ni     9.20408487    9.20440383    7.43540055     105
Ni     9.20384484    7.44589274    9.22817050     106
Ni     7.44462191    9.20100683    9.22734424     107
         107
Lattice="  10.6200   0.0000   0.0000   0.0000  10.6200   0.0000   0.0000   0.0000  10.6200 " Time=4.902E-12  Step=1  Energy=-474.306  Barrier=0.000
Ni     0.35221337    0.33584063    0.37286614       1
Ni     2.12288637    2.10651429    0.37145549       2
Ni     2.12131106    0.33560583    2.14238894       3
Ni     0.35224172    2.10510874    2.14214541       4
Ni     3.89397098    0.33669833    0.37159908       5
Ni     5.66515921    2.10652008    0.37149776       6
Ni     5.66671100    0.33555914    2.14241870       7
Ni     3.89391130    2.10640225    2.14128566       8
Ni     7.43575717    0.33588728    0.37289287       9
Ni     9.20398267    2.10456244    0.37342285      10
Ni     7.43581783    2.10510443    2.14215444      11
Ni     0.35313932    3.87750988    0.37097261      12
Ni     2.12309994    3.87721397    2.14126321      13
Ni     3.89397474    3.87726352    0.37112565      14
Ni     5.66491220    3.87722335    2.14121450      15
Ni     7.43486078    3.87747572    0.37104327      16
Ni     9.20404969    3.87748481    2.13872193      17
Ni     0.34449238    0.32826917    3.91064108      18
Ni     2.12057224    2.10411362    3.91060024      19
Ni     3.89396285    0.33938330    3.91089217      20
Ni     5.66743710    2.10411404    3.91053592      21
Ni     7.44354735    0.32827990    3.91061475      22
Ni     9.20399433    2.11670529    3.91038958      23
Ni     0.35540676    3.87756313    3.91069661      24
Ni     3.89396762    3.87721919    3.91051568      25
Ni     7.43257135    3.87749550    3.91065603      26
Ni     2.12111711    0.33586265    5.67898993      27
Ni     0.35257517    2.10507952    5.67867681      28
Ni     5.66687564    0.33587244    5.67897782      29
Ni     3.89400758    2.10686391    5.68020009      30
Ni     9.20393014    0.32880641    5.67170473      31
Ni     7.43546114    2.10508145    5.67881971      32
Ni     2.12349932    3.87779452    5.67961159      33
Ni     5.66451148    3.87782902    5.67957095      34
Ni     9.20393111    3.87704902    5.68273674      35
Ni     0.35211757    0.33595615    7.44836820      36
Ni     2.12344265    2.10654764    7.44976667      37
Ni     2.12310051    0.33675277    9.22078040      38
Ni     0.35314200    2.10698122    9.22056726      39
Ni     3.89403227    0.33626492    7.45018559      40
Ni     5.66455450    2.10655279    7.44972446      41
Ni     5.66490071    0.33677969    9.22079406      42
Ni     3.89399896    2.10686169    9.22073625      43
Ni     7.43589815    0.33609760    7.44830767      44
Ni     9.20387988    2.10458665    7.44744698      45
Ni     9.20394245    0.33927711    9.22051116      46
Ni     7.43487176    2.10697816    9.22044290      47
Ni     0.35403486    3.87733682    7.44972210      48
Ni     2.12358997    3.87735525    9.22061286      49
Ni     3.89400812    3.87786641    7.45016127      50
Ni     5.66439975    3.87739856    9.22065129      51
Ni     7.43397629    3.87724707    7.44974812      52
Ni     9.20394508    3.87782971    9.22018192      53
Ni     2.12347199    5.64824228    0.37143888      54
Ni     0.35210104    5.64961812    2.14199178      55
Ni     5.66457106    5.64828156    0.37146309      56
Ni     3.89405781    5.64784542    2.14177131      57
Ni     9.20397470    5.65055115    0.37343917      58
Ni     7.43588902    5.64968197    2.14194257      59
Ni     0.35254546    7.41924939    0.37291587      60
Ni     2.12059522    9.18741718    0.37387729      61
Ni     2.12115450    7.41899111    2.14217615      62
Ni     0.34447231    9.18740083    2.14969714      63
Ni     3.89404009    7.41779230    0.37114349      64
Ni     5.66743251    9.18743576    0.37385466      65
Ni     5.66689262    7.41900142    2.14210515      66
Ni     3.89406239    9.18709110    2.13860756      67
Ni     7.43546229    7.41924573    0.37293148      68
Ni     9.20399182    9.18760717    0.36128541      69
Ni     9.20393891    7.42630249    2.14920720      70
Ni     7.44351919    9.18736013    2.14973817      71
Ni     2.12016425    5.65078448    3.91042596      72
Ni     5.66783552    5.65080591    3.91040757      73
Ni     9.20401209    5.63818943    3.91069734      74
Ni     0.34438048    7.42664289    3.91047330      75
Ni     2.13301131    9.18752040    3.91048782      76
Ni     3.89406443    7.41573111    3.91017065      77
Ni     5.65498333    9.18752408    3.91049044      78
Ni     7.44359117    7.42665495    3.91047199      79
Ni     9.20403191   10.94823196    2.14978753      80
Ni     0.35198337    5.64989044    5.67905630      81
Ni     3.89399082    5.64854649    5.67946508      82
Ni     7.43597466    5.64990702    5.67908097      83
Ni     2.12134713    7.41933038    5.67868272      84
Ni     0.34441045    9.18755578    5.67133265      85
Ni     5.66668595    7.41932754    5.67868291      86
Ni     3.89398163    9.18780994    5.68225059      87
Ni     9.20401860    7.42631908    5.67168289      88
Ni     7.44361029    9.18748192    5.67134305      89
Ni     2.12323776    5.64858124    7.44939779      90
Ni     0.35401783    5.64826957    9.22073234      91
Ni     5.66478713    5.64858876    7.44944225      92
Ni     3.89396735    5.64783975    9.22011492      93
Ni     9.20401623    5.64996968    7.44806440      94
Ni     7.43400156    5.64828782    9.22067727      95
Ni     0.35200202    7.41892957    7.44810891      96
Ni     2.12015831    9.18758981    7.44723598      97
Ni     2.12351249    7.41840679    9.22018274      98
Ni     0.35540077    9.18735098    9.22051682      99
Ni     3.89393114    7.41854513    7.44943733     100
Ni     5.66782606    9.18755865    7.44718262     101
Ni     5.66450879    7.41840842    9.22018477     102
Ni     3.89397724    9.18747956    9.22077824     103
Ni     7.43605279    7.41894026    7.44813730     104
Ni     9.20403063    9.18729375    7.45981121     105
Ni     9.20405033    7.41524369    9.22093812     106
Ni     7.43257576    9.18732065    9.22047274     107
         107
Lattice="  10.6200   0.0000   0.0000   0.0000  10.6200   0.0000   0.0000   0.0000  10.6200 " Time=5.878E-12  Step=1.5  Energy=-473.283  Barrier=1.022
Ni     0.36921069    0.36645132    0.33147604       1
Ni     2.14198187    2.10935893    0.38245130       2
Ni     2.12906316    0.32635610    2.14045370       3
Ni     0.35697017    2.08435860    2.15063702       4
Ni     3.91217692    0.33853343    0.38269103       5
Ni     5.67097688    2.10025317    0.38894830       6
Ni     5.67933205    0.31890803    2.15748966       7
Ni     3.90084560    2.09757627    2.16000208       8
Ni     7.43593800    0.33535800    0.37959917       9
Ni     9.20760620    2.10288441    0.38678508      10
Ni     7.45261114    2.09231797    2.15719972      11
Ni     0.36757522    3.86623711    0.38694064      12
Ni     2.12217760    3.87623273    2.15757050      13
Ni     3.90345772    3.86817096    0.38896275      14
Ni     5.67377509    3.87046347    2.15995888      15
Ni     7.43254479    3.85932525    0.38241606      16
Ni     9.21760295    3.88434053    2.15075053      17
Ni     0.32420343    0.25293890    3.91035561      18
Ni     2.11178225    2.08293405    3.91048733      19
Ni     3.88601688    0.30907113    3.91051038      20
Ni     5.68243598    2.08910422    3.91037975      21
Ni     7.47637157    0.29486752    3.91105987      22
Ni     9.22086424    2.09247983    3.91047231      23
Ni     0.35339448    3.87595873    3.91062004      24
Ni     3.89253551    3.87851055    3.91052351      25
Ni     7.46254770    3.88522163    3.91037727      26
Ni     2.12899429    0.32628760    5.68072608      27
Ni     0.35686520    2.08420682    5.67025156      28
Ni     5.67963200    0.31894445    5.66353217      29
Ni     3.90098522    2.09722052    5.66103478      30
Ni     9.22464740    0.29506653    5.68090946      31
Ni     7.45278077    2.09221311    5.66378060      32
Ni     2.12211799    3.87580321    5.66349849      33
Ni     5.67401365    3.87032938    5.66092863      34
Ni     9.21729452    3.88415685    5.67027673      35
Ni     0.36898091    0.36645083    7.48984228      36
Ni     2.14194035    2.10902984    7.43872119      37
Ni     2.15640011    0.35310046    9.22066935      38
Ni     0.36949671    2.12673245    9.22054090      39
Ni     3.91240811    0.33844384    7.43849551      40
Ni     5.67114150    2.10004185    7.43219289      41
Ni     5.66939897    0.34100063    9.22062628      42
Ni     3.91042745    2.10717656    9.22058418      43
Ni     7.43620155    0.33530598    7.44173354      44
Ni     9.20744939    2.10281221    7.43442414      45
Ni     9.19932845    0.36085796    9.22082935      46
Ni     7.43011744    2.10195497    9.22069266      47
Ni     0.36772253    3.86613536    7.43369778      48
Ni     2.14488808    3.86672700    9.22037902      49
Ni     3.90362717    3.86791895    7.43173448      50
Ni     5.66382498    3.86095662    9.22049934      51
Ni     7.43265703    3.85914112    7.43886883      52
Ni     9.20548081    3.84237900    9.22053830      53
Ni     2.13864256    5.63323127    0.37976568      54
Ni     0.34985551    5.67377571    2.14102244      55
Ni     5.66182552    5.62981472    0.38275369      56
Ni     3.89510515    5.64937883    2.15780990      57
Ni     9.20570512    5.60202428    0.33153308      58
Ni     7.44519916    5.64208000    2.14044626      59
Ni     0.37735270    7.39424174    0.31082980      60
Ni     2.16956033    9.18562635    0.33178567      61
Ni     2.09742084    7.42160642    2.14155643      62
Ni     0.39525559    9.21276137    1.97718885      63
Ni     3.90545290    7.40435754    0.38742696      64
Ni     5.66883491    9.18389474    0.38739147      65
Ni     5.68727443    7.41450276    2.15131434      66
Ni     3.88703691    9.17413197    2.15131343      67
Ni     7.40478974    7.40220025    0.33184797      68
Ni     9.19747416    9.19375008    0.31070315      69
Ni     9.17882669    7.37575150    1.97725784      70
Ni     7.47703584    9.16681258    2.14091586      71
Ni     2.09807387    5.67303753    3.91075218      72
Ni     5.68831538    5.65921506    3.91040842      73
Ni     9.24947361    5.71549310    3.91047137      74
Ni    -0.52296216    8.29417296    3.91046331      75
Ni     2.05534801    9.14237740    3.91047999      76
Ni     3.89529714    7.41817798    3.91075055      77
Ni     5.67934908    9.17065604    3.91050861      78
Ni     7.51877672    7.44652580    3.91048257      79
Ni     9.22448029   10.91489254    2.14046323      80
Ni     0.34962645    5.67371515    5.68017000      81
Ni     3.89540956    5.64935884    5.66321686      82
Ni     7.44530378    5.64192587    5.68065818      83
Ni     2.09720063    7.42188215    5.67961941      84
Ni     0.39518867    9.21283809    5.84365522      85
Ni     5.68750689    7.41445283    5.66981535      86
Ni     3.88719695    9.17436704    5.67000086      87
Ni     9.17887568    7.37558125    5.84369838      88
Ni     7.47735301    9.16682079    5.68020811      89
Ni     2.13879579    5.63315337    7.44080618      90
Ni     0.37587196    5.60768856    9.22041066      91
Ni     5.66237614    5.62973850    7.43838035      92
Ni     3.90518136    5.62724553    9.22029584      93
Ni     9.20555846    5.60206101    7.48968653      94
Ni     7.41802580    5.61505570    9.22074681      95
Ni     0.37715669    7.39429042    7.51015412      96
Ni     2.16917965    9.18592802    7.48934439      97
Ni     2.16405196    7.39604103    9.22032917      98
Ni     0.37719182    9.19382031    9.22055535      99
Ni     3.90550202    7.40451276    7.43346410     100
Ni     5.66903790    9.18404750    7.43379608     101
Ni     5.64494871    7.40234118    9.22046289     102
Ni     3.92937838    9.18602034    9.22044494     103
Ni     7.40503555    7.40236088    7.48942434     104
Ni     9.19747465    9.19378132    7.51054787     105
Ni     9.19735030    7.39394505    9.22062051     106
Ni     7.41060054    9.19192906    9.22071743     107
         107
Lattice="  10.6200   0.0000   0.0000   0.0000  10.6200   0.0000   0.0000   0.0000  10.6200 " Time=5.878E-12  Step=2  Energy=-474.306  Barrier=0.000
Ni     0.37113450    0.31752673    0.37326467       1
Ni     2.13991674    2.09087848    0.37130308       2
Ni     2.13868137    0.31820654    2.14227121       3
Ni     0.37096801    2.09119861    2.13881637       4
Ni     3.90961521    0.31995987    0.37152345       5
Ni     5.68055345    2.09095074    0.37121542       6
Ni     5.68023331    0.32015953    2.14126793       7
Ni     3.90968001    2.09084091    2.14126316       8
Ni     7.45147090    0.32010364    0.37164011       9
Ni     9.22132560    2.09107575    0.37113228      10
Ni     7.45165622    2.09036873    2.14154338      11
Ni     0.37049480    3.86414031    0.37376231      12
Ni     2.13889949    3.86353781    2.14222619      13
Ni     3.90962531    3.86183648    0.37149551      14
Ni     5.68069830    3.86167021    2.14125699      15
Ni     7.45148475    3.86175655    0.37158587      16
Ni     9.22233743    3.86339538    2.14233260      17
Ni     0.37081022    0.32999252    3.91064342      18
Ni     2.14238364    2.09087272    3.91057053      19
Ni     3.90717454    0.31742204    3.91053987      20
Ni     5.68002687    2.09142511    3.91058907      21
Ni     7.45300918    0.31798347    3.91079778      22
Ni     9.21870241    2.09015646    3.91027806      23
Ni     0.37059237    3.85177560    3.91055677      24
Ni     3.90718397    3.86428819    3.91055072      25
Ni     7.45405380    3.86426540    3.91050872      26
Ni     2.13878289    0.31821128    5.67884968      27
Ni     0.37061254    2.09091473    5.68219493      28
Ni     5.67982462    0.32015426    5.68033142      29
Ni     3.90966124    2.09086785    5.67984375      30
Ni     9.22209478    0.31846507    5.67881248      31
Ni     7.45123432    2.09130367    5.68000501      32
Ni     2.13884422    3.86348279    5.67886618      33
Ni     5.68059817    3.86177513    5.67983793      34
Ni     9.22236840    3.86338483    5.67869220      35
Ni     0.37051550    0.31752727    7.44720399      36
Ni     2.13984587    2.09083853    7.44976573      37
Ni     2.14009299    0.32010764    9.22045896      38
Ni     0.37057831    2.09072120    9.22047980      39
Ni     3.90955315    0.31995574    7.44967164      40
Ni     5.68047637    2.09099534    7.44998592      41
Ni     5.68053343    0.32057066    9.22056346      42
Ni     3.91010190    2.09095340    9.22055951      43
Ni     7.45132582    0.32010943    7.44943654      44
Ni     9.22126354    2.09087857    7.44975786      45
Ni     9.22101967    0.32026187    9.22055520      46
Ni     7.45086148    2.09091241    9.22052216      47
Ni     0.37047167    3.86410466    7.44729158      48
Ni     2.13978169    3.86156258    9.22053829      49
Ni     3.90961612    3.86182713    7.44958947      50
Ni     5.68051996    3.86136819    9.22054623      51
Ni     7.45150564    3.86186281    7.44960460      52
Ni     9.22115187    3.86152302    9.22051018      53
Ni     2.13878864    5.63266858    0.37283627      54
Ni     0.37060954    5.64017616    2.14954289      55
Ni     5.68061501    5.63159294    0.37131272      56
Ni     3.90799881    5.63260945    2.14221872      57
Ni     9.22229056    5.63267207    0.37305889      58
Ni     7.45324415    5.63270217    2.14225825      59
Ni     0.37041696    7.40102778    0.36122096      60
Ni     2.13886538    9.16912251    0.37303559      61
Ni     2.13137257    7.40077576    2.14954157      62
Ni     0.37082112    9.16116651    2.14998807      63
Ni     3.90736307    7.40096837    0.37378055      64
Ni     5.68061356    9.17020024    0.37138345      65
Ni     5.68062230    7.40085208    2.13884023      66
Ni     3.90797809    9.16909536    2.14229388      67
Ni     7.45391946    7.40099991    0.37393394      68
Ni     9.22227412    9.16901343    0.37280731      69
Ni     9.22983969    7.40107420    2.14998141      70
Ni     7.45328687    9.16990606    2.14248501      71
Ni     2.13120227    5.64025036    3.91055219      72
Ni     5.68059563    5.62912463    3.91053964      73
Ni     9.23008742    5.64017623    3.91052644      74
Ni    -1.39100852    9.16280003    3.91032638      75
Ni     2.13133199    9.16136683    3.91058524      76
Ni     3.91957913    7.40074797    3.91054930      77
Ni     5.68031573    9.17218285    3.91059186      78
Ni     7.44145940    7.40089611    3.91048652      79
Ni     9.22283148   10.93834886    2.14198876      80
Ni     0.37059665    5.64018341    5.67154447      81
Ni     3.90797691    5.63261382    5.67887229      82
Ni     7.45324921    5.63269966    5.67881241      83
Ni     2.13128276    7.40085664    5.67155002      84
Ni     0.37037705    9.16157240    5.67107151      85
Ni     5.68054617    7.40075849    5.68224639      86
Ni     3.90795885    9.16906172    5.67880848      87
Ni     9.22987656    7.40107219    5.67101450      88
Ni     7.45292404    9.16904108    5.67905247      89
Ni     2.13878942    5.63266521    7.44823523      90
Ni     0.37040468    5.62917102    9.22053970      91
Ni     5.68062099    5.63160236    7.44976004      92
Ni     3.90988032    5.63165228    9.22052649      93
Ni     9.22230979    5.63268173    7.44799948      94
Ni     7.45136151    5.63146624    9.22055252      95
Ni     0.37038595    7.40107511    7.45981090      96
Ni     2.13879163    9.16916650    7.44802631      97
Ni     2.14230303    7.40105598    9.22054721      98
Ni     0.37048927    9.17278494    9.22047340      99
Ni     3.90735060    7.40097867    7.44729976     100
Ni     5.68054819    9.17014951    7.44980369     101
Ni     5.68076802    7.40087472    9.22053937     102
Ni     3.90997168    9.17029032    9.22055607     103
Ni     7.45394575    7.40089525    7.44724569     104
Ni     9.22221145    9.16926899    7.44800627     105
Ni     9.21864269    7.40098279    9.22050404     106
Ni     7.45117384    9.17043369    9.22052504     107
         107
Lattice="  10.6200   0.0000   0.0000   0.0000  10.6200   0.0000   0.0000   0.0000  10.6200 " Time=1.264E-11  Step=2.5  Energy=-473.283  Barrier=1.022
Ni     0.37205085    0.36657890    0.33172738       1
Ni     2.15391606    2.10235164    0.38721582       2