ITEM: TIMESTEP
0
ITEM: NUMBER OF ATOMS
9360
ITEM: BOX BOUNDS pp pp pp
0.0 42.3235016
0.0 45.8549004
0.0 52.9081002
ITEM: ATOMS id type x y z
1 1 5.2708149 37.0159912 47.2936821
2 1 7.0241199 37.0128632 45.528492
3 1 5.2726517 38.7824021 49.0532761
4 1 7.0323 37.0202866 49.0546799
5 1 8.7876196 37.0206985 47.287426
6 1 10.5435715 38.7914925 47.2746964
7 1 8.7904797 38.7893753 49.0455132
8 1 10.5493622 37.0293007 49.044136
9 1 14.0570211 38.8084946 47.2535629
10 1 15.8191986 40.5840492 47.2410774
11 1 12.3026943 38.8045197 49.0288773
12 1 14.0546885 37.0473366 49.0225716
13 1 15.8098059 37.0510292 47.2459412
14 1 17.5721607 38.8276329 47.2347832
15 1 15.8090391 38.8256302 49.0076599
16 1 17.5574093 37.0715866 48.9968452
17 1 19.3276196 37.0691338 47.2305336
18 1 21.0948906 38.8432504 47.2247315
19 1 19.3216133 38.8465768 48.9909554
20 1 21.0736084 37.0959549 48.9791336
21 1 22.8566856 37.08181 47.2268028
22 1 24.6385365 38.8656082 47.2090378
23 1 22.8507442 38.8662034 48.9761392
24 1 24.6267452 37.1519089 48.928341
25 1 26.4304409 37.0954094 47.2308502
26 1 28.2131271 38.8598634 47.2207184
27 1 26.4244423 38.894104 48.9492036
28 1 28.2330036 37.1414719 48.9444962
29 1 29.983595 38.8248024 45.4889679
30 1 31.774746 38.8388253 47.2345238
31 1 30.0078697 38.8708572 48.97567
32 1 31.7980919 37.1028328 48.9709168
33 1 33.5522156 37.0747223 47.2287827
34 1 35.3309288 37.0766106 48.9918824
35 1 33.5575028 38.8440208 48.995762
36 1 35.3483162 35.3306732 50.7428398
37 1 37.0814323 37.0526619 47.2461434
38 1 38.8317185 40.5685578 49.0358658
39 1 38.8330231 38.8026848 47.2657929
40 1 40.581234 37.0312576 47.26651
41 1 0.0044814 37.0264664 49.0466766
42 1 0.0084665 38.7868767 47.2797585
43 1 40.5732918 37.0373421 50.8058243
44 1 40.57621 35.2736664 49.0396194
45 1 40.5551415 35.2666168 52.5727654
46 1 3.5142093 38.7793961 47.2903595
47 1 1.7604469 38.78442 49.0508995
48 1 3.5131262 37.0180054 49.0555801
49 1 7.0280066 38.7814369 47.2884979
50 1 7.0286255 42.3127289 47.2800446
51 1 5.2756562 42.3139992 49.0473137
52 1 7.0317931 40.5505104 49.0463562
53 1 8.7857123 40.5513382 47.2779617
54 1 10.5468254 42.32444 47.2646065
55 1 8.7912846 42.3212586 49.0358353
56 1 10.5477944 40.5627365 49.0327034
57 1 12.3026915 40.5661431 47.2598381
58 1 14.06633 42.3406639 47.2469826
59 1 12.3076162 42.3371468 49.0205383
60 1 14.059269 40.5806771 49.0152702
61 1 17.586586 42.353096 47.2365608
62 1 19.3441734 42.3582192 49.0037422
63 1 15.8228007 42.3511925 49.0083313
64 1 17.5721131 40.5976258 49.0013199
65 1 19.3392697 40.5981789 47.2307434
66 1 21.1119251 42.3587799 47.2359505
67 1 21.1206856 44.1093254 49.0127068
68 1 21.0954399 40.6077423 48.9948808
69 1 22.8689118 40.6069832 47.2276077
70 1 24.6503124 42.3517037 47.2463875
71 1 22.8765774 42.3514176 49.0092735
72 1 24.6374989 40.6022415 48.9959374
73 1 26.4245129 40.6129494 47.226078
74 1 28.2102223 42.3440628 47.2573052
75 1 26.4229813 42.3391495 49.017601
76 1 28.2105389 40.6074715 48.9957962
77 1 29.9926834 40.598095 47.2422638
78 1 31.7804795 44.0739594 45.5286942
79 1 29.9880506 42.3414345 49.0222778
80 1 31.7767792 40.6004029 49.00597
81 1 31.7712136 42.3346863 47.2661705
82 1 35.3124848 42.3273926 47.2732277
83 1 33.543293 42.3399735 49.0294762
84 1 35.3159409 40.5857239 49.0205574
85 1 37.0747757 40.5698967 47.2677536
86 1 38.8313713 42.3216744 47.2803307
87 1 37.0740166 42.3339119 49.0395355
88 1 35.3145027 38.8210793 47.2487526
89 1 40.582901 38.7984429 49.0391006
90 1 0.012943 42.3153381 47.2864113
91 1 40.5849457 42.3211022 49.0459328
92 1 0.0121054 40.5539704 49.0470047
93 1 1.7626956 40.5469666 47.2868729
94 1 3.5174253 42.3108101 47.2875633
95 1 1.7658593 42.3161354 49.0510445
96 1 3.5175183 40.5479508 49.051506
97 1 5.2742777 44.0764046 47.2821694
98 1 7.0348506 45.8431396 47.2731514
99 1 5.2820645 45.8428842 49.04356
100 1 7.0356612 44.0812721 49.0392265
101 1 8.7898855 44.0828209 47.2687073
102 1 10.5544081 45.851925 47.2575874
103 1 8.7965698 45.8489418 49.0309792
104 1 10.5524931 44.0924988 49.0254288
105 1 12.3122788 44.0975151 47.2521477
106 1 12.3171959 1.7550857 43.7152519
107 1 14.078804 0.0116598 50.7815743
108 1 14.073226 44.1079331 49.0129929
109 1 15.8347063 44.109581 47.2418862
110 1 17.6087685 0.0203696 47.2406082
111 1 14.0821924 0.0125782 47.2462349
112 1 17.5938912 44.1135864 49.0073738
113 1 19.3593121 44.115303 47.238617
114 1 21.1343689 0.0179485 47.2474327
115 1 19.366621 0.0163015 49.0103798
116 1 22.8987924 1.7642493 50.7886353
117 1 22.8967838 0.0062163 49.023304
118 1 26.4183807 42.3181839 52.5560494
119 1 26.4390583 1.7469682 50.8074761
120 1 24.6567574 44.0953865 49.0258064
121 1 26.4367829 44.0930481 47.2705727
122 1 26.4716549 1.7500037 47.2975998
123 1 28.2032547 45.8349915 50.8094673
124 1 28.20648 44.084919 49.0366554
125 1 28.2299233 45.8375435 47.294178
126 1 31.7794705 45.832901 47.3032799
127 1 31.7511139 45.8370476 50.8161583
128 1 33.5291825 44.0915871 50.804966
129 1 31.763937 44.0852928 49.0430031
130 1 35.3157463 44.0722122 45.5290718
131 1 31.7715283 1.7392867 49.0729523
132 1 35.3086014 44.089016 49.0479202
133 1 37.0756645 44.0809937 47.2892113
134 1 38.8357659 45.841446 47.3010941
135 1 37.0730896 45.846199 49.0630913
136 1 38.8319321 44.088234 49.0531158
137 1 40.5862541 44.0814171 47.2919274
138 1 0.015377 45.8414498 47.294735
139 1 9.4281998e-04 0.0039296 50.8170891
140 1 0.0135644 44.0835609 49.0543594
141 1 1.7661264 44.0774879 47.2893829
142 1 3.521735 45.840683 47.2863197
143 1 1.7681966 45.8449554 49.0554733
144 1 8.7866297 44.0851059 1.4198263
145 1 5.2817097 1.7496817 47.2789726
146 1 7.0427723 3.5124409 47.2720719
147 1 5.2873883 3.5123508 49.0455208
148 1 7.0416327 1.7525432 49.037529
149 1 8.7979412 1.753857 47.2641754
150 1 10.5618525 3.5168691 47.259613
151 1 8.8030396 3.51473 49.0332375
152 1 10.5598812 1.7588997 49.0254021
153 1 12.3204842 1.7626689 47.2518234
154 1 14.0887594 3.5281127 47.2459374
155 1 12.3263769 3.5213542 49.0216827
156 1 14.0873022 1.7704423 49.0127831
157 1 15.8603134 1.785864 47.2398415
158 1 17.6363411 3.5759709 47.2308769
159 1 15.8562908 3.5326617 49.0106735
160 1 17.6229077 1.7929125 49.0023346
161 1 19.382021 1.786982 47.2439232
162 1 21.201189 5.3126788 45.4950218
163 1 22.9088078 3.541812 49.0289269
164 1 21.1471806 3.5809667 47.2692757
165 1 22.9100228 1.7816218 47.2678566
166 1 24.7144223 3.5248781 47.2932739
167 1 26.4189854 3.5029643 3.1879904
168 1 24.7133065 1.7625658 45.5312271
169 1 24.6752224 1.7619369 49.0380631
170 1 28.268961 3.5116077 47.3270569
171 1 26.4695263 3.512774 49.0586205
172 1 28.2281017 1.7417984 49.061039
173 1 30.0212727 1.7387489 47.3179855
174 1 30.0125389 3.5058694 49.0811424
175 1 31.747448 5.2711253 52.5943222
176 1 33.5116387 45.842949 52.5770188
177 1 33.5563393 1.7399495 47.3214417
178 1 35.3281136 3.5080273 47.3352928
179 1 33.5241699 1.7427945 50.8290901
180 1 35.3051224 1.7444493 49.0731277
181 1 37.0847015 1.7447304 47.3198738
182 1 38.8425522 3.5075219 47.3230705
183 1 37.0486031 3.5090602 52.5909996
184 1 38.845028 1.7488733 49.0833168
185 1 40.5906029 1.7466064 47.2934494
186 1 0.0195721 3.508734 47.3064156
187 1 40.5878449 3.498718 49.0855331
188 1 0.0066805 1.7497152 49.0714264
189 1 1.7679678 1.7481183 47.2962303
190 1 3.5277233 3.5105984 47.2889099
191 1 1.7717213 3.509496 49.0618134
192 1 3.5298987 1.7502152 49.0493507
193 1 5.2873774 5.2719016 47.2825699
194 1 7.0463362 7.0315471 47.2789307
195 1 5.2896071 7.0316262 49.0526352
196 1 7.0464726 5.2723856 49.0420761
197 1 8.804224 5.273231 47.2683334
198 1 10.5649548 7.0348187 47.2683907
199 1 8.8058539 7.0315995 49.0406036
200 1 10.5660372 5.2753844 49.0310364
201 1 12.3266001 5.2803774 47.2577553
202 1 14.0915394 7.0450101 47.2585487
203 1 12.3291006 7.036468 49.030899
204 1 14.0932245 5.282764 49.020752
205 1 15.8659086 3.5478032 45.4775353
206 1 17.6445065 7.0212884 47.245575
207 1 15.8604288 7.0430131 49.0202217
208 1 17.6131878 5.2908278 49.0281105
209 1 19.4083977 7.0544972 45.5229035
210 1 21.1694298 7.0382648 47.287323
211 1 19.3845997 7.041749 52.5613671
212 1 19.4056034 7.0151925 49.009285
213 1 22.9577122 5.3004055 47.288414
214 1 24.7470417 7.0775628 47.3316689
215 1 22.928051 7.0501375 49.0427818
216 1 24.7163086 5.2883797 49.0528221
217 1 26.5145397 5.2935166 47.3296318
218 1 28.3008309 7.0756755 47.3668442
219 1 26.49226 7.0616684 49.0825577
220 1 28.2542439 5.2815747 49.083622
221 1 33.5782776 5.2821345 47.354805
222 1 31.8289376 7.0660977 47.3724899
223 1 28.2368946 7.0495482 50.8377915
224 1 33.5469437 3.5064097 49.0878181
225 1 35.3187294 5.2753759 49.0981979
226 1 33.6099396 7.0718093 45.624569
227 1 33.5642395 7.0513453 49.1111717
228 1 37.0759773 3.5068777 49.0854034
229 1 37.0921097 5.2771049 47.3408127
230 1 38.850525 7.0459723 47.3383331
231 1 35.3435402 7.0550246 47.359436
232 1 38.8368874 5.2731934 49.0886955
233 1 40.5968781 5.2717161 47.3240013
234 1 0.0294979 7.0390615 47.3155708
235 1 40.5940552 7.0432935 49.0841026
236 1 0.0191072 5.2718454 49.0739365
237 1 1.7766394 5.2724915 47.301445
238 1 3.5345896 7.0339646 47.2949104
239 1 1.7784724 7.0348558 49.0684624
240 1 3.531066 5.2717557 49.0565491
241 1 5.2913237 8.7937174 47.2905655
242 1 7.0444183 10.554925 47.2912331
243 1 5.2909403 10.5549526 49.0616379
244 1 7.0464015 8.7908364 49.0510521
245 1 8.8028116 8.7923489 47.2801361
246 1 14.0599422 12.3655987 45.5558586
247 1 10.5560332 10.5583964 47.287056
248 1 10.564106 8.7925482 49.0417061
249 1 12.324049 8.8000088 47.2737045
250 1 15.8524532 10.5682621 49.0428772
251 1 14.0823259 10.5720606 47.2877159
252 1 14.0918627 8.7994795 49.0331497
253 1 15.8643676 8.8069039 47.2707253
254 1 17.6161728 10.6040001 47.2988587
255 1 17.6173306 10.5652943 50.799717
256 1 17.6319981 8.796463 49.0235786
257 1 19.3981209 8.8348847 47.2838097
258 1 21.2060661 8.880375 45.6013069
259 1 21.1773396 10.6372414 47.3336334
260 1 22.918232 8.8152704 50.8054848
261 1 22.9607296 8.8522044 47.3320046
262 1 24.7499695 10.6484976 47.377388
263 1 22.9381886 10.611888 49.0795631
264 1 24.7144661 8.8350411 49.079525
265 1 26.5327645 8.864647 47.3738098
266 1 30.0731697 8.8556262 47.3857231
267 1 26.4971295 10.6203318 49.1131706
268 1 29.999279 5.2744732 50.8384857
269 1 30.0349712 7.0575986 49.1073418
270 1 31.8374348 10.6277771 47.3892708
271 1 30.0440941 10.616745 49.1280136
272 1 31.8075142 8.8331871 49.1213303
273 1 33.5937004 8.8399248 47.376442
274 1 35.3542442 10.6070948 47.3707695
275 1 33.5740662 10.6037436 49.1250687
276 1 35.3300171 8.8224287 49.1144981
277 1 35.3678246 8.8425636 45.6188317
278 1 38.8619386 10.5884419 47.3460312
279 1 37.0925827 10.5889244 49.1110039
280 1 37.1035538 8.8243084 47.3555527
281 1 40.6077843 8.8122645 47.3303223
282 1 0.0408918 10.5731011 47.32164
283 1 40.6040154 10.5751267 49.0927773
284 1 0.0295986 8.8042784 49.0802612
285 1 1.7862419 8.8009691 47.3081474
286 1 3.5412429 10.5610342 47.3024445
287 1 1.7867352 10.5638428 49.0752869
288 1 3.5361703 8.7951155 49.0639801
289 1 5.2921791 12.322834 47.3011246
290 1 7.0384693 14.0895958 47.304905
291 1 5.2895928 14.0874214 49.071125
292 1 7.0419564 12.3175459 49.0624924
293 1 8.7932854 12.3215628 47.2974281
294 1 10.5390806 14.09585 47.3081093
295 1 8.789752 14.0850525 49.0667648
296 1 10.5520001 12.319274 49.0577164
297 1 12.3064051 12.3332377 47.3004036
298 1 14.0548162 14.1200743 47.3186646
299 1 12.3012619 14.0931196 49.0666351
300 1 14.0745878 12.3314228 49.0566444
301 1 17.6057091 12.3573265 49.0634575
302 1 17.5959111 14.1610479 47.3430138
303 1 15.8268624 14.1164074 49.0729942
304 1 19.3862019 12.4050884 47.3407097
305 1 19.4101257 10.6676541 45.5992661
306 1 21.1647453 14.1958084 47.3787003
307 1 19.3707485 14.1454039 49.0910721
308 1 21.1562615 12.3826161 49.0851631
309 1 22.960991 12.4294453 47.3790283
310 1 24.7365456 14.2049418 47.3976212
311 1 22.9316484 14.1696806 49.116745
312 1 24.7175503 12.3984976 49.1146011
313 1 26.5253372 12.4284983 47.3983727
314 1 28.2714977 12.3977871 49.131424
315 1 26.4920197 14.1753092 49.1322289
316 1 28.2716313 8.8404628 49.1114883
317 1 30.07094 12.4134989 47.3970032
318 1 31.8349209 14.1705523 47.3863983
319 1 30.041441 14.1640873 49.1345329
320 1 31.8117638 12.3854475 49.131958
321 1 33.5989151 12.3906813 47.3815613
322 1 35.3603401 14.1457148 47.3666039
323 1 33.5786515 14.1444082 49.1255035
324 1 35.3384285 12.3671551 49.1204605
325 1 37.1137466 12.3675327 47.3588371
326 1 38.8718072 14.1242495 47.3447228
327 1 37.1024628 14.1239939 49.1103478
328 1 38.854599 12.3492184 49.1033478
329 1 40.6191597 12.3479548 47.3347206
330 1 0.0500732 14.1065855 47.3243103
331 1 40.6140747 14.1075401 49.0944786
332 1 0.0386803 12.3348637 49.0860214
333 1 1.7951379 12.3327332 47.3139343
334 1 3.5451453 14.0945425 47.3098145
335 1 1.7927467 14.0954256 49.080616
336 1 3.540402 12.3239975 49.0717239
337 1 5.2905784 15.8607464 47.3100662
338 1 7.0333004 17.6314888 47.3132362
339 1 5.2869349 17.6272259 49.0779877
340 1 7.0354424 15.855237 49.0735779
341 1 8.781847 15.8623114 47.3120384
342 1 10.5261307 17.6384526 47.3192215
343 1 8.779994 17.6269322 49.0773735
344 1 10.5357943 15.8577796 49.0732269
345 1 12.2849712 15.8769446 47.3206558
346 1 14.0374413 17.6576157 47.3316689
347 1 12.2833691 17.6333847 49.0797234
348 1 14.0513334 15.8733302 49.0780869
349 1 15.8116865 15.909091 47.3392143
350 1 17.5784416 17.6887455 47.355732
351 1 15.8082524 17.6522522 49.0902901
352 1 17.5875836 15.9023466 49.0938683
353 1 19.3685055 15.948721 47.3722229
354 1 21.1382275 17.713234 47.3767624
355 1 19.3527279 17.6860962 49.1166611
356 1 21.1401939 15.9307804 49.1179695
357 1 22.93857 15.9657098 47.3909454
358 1 24.7103634 17.7142983 47.3784828
359 1 22.9071866 17.6975346 49.1238098
360 1 24.7046318 15.9437532 49.1303635
361 1 26.5077763 15.9633398 47.3932495
362 1 28.2812367 17.7043209 47.3693276
363 1 26.4788609 17.7002297 49.1233139
364 1 28.2644405 15.938365 49.1321182
365 1 30.0617886 15.9430286 47.3836556
366 1 31.8320313 17.6831684 47.3599167
367 1 30.0408363 17.6843167 49.1148224
368 1 31.8121968 15.9170256 49.1245575
369 1 33.5999413 15.9187574 47.3674545
370 1 35.3619728 17.6681843 47.3469772
371 1 33.5844078 17.6622639 49.1053238
372 1 35.345932 15.8960848 49.1119232
373 1 37.1198654 15.8986654 47.3495026
374 1 38.8763504 17.6518498 47.3339043
375 1 37.1095696 17.6485958 49.0980835
376 1 38.8636436 15.8797284 49.0990753
377 1 40.626976 15.8806516 47.3316994
378 1 0.0536175 17.6406689 47.3222313
379 1 40.619793 17.6378327 49.089592
380 1 0.0454403 15.8672782 49.0870514
381 1 1.7999789 15.867816 47.3172112
382 1 3.5453966 17.6330395 47.313961
383 1 1.7943416 17.6311264 49.0824814
384 1 3.5415735 15.8595 49.0779724
385 1 5.2883983 19.4021301 47.3137283
386 1 7.0321822 21.1719189 47.3132019
387 1 5.2834015 21.1679134 49.080574
388 1 7.0311909 19.3981781 49.0793648
389 1 8.7770052 19.4037018 47.3160248
390 1 12.2855082 22.9213258 50.8344841
391 1 8.7783022 21.1680451 49.0788574
392 1 10.5266648 19.399252 49.0794106
393 1 12.2758627 19.4127331 47.3224716
394 1 14.03339 21.1793785 47.3212776
395 1 15.8153897 17.6176415 52.5911141
396 1 14.0363598 19.4053574 49.0838318
397 1 15.7985192 19.4299603 47.3378983
398 1 17.560318 21.1875591 47.3269615
399 1 15.7966385 21.1690235 49.0858498
400 1 17.5714188 19.4236737 49.0994797
401 1 19.3447418 19.4476567 47.3492355
402 1 21.1126442 21.1892548 47.3235817
403 1 19.3285408 21.1790638 49.0780983
404 1 21.1114349 19.4466572 49.1141319
405 1 22.9077816 19.4539337 47.3563194
406 1 24.6805554 21.1845875 47.3233414
407 1 22.876608 21.1740246 49.0803261
408 1 24.6788998 19.4394665 49.104557
409 1 26.4863568 19.4429932 47.3428383
410 1 30.0577202 24.6346951 49.0003471
411 1 26.4623719 21.1505966 49.0500717
412 1 28.2616882 19.4332104 49.0928841
413 1 30.0588417 19.4391594 47.3363266
414 1 31.8316231 21.1909905 47.3012924
415 1 31.7852211 19.4022923 52.6081314
416 1 31.8204289 19.4232636 49.0866356
417 1 33.5978813 19.4311142 47.3347511
418 1 35.360672 21.1758862 47.3121491
419 1 33.5916634 21.1684933 49.0717964
420 1 35.3295937 19.3835964 52.6057358
421 1 37.1207542 19.4174805 47.3285713
422 1 38.87175 21.1756859 47.3165169
423 1 37.1121559 21.1628761 49.0753288
424 1 38.8676186 19.4041119 49.086483
425 1 40.6269226 19.4104061 47.3226624
426 1 0.0491613 21.1722832 47.3150711
427 1 40.6159783 21.1684837 49.079155
428 1 0.0452124 19.4016571 49.0836334
429 1 1.7992693 19.404541 47.3165093
430 1 1.8011515 21.1745148 45.5468064
431 1 1.8060968 19.4119473 43.7812996
432 1 3.5396588 19.3977833 49.0803566
433 1 5.2865849 22.9381124 47.3114586
434 1 7.0343595 24.7013912 47.3086929
435 1 3.5337258 22.9373856 49.0822029
436 1 7.0303507 22.9347 49.0797348
437 1 8.7798939 22.9394894 47.3085518
438 1 10.5328579 24.6993027 47.304699
439 1 8.7828608 24.6951523 49.0774956
440 1 10.5303936 22.9320546 49.0749168
441 1 12.2797508 22.937397 47.3085899
442 1 14.0388021 24.6925793 47.2982216
443 1 12.2895279 24.692173 49.0693054
444 1 14.0363216 22.9275246 49.0725975
445 1 15.7946472 22.9349118 47.311039
446 1 17.5543213 24.6851559 47.2904472
447 1 15.7953329 24.679905 49.0604095
448 1 17.556509 22.9188786 49.0754128
449 1 19.3238087 22.9352016 47.3010979
450 1 21.092907 24.6857472 47.2854729
451 1 19.3064423 24.6570378 49.0417976
452 1 21.0854397 22.9095174 49.0419312
453 1 22.8839074 22.9285718 47.2988014
454 1 24.6653691 24.6760159 47.2865944
455 1 22.8530254 24.6431828 49.0134201
456 1 24.6516533 22.8979206 49.0353012
457 1 28.2619324 22.8745194 49.006443
458 1 28.2456169 24.6802082 47.2976456
459 1 26.444767 24.6248703 49.0112076
460 1 30.0518017 21.1601181 49.0544319
461 1 30.0644665 21.2165909 45.5737305
462 1 31.8202133 24.6466236 47.2320595
463 1 30.0556927 22.9248772 47.2776985
464 1 31.8566648 24.6204415 50.7521439
465 1 33.5924073 22.9281178 47.2742157
466 1 35.356514 24.7097397 47.2866135
467 1 33.608593 24.6576176 48.9950104
468 1 35.3517075 22.9056932 49.0499916
469 1 37.1128998 22.9382916 47.3036499
470 1 38.8572808 24.6971474 47.2937584
471 1 37.0863838 24.6930485 49.0471306
472 1 38.8571396 22.9311008 49.066536
473 1 40.6174393 22.9359494 47.3075371
474 1 0.0397912 24.6973362 47.303627
475 1 40.6098824 24.6888676 49.0619278
476 1 0.039902 22.9314938 49.0755653
477 1 1.7935227 22.9359666 47.3110924
478 1 3.5365737 24.6991024 47.3055954
479 1 1.7823087 24.6988602 49.0754776
480 1 1.7909389 21.1674328 49.0808182
481 1 5.2872601 26.4609871 47.3008804
482 1 7.0367003 28.2168121 47.3034859
483 1 5.2762466 28.2168446 49.0715065
484 1 5.2789307 24.6996918 49.0789146
485 1 8.7909651 28.2176972 49.0724564
486 1 7.0292845 24.6940041 50.8448944
487 1 10.5428229 28.2137642 47.2967072
488 1 10.5444174 26.455801 49.0710449
489 1 12.2890415 26.4540825 47.2927017
490 1 14.0459185 28.2110157 47.2793198
491 1 12.3040266 28.2126255 49.0605774
492 1 14.0493212 26.4470635 49.0584564
493 1 15.8003664 24.6944771 45.5310631
494 1 17.5488701 28.2098198 47.2602081
495 1 15.7961216 28.2048569 49.0340691
496 1 17.5412178 26.4314575 49.0288124
497 1 19.3174629 26.4425144 47.2767029
498 1 21.0926533 28.215395 47.2848015
499 1 19.284174 28.2015286 48.993992
500 1 21.067934 26.4129734 49.0156746
501 1 22.8723106 26.4517555 47.2932434
502 1 24.6730728 28.230362 47.3438149
503 1 22.8418922 28.1906662 49.0323448
504 1 24.6453457 26.3793202 48.9955826
505 1 26.4577503 26.4606285 47.3220558
506 1 28.2357025 28.2302113 47.3367539
507 1 26.4697056 28.203249 49.0951119
508 1 28.2521057 26.3932953 49.0282631
509 1 30.0255184 26.4391918 47.2815781
510 1 31.8151779 28.2003765 47.2644043
511 1 30.0507832 28.1523247 49.0225182
512 1 31.8289814 26.3835983 48.973816
513 1 33.6508026 28.1600456 48.9584274
514 1 35.3608055 28.1996803 47.245945
515 1 33.5988083 26.4370613 47.2526398
516 1 35.3734284 28.1518288 50.7245102
517 1 38.851265 26.4634018 45.5203781
518 1 38.8462906 28.2125664 47.263813
519 1 37.0977058 28.1871338 49.0070114
520 1 38.8603936 26.4435501 49.0405655
521 1 40.6083374 26.4567623 47.2890663
522 1 40.5892639 28.216259 49.0467873
523 1 42.2805901 29.9197064 6.6907225
524 1 0.0270206 26.4569798 49.0675736
525 1 1.7787597 26.4613381 47.3005905
526 1 3.5268502 28.2226296 47.2991371
527 1 1.7685561 28.2187462 49.0665398
528 1 3.5267308 26.4599171 49.0605774
529 1 5.2793088 29.9769212 47.300827
530 1 7.035367 31.7341595 47.2992554
531 1 5.2742806 31.7355938 49.0641937
532 1 7.0342431 29.9753934 49.0679359
533 1 7.0283141 26.4580021 49.080246
534 1 10.5489197 31.7346783 47.2910957
535 1 8.7951384 31.7342968 49.0622253
536 1 10.5527859 29.9747372 49.0629654
537 1 12.2988997 29.9731922 47.2850037
538 1 14.0475025 31.7400303 47.2667923
539 1 12.3105536 31.7374897 49.0526657
540 1 14.0563049 29.972826 49.0456467
541 1 15.7963457 29.9765358 47.2597962
542 1 17.5572415 31.7509251 47.2527924
543 1 15.7903862 31.7469216 49.0133629
544 1 17.5362244 29.9780656 49.0016098
545 1 19.3143749 29.9864426 47.257637
546 1 21.0949078 31.7604771 47.2640572
547 1 19.3038616 31.7630673 49.0033989
548 1 21.0508575 29.9927902 48.9927026
549 1 22.8924904 29.9862996 47.320324
550 1 24.673296 31.7497444 47.3396225
551 1 22.8438016 31.7758675 49.0128059
552 1 24.6747017 29.9692956 49.1300888
553 1 26.4573765 29.9913502 47.3584671
554 1 28.2280445 31.7519875 47.3301201
555 1 26.463953 31.7568531 49.1057587
556 1 30.0805836 33.5897331 50.7619972
557 1 30.0168724 29.9894276 47.3270607
558 1 31.7964039 31.7687607 47.2660751
559 1 30.0430088 31.7919712 49.0428581
560 1 30.2682266 29.9437294 50.6007424
561 1 31.9120484 29.9605676 48.9241486
562 1 35.35746 31.7547436 47.2071076
563 1 33.6477967 31.7634373 48.9316902
564 1 35.3738861 29.976162 48.9688302
565 1 38.8450546 31.7518921 47.2422829
566 1 38.8302384 33.5203285 49.0200157
567 1 37.1128159 31.7556553 48.9745294
568 1 38.8375626 29.9732228 49.0149193
569 1 40.5899315 29.9837514 47.270565
570 1 0.0067213 31.7443409 47.2832794
571 1 40.5585938 29.975769 50.8108979
572 1 0.00527 29.980463 49.0555687
573 1 1.7662316 29.9825592 47.2948494
574 1 3.5178845 31.7373219 47.2970276
575 1 1.7562044 31.7386933 49.0588913
576 1 3.517998 29.975956 49.0675507
577 1 5.274828 33.4945221 47.298069
578 1 7.0315118 35.2555046 47.2953339
579 1 5.2724199 35.2561798 49.058918
580 1 7.0345783 33.4952774 49.0614853
581 1 8.7918368 33.4958077 47.2947922
582 1 10.5464401 35.2612534 47.284317
583 1 10.5552645 35.2628517 50.8139801
584 1 10.553855 33.498333 49.0546837
585 1 12.3011913 33.5015297 47.2780762
586 1 14.0526543 35.2745018 47.2610397
587 1 15.801919 35.2910843 49.0117378
588 1 14.0567913 33.5112915 49.0340271
589 1 15.8005533 33.514431 47.2499695
590 1 17.5629521 35.2918282 47.2396355
591 1 17.544487 35.3126068 50.7613678
592 1 17.5400009 33.5306969 48.9916
593 1 19.3232746 33.5251885 47.2485008
594 1 21.0889149 35.3004341 47.2394028
595 1 19.3073006 35.3156853 48.9853478
596 1 21.0664425 33.54208 48.9998742
597 1 22.874611 33.5319214 47.2721024
598 1 24.6339607 33.5703774 49.030777
599 1 22.8276882 35.3315582 48.9796182
600 1 26.4628525 33.6380348 50.6900368
601 1 26.442173 33.5243645 47.3174095
602 1 28.2236538 35.3088074 47.2668228
603 1 26.4413109 35.3666954 48.971943
604 1 28.259018 33.5565872 49.0313683
605 1 30.0066433 33.5342903 47.2705727
606 1 31.7828732 35.3106346 47.2361717
607 1 30.001976 37.0820389 47.2349053
608 1 31.8206158 33.5632553 48.9830056
609 1 33.5666085 33.5409661 47.2314606
610 1 35.329483 35.3059044 47.2232666
611 1 33.5839272 35.3316689 48.9622308
612 1 35.3729859 33.54702 48.9499054
613 1 37.1027336 33.5299721 47.2177696
614 1 38.8370209 35.2821159 47.2490082
615 1 37.092083 35.301815 48.9988136
616 1 38.8228874 35.2849426 50.7923889
617 1 0.0036447 35.2625389 47.2787171
618 1 0.00325 37.0196877 45.5110893
619 1 40.5708962 31.7425709 49.0406151
620 1 42.3232613 33.5013199 49.0522575
621 1 1.7554603 33.4985924 47.2872162
622 1 3.5131028 35.255043 47.2931023
623 1 1.754046 35.2583923 49.054287
624 1 3.5119739 33.4968949 49.0588837
625 1 5.2713447 37.0185623 50.8179474
626 1 7.0323071 38.7860184 50.8121605
627 1 5.2697969 38.78302 52.575058
628 1 7.0305657 37.0193176 52.5765
629 1 8.7935448 37.0243988 50.8130074
630 1 10.5499287 38.7971726 50.802742
631 1 8.7907934 38.7892189 52.5701485
632 1 10.5525618 37.0277176 52.5713578
633 1 12.3073502 37.0379257 50.8017845
634 1 14.0549898 38.8175354 50.7863617
635 1 12.3045502 38.8049927 52.5625839
636 1 14.0608912 37.0478477 52.5624886
637 1 15.8000975 38.8329354 52.5480843
638 1 17.5551625 38.843258 50.7664528
639 1 17.5414944 37.0863113 52.5364685
640 1 17.5602055 35.3191643 1.4237696
641 1 19.2991009 37.0970116 50.7496147
642 1 21.07267 38.8643304 50.7517891
643 1 19.2978134 38.8617172 52.5319634
644 1 21.0361729 37.1316528 52.5071144
645 1 22.823122 37.136116 50.7203026
646 1 24.6220951 38.8529016 50.7477188
647 1 22.847294 38.8514252 52.5244942
648 1 24.5940285 37.0932198 52.5134621
649 1 26.430769 37.2050629 50.6433792
650 1 28.226799 38.8784294 50.7308274
651 1 26.4133015 38.8289452 52.5093804
652 1 28.2616787 37.151947 52.4520417
653 1 30.0413704 37.1506767 50.699421
654 1 31.799284 38.8684998 50.7452622
655 1 30.0273724 38.8719102 52.5022202
656 1 31.8406868 37.1406555 52.48806
657 1 33.5820542 37.1051025 50.736248
658 1 35.3261452 38.8414268 50.7688866
659 1 33.5745201 38.8648224 52.5239563
660 1 35.3336258 37.0948906 52.5288582
661 1 37.0833168 37.0692177 50.7760582
662 1 38.8291245 38.8142472 50.7953644
663 1 37.0743141 38.8330879 52.5507202
664 1 38.8132668 38.8173142 1.4186494
665 1 37.0801086 38.8202248 49.0174828
666 1 0.0049995 38.7922097 50.8113938
667 1 40.5704384 38.8029404 52.5695954
668 1 1.737721 38.7823982 3.1857319
669 1 1.7533549 37.0205727 50.8171005
670 1 3.5139945 38.7831002 50.8156395
671 1 1.7529813 38.7860527 52.5763932
672 1 3.5071833 37.0170479 52.5792465
673 1 5.2738047 40.5497895 50.8117409
674 1 7.0343924 42.3175278 50.805336
675 1 5.2735462 42.3157539 52.5710831
676 1 7.0308456 40.5514527 52.5700264
677 1 8.7916336 40.5567971 50.8036652
678 1 10.549511 42.3299637 50.7940216
679 1 8.7902346 42.3220329 52.5644303
680 1 10.5473948 40.5632096 52.5629235
681 1 12.3037005 40.5735512 50.7907181
682 1 14.0622644 42.3473549 50.7820206
683 1 12.3027535 42.3382912 52.5558357
684 1 14.0534296 40.5844765 52.5529938
685 1 17.5779896 42.3567963 50.7751503
686 1 19.3545647 44.1081314 50.7797852
687 1 15.814025 42.3545113 52.5484238
688 1 19.3351116 42.3365364 3.188025
689 1 19.3252678 40.6063347 50.7676926
690 1 21.1078301 42.3493042 50.7783165
691 1 17.5578976 40.6042862 52.5436669
692 1 21.0907993 40.5947571 52.5433007
693 1 22.8639184 40.5977555 50.7681008
694 1 24.6470738 42.3332825 50.7856484
695 1 22.8776094 42.3276329 52.5569611
696 1 24.6411858 40.5698166 52.5495796
697 1 26.4162617 40.5845413 50.7663346
698 1 28.197731 42.3330727 50.7832527
699 1 26.4250527 45.8352051 52.566639
700 1 28.2008267 40.5855789 52.5266724
701 1 29.9972154 40.6044312 50.7639275
702 1 31.7633839 42.3443756 50.786953
703 1 29.9742928 42.3340607 52.5491905
704 1 31.7806473 40.609169 52.5319748
705 1 33.5532189 40.6024513 50.7745857
706 1 35.3098641 42.3461647 50.7955055
707 1 33.5357209 42.3517952 52.5529518
708 1 35.3169937 40.6022072 52.5471955
709 1 37.0747948 40.5840531 50.7911415
710 1 38.8268509 42.3317413 50.8057442
711 1 38.8231163 40.5783539 52.5643997
712 1 40.576622 42.3287659 52.5729141
713 1 40.5810089 40.5647888 50.8065987
714 1 0.0126398 42.3196449 50.8122673
715 1 1.7598808 42.3199387 52.5740319
716 1 0.0036353 40.5581589 52.5738755
717 1 1.7623055 40.5514603 50.8132859
718 1 5.2796574 44.0799789 50.8080254
719 1 3.5185159 42.3168106 50.8120957
720 1 3.5132542 40.5501175 52.5742798
721 1 5.2703495 44.0800133 1.4241461
722 1 7.0389023 45.8459282 50.8026696
723 1 5.2795105 45.8439942 52.5713883
724 1 10.5476103 45.8526574 1.4182336
725 1 7.0341716 44.0822716 52.5673485
726 1 10.5554915 45.8546258 50.7919312
727 1 8.7940617 45.8493118 52.5634766
728 1 10.5490275 44.0929909 52.5590897
729 1 8.7939034 44.0870247 50.7978745
730 1 15.846491 0.0210455 49.0078468
731 1 12.3128328 0.0043559 52.5554238
732 1 12.310648 44.1010475 50.7865296
733 1 15.8098269 40.593441 50.7765312
734 1 15.8306685 44.113205 50.7777939
735 1 14.0657549 44.1068573 52.5515023
736 1 17.5890446 44.1087532 52.5486679
737 1 17.6048527 0.0181015 50.7763672
738 1 21.1371098 1.7716875 49.0141792
739 1 19.3953495 3.5715962 49.0027046
740 1 21.1283226 0.0058252 50.7848931
741 1 22.8859348 44.0941887 50.7888184
742 1 22.8911458 45.8481446 52.5574608
743 1 21.1248837 45.8476486 1.4152349
744 1 24.6524029 44.0796013 52.5610466
745 1 26.4204827 44.0663376 1.4226806
746 1 29.9651586 45.8316574 52.5745087
747 1 28.1985874 1.739942 52.5742417
748 1 28.1920052 44.0720367 52.5659027
749 1 29.975378 44.0824394 50.8009949
750 1 35.3161812 45.8371048 47.304245
751 1 29.9829732 1.7386221 50.8228874
752 1 31.7434273 44.0866776 52.5648308
753 1 35.2932701 45.8449746 50.8189049
754 1 35.2780876 1.7484392 52.5870896
755 1 35.2941017 44.1001205 52.5678025
756 1 37.0671043 42.3472672 52.5626869
757 1 37.0702629 44.0987053 50.8103714
758 1 38.8363114 0.0066778 50.819973
759 1 37.055027 45.8545838 52.5767441
760 1 38.8223038 44.0994453 52.5710831
761 1 40.5821038 44.0782089 50.8137551
762 1 3.5100792 42.3156471 1.4252767
763 1 40.5745316 0.0105788 52.5660401
764 1 1.7629751 44.0864639 50.8138771
765 1 3.5219603 44.0794525 49.0496445
766 1 3.5271716 45.842926 50.8120613
767 1 5.2690168 3.5120743 3.1897636
768 1 1.7616534 45.8492204 52.5740814
769 1 5.2844753 1.7514972 50.8087006
770 1 7.0440235 3.5131936 50.8055916
771 1 5.2834635 3.5127273 52.5750962
772 1 7.0389705 1.7527358 52.5687027
773 1 8.7998009 1.7554614 50.7982674
774 1 10.5637789 3.5170217 50.7953072
775 1 8.8009606 3.5142486 52.5666771
776 1 10.557334 1.7582017 52.5606766
777 1 12.3216782 1.7630942 50.7878456
778 1 14.0897408 3.5227375 50.7867813
779 1 12.3238888 3.5177965 52.5596504
780 1 14.0820723 1.7636576 52.5543099
781 1 15.8508606 1.7720068 50.7796593
782 1 17.6205845 3.5298996 50.7844544
783 1 15.850998 3.5206874 52.5561409
784 1 15.8376951 0.0101638 52.5505104
785 1 19.3788662 3.5210445 52.5584526