ITEM: TIMESTEP
0
ITEM: NUMBER OF ATOMS
47
ITEM: BOX BOUNDS xy xz yz pp pp pp
                     0.00000000000000e+00 1.06200000000000e+01 0.00000000000000e+00
0.00000000000000e+00	1.06200000000000e+01	0.00000000000000e+00
0.00000000000000e+00	1.06200000000000e+01	0.00000000000000e+00
ITEM: ATOMS id type x y z DisplacementX DisplacementY DisplacementZ
1 1 3.520e+00 -8.685e-04 -3.522e+00 -7.630e-03 1.226e-04 9.990e-03
2 1 1.762e+00 1.772e+00 3.548e+00 -1.827e-02 -2.623e-03 1.544e-02
3 1 -3.551e+00 -1.771e+00 -1.761e+00 -1.393e-02 3.801e-03 1.856e-02
4 1 -3.548e+00 1.770e+00 -1.761e+00 -1.383e-02 -1.218e-03 1.838e-02
5 1 1.761e+00 -1.771e+00 3.549e+00 -1.844e-02 4.331e-03 1.397e-02
6 1 3.530e+00 3.538e+00 7.486e-03 -2.013e-02 6.186e-04 1.701e-02
7 1 -8.317e-03 -3.537e+00 -3.527e+00 -1.733e-02 -5.690e-04 1.748e-02
8 1 -6.916e-03 3.537e+00 -3.529e+00 -1.828e-02 -8.745e-04 1.764e-02
9 1 3.529e+00 -3.536e+00 6.464e-03 -1.803e-02 9.290e-05 1.875e-02
10 1 -3.549e+00 -1.770e+00 1.779e+00 -1.245e-02 1.934e-03 1.412e-02
11 1 -3.549e+00 1.771e+00 1.778e+00 -1.509e-02 -2.250e-03 1.452e-02
12 1 -1.780e+00 -1.772e+00 3.549e+00 -1.673e-02 1.393e-03 1.506e-02
13 1 -1.778e+00 1.770e+00 3.550e+00 -1.809e-02 -2.525e-03 1.403e-02
14 1 -1.779e+00 -3.538e+00 1.780e+00 -1.711e-02 3.228e-03 1.472e-02
15 1 -1.778e+00 3.538e+00 1.778e+00 -1.733e-02 -2.788e-03 1.674e-02
16 1 1.762e+00 -1.760e+00 -3.523e+00 -2.073e-02 -8.813e-03 9.194e-03
17 1 1.761e+00 1.761e+00 -3.521e+00 -1.792e-02 8.527e-03 8.442e-03
18 1 3.523e+00 -1.761e+00 -1.761e+00 -9.202e-03 -6.403e-03 1.970e-02
19 1 3.520e+00 1.762e+00 -1.762e+00 -9.066e-03 6.285e-03 1.757e-02
20 1 1.761e+00 3.537e+00 1.774e+00 -1.902e-02 2.563e-03 1.657e-02
21 1 -1.777e+00 -3.537e+00 -1.762e+00 -1.907e-02 -1.175e-03 1.908e-02
22 1 1.759e+00 -3.537e+00 1.775e+00 -1.679e-02 4.006e-04 1.700e-02
23 1 -1.775e+00 3.536e+00 -1.759e+00 -1.765e-02 6.735e-04 1.788e-02
24 1 3.530e+00 1.769e+00 1.776e+00 -1.691e-02 -3.661e-04 1.729e-02
25 1 -1.778e+00 -1.767e+00 -3.530e+00 -1.818e-02 1.412e-04 1.778e-02
26 1 -1.778e+00 1.768e+00 -3.530e+00 -1.805e-02 2.961e-04 1.774e-02
27 1 3.530e+00 -1.770e+00 1.778e+00 -1.646e-02 -2.398e-04 1.713e-02
28 1 3.521e+00 -4.496e-04 7.142e-04 3.025e-03 -4.301e-04 2.394e-02
29 1 3.013e-04 -9.593e-04 -3.522e+00 -2.785e-02 -1.145e-03 -5.186e-03
30 1 1.760e+00 -3.551e+00 -1.761e+00 -1.546e-02 1.126e-02 1.794e-02
31 1 1.760e+00 3.549e+00 -1.762e+00 -1.832e-02 -1.170e-02 1.769e-02
32 1 -6.978e-03 3.537e+00 8.001e-03 -1.798e-02 1.304e-02 1.872e-02
33 1 -6.195e-03 -3.539e+00 8.956e-03 -1.851e-02 -1.226e-02 2.000e-02
34 1 -1.209e-02 -9.840e-04 3.552e+00 -1.598e-02 1.957e-03 2.669e-02
35 1 -3.550e+00 8.328e-04 1.162e-02 -2.408e-02 -2.180e-04 1.360e-02
36 1 5.080e-04 -9.528e-04 5.421e-04 1.735e+00 -9.565e-05 -1.736e+00
37 1 1.763e+00 1.760e+00 -1.363e-03 -2.681e-02 4.059e-04 2.462e-02
38 1 1.994e-03 -1.762e+00 -1.759e+00 -2.602e-02 5.193e-04 2.709e-02
39 1 9.489e-04 1.760e+00 -1.760e+00 -2.587e-02 1.881e-03 2.534e-02
40 1 1.760e+00 -1.760e+00 -1.572e-03 -2.619e-02 -1.078e-03 2.578e-02
41 1 1.761e+00 -7.278e-04 1.788e+00 -2.610e-02 1.917e-03 -9.962e-04
42 1 -1.790e+00 8.985e-05 -1.761e+00 1.723e-03 -7.033e-04 2.613e-02
43 1 -6.746e-03 1.771e+00 1.779e+00 -2.028e-02 -9.214e-03 9.657e-03
44 1 -1.775e+00 -1.768e+00 8.427e-03 -8.760e-03 8.899e-03 1.804e-02
45 1 -7.695e-03 -1.767e+00 1.775e+00 -1.888e-02 7.948e-03 9.444e-03
46 1 -1.777e+00 1.768e+00 9.842e-03 -1.096e-02 -6.423e-03 1.744e-02
47 1 -1.775e+00 6.253e-04 1.776e+00 -1.138e-02 9.100e-04 1.103e-02
ITEM: TIMESTEP
0
ITEM: NUMBER OF ATOMS
47
ITEM: BOX BOUNDS xy xz yz pp pp pp
                     0.00000000000000e+00 1.06200000000000e+01 0.00000000000000e+00
0.00000000000000e+00	1.06200000000000e+01	0.00000000000000e+00
0.00000000000000e+00	1.06200000000000e+01	0.00000000000000e+00
ITEM: ATOMS id type x y z DisplacementX DisplacementY DisplacementZ
48 1 -8.315e-04 3.521e+00 -3.520e+00 -2.360e-05 -8.900e-03 1.047e-02
49 1 -1.772e+00 1.760e+00 3.550e+00 4.674e-03 -1.706e-02 1.451e-02
50 1 1.772e+00 -3.550e+00 -1.760e+00 -5.517e-03 -1.407e-02 1.684e-02
51 1 -1.773e+00 -3.549e+00 -1.758e+00 3.466e-03 -1.460e-02 1.817e-02
52 1 1.770e+00 1.760e+00 3.549e+00 -3.847e-03 -1.667e-02 1.422e-02
53 1 -3.537e+00 3.528e+00 6.435e-03 1.357e-03 -1.863e-02 1.888e-02
54 1 3.537e+00 -7.822e-03 -3.529e+00 2.199e-04 -1.761e-02 1.890e-02
55 1 -3.536e+00 -8.514e-03 -3.530e+00 2.238e-03 -1.816e-02 2.004e-02
56 1 3.538e+00 3.528e+00 8.735e-03 -3.932e-04 -1.676e-02 1.734e-02
57 1 1.770e+00 -3.550e+00 1.777e+00 -2.074e-03 -1.360e-02 1.503e-02
58 1 -1.769e+00 -3.549e+00 1.779e+00 2.315e-03 -1.481e-02 1.808e-02
59 1 1.772e+00 -1.777e+00 3.549e+00 -1.870e-03 -1.549e-02 1.349e-02
60 1 -1.768e+00 -1.780e+00 3.549e+00 1.300e-03 -1.498e-02 1.536e-02
61 1 3.540e+00 -1.780e+00 1.779e+00 -1.947e-03 -1.451e-02 1.526e-02
62 1 -3.539e+00 -1.778e+00 1.778e+00 1.083e-03 -1.575e-02 1.515e-02
63 1 1.762e+00 1.760e+00 -3.522e+00 8.176e-03 -1.846e-02 1.068e-02
64 1 -1.761e+00 1.758e+00 -3.522e+00 -7.838e-03 -1.869e-02 8.623e-03
65 1 1.761e+00 3.522e+00 -1.760e+00 7.950e-03 -1.198e-02 1.936e-02
66 1 -1.761e+00 3.519e+00 -1.761e+00 -9.389e-03 -7.875e-03 1.972e-02
67 1 -3.536e+00 1.761e+00 1.777e+00 1.369e-03 -1.770e-02 1.767e-02
68 1 3.536e+00 -1.778e+00 -1.760e+00 -5.832e-04 -1.918e-02 1.836e-02
69 1 3.536e+00 1.761e+00 1.777e+00 6.061e-05 -1.742e-02 1.710e-02
70 1 -3.536e+00 -1.774e+00 -1.761e+00 -4.337e-04 -1.797e-02 1.815e-02
71 1 -1.769e+00 3.529e+00 1.775e+00 -6.818e-04 -1.587e-02 1.754e-02
72 1 1.767e+00 -1.777e+00 -3.527e+00 8.593e-04 -1.731e-02 1.793e-02
73 1 -1.767e+00 -1.777e+00 -3.528e+00 -1.498e-03 -1.766e-02 1.601e-02
74 1 1.769e+00 3.529e+00 1.778e+00 -8.661e-04 -1.844e-02 1.432e-02
75 1 3.521e-04 3.522e+00 -1.093e-03 6.618e-04 2.625e-03 2.602e-02
76 1 4.752e-04 -3.263e-04 -3.523e+00 6.000e-04 -2.264e-02 -2.595e-03
77 1 3.550e+00 1.761e+00 -1.760e+00 -1.285e-02 -2.009e-02 1.884e-02
78 1 -3.549e+00 1.760e+00 -1.762e+00 1.062e-02 -1.864e-02 1.802e-02
79 1 -3.537e+00 -7.356e-03 5.336e-03 -1.103e-02 -1.909e-02 1.909e-02
80 1 3.540e+00 -6.733e-03 9.422e-03 1.280e-02 -1.892e-02 1.837e-02
81 1 -4.585e-04 -1.051e-02 3.549e+00 -1.088e-03 -1.546e-02 2.602e-02
82 1 1.357e-03 -3.550e+00 1.128e-02 -1.675e-04 -2.637e-02 1.435e-02
83 1 -2.979e-04 -1.531e-03 -7.950e-07 -1.263e-03 1.734e+00 -1.735e+00
84 1 -1.761e+00 1.761e+00 -6.017e-04 -7.898e-04 -2.541e-02 2.480e-02
85 1 1.760e+00 8.495e-04 -1.760e+00 -3.470e-04 -2.715e-02 2.520e-02
86 1 -1.762e+00 -2.903e-04 -1.760e+00 -2.243e-04 -2.538e-02 2.698e-02
87 1 1.762e+00 1.761e+00 -8.595e-06 5.523e-05 -2.573e-02 2.632e-02
88 1 2.790e-04 1.760e+00 1.787e+00 7.857e-04 -2.594e-02 1.120e-04
89 1 8.424e-04 -1.788e+00 -1.762e+00 7.689e-04 1.310e-03 2.492e-02
90 1 -1.769e+00 -8.428e-03 1.775e+00 8.448e-03 -1.942e-02 9.589e-03
91 1 1.767e+00 -1.776e+00 8.079e-03 -7.540e-03 -9.976e-03 1.843e-02
92 1 1.768e+00 -8.268e-03 1.778e+00 -8.428e-03 -1.640e-02 8.397e-03
93 1 -1.769e+00 -1.776e+00 6.027e-03 9.145e-03 -1.139e-02 1.881e-02
94 1 -6.903e-04 -1.777e+00 1.775e+00 3.413e-04 -1.154e-02 1.111e-02
ITEM: TIMESTEP
0
ITEM: NUMBER OF ATOMS
47
ITEM: BOX BOUNDS xy xz yz pp pp pp
                     0.00000000000000e+00 1.06200000000000e+01 0.00000000000000e+00
0.00000000000000e+00	1.06200000000000e+01	0.00000000000000e+00
0.00000000000000e+00	1.06200000000000e+01	0.00000000000000e+00
ITEM: ATOMS id type x y z DisplacementX DisplacementY DisplacementZ
95 1 -3.522e+00 -1.766e-03 -3.522e+00 1.062e-02 -5.823e-04 9.784e-03
96 1 -1.761e+00 1.772e+00 3.549e+00 1.727e-02 -3.797e-03 1.324e-02
97 1 3.551e+00 -1.772e+00 -1.761e+00 1.388e-02 3.414e-03 1.628e-02
98 1 3.548e+00 1.771e+00 -1.760e+00 1.498e-02 -4.149e-03 1.920e-02
99 1 -1.761e+00 -1.772e+00 3.551e+00 1.842e-02 2.564e-03 1.580e-02
100 1 -3.529e+00 3.538e+00 6.807e-03 1.732e-02 -2.285e-03 1.820e-02
101 1 7.316e-03 -3.538e+00 -3.529e+00 1.852e-02 -9.108e-04 1.864e-02
102 1 8.102e-03 3.536e+00 -3.528e+00 1.688e-02 1.765e-03 1.813e-02
103 1 -3.528e+00 -3.538e+00 5.158e-03 1.761e-02 2.940e-04 1.766e-02
104 1 3.548e+00 -1.769e+00 1.779e+00 1.287e-02 1.156e-03 1.596e-02
105 1 3.550e+00 1.770e+00 1.779e+00 1.478e-02 -1.051e-03 1.523e-02
106 1 1.778e+00 -1.769e+00 3.548e+00 1.596e-02 -6.735e-04 1.277e-02
107 1 1.780e+00 1.769e+00 3.549e+00 1.557e-02 -1.578e-03 1.294e-02
108 1 1.778e+00 -3.538e+00 1.779e+00 1.634e-02 -1.540e-04 1.559e-02
109 1 1.779e+00 3.539e+00 1.777e+00 1.548e-02 -1.384e-03 1.481e-02
110 1 -1.759e+00 -1.762e+00 -3.521e+00 1.801e-02 -9.539e-03 9.900e-03
111 1 -1.760e+00 1.759e+00 -3.523e+00 1.799e-02 7.428e-03 9.914e-03
112 1 -3.522e+00 -1.760e+00 -1.758e+00 1.026e-02 -8.022e-03 1.798e-02
113 1 -3.522e+00 1.760e+00 -1.762e+00 1.040e-02 7.603e-03 1.992e-02
114 1 -1.762e+00 3.537e+00 1.778e+00 1.769e-02 -4.722e-04 1.887e-02
115 1 1.776e+00 -3.536e+00 -1.759e+00 1.686e-02 3.401e-04 1.800e-02
116 1 -1.762e+00 -3.538e+00 1.774e+00 1.867e-02 5.721e-04 2.015e-02
117 1 1.778e+00 3.537e+00 -1.761e+00 1.872e-02 -5.623e-05 1.706e-02
118 1 -3.527e+00 1.768e+00 1.776e+00 1.901e-02 4.129e-04 1.834e-02
119 1 1.775e+00 -1.768e+00 -3.529e+00 1.650e-02 1.215e-03 1.882e-02
120 1 1.779e+00 1.770e+00 -3.528e+00 1.849e-02 -6.858e-04 1.856e-02
121 1 -3.529e+00 -1.768e+00 1.776e+00 1.833e-02 9.693e-04 1.602e-02
122 1 -3.521e+00 -2.612e-04 -5.671e-04 -2.134e-03 -1.019e-03 2.607e-02
123 1 9.452e-04 -6.248e-04 -3.522e+00 2.578e-02 -2.475e-03 -2.788e-03
124 1 -1.760e+00 -3.548e+00 -1.762e+00 1.799e-02 1.341e-02 1.851e-02
125 1 -1.761e+00 3.549e+00 -1.761e+00 1.737e-02 -1.192e-02 1.898e-02
126 1 7.178e-03 3.539e+00 7.686e-03 1.826e-02 1.237e-02 1.758e-02
127 1 8.095e-03 -3.538e+00 6.025e-03 1.726e-02 -1.019e-02 1.851e-02
128 1 1.229e-02 1.683e-04 3.549e+00 1.471e-02 -7.088e-04 2.594e-02
129 1 3.550e+00 -1.488e-03 1.135e-02 2.543e-02 -5.724e-05 1.388e-02
130 1 -3.688e-04 1.935e-03 7.784e-04 -1.735e+00 -3.078e-04 -1.735e+00
131 1 -1.761e+00 1.759e+00 2.464e-04 2.502e-02 9.235e-04 2.569e-02
132 1 5.303e-04 -1.760e+00 -1.761e+00 2.698e-02 2.475e-03 2.709e-02
133 1 2.937e-05 1.760e+00 -1.762e+00 2.649e-02 -2.439e-03 2.460e-02
134 1 -1.759e+00 -1.761e+00 -1.005e-03 2.390e-02 -4.450e-04 2.535e-02
135 1 -1.759e+00 -1.121e-03 1.788e+00 2.555e-02 -2.038e-03 -3.237e-03
136 1 1.788e+00 1.419e-04 -1.759e+00 -3.240e-04 3.647e-04 2.501e-02
137 1 6.101e-03 1.768e+00 1.777e+00 1.735e-02 -7.597e-03 1.043e-02
138 1 1.777e+00 -1.769e+00 6.747e-03 9.872e-03 6.979e-03 1.764e-02
139 1 7.795e-03 -1.766e+00 1.778e+00 1.941e-02 6.409e-03 9.498e-03
140 1 1.775e+00 1.769e+00 9.211e-03 1.035e-02 -8.217e-03 1.909e-02
141 1 1.775e+00 -1.225e-04 1.776e+00 1.110e-02 5.920e-05 1.172e-02
ITEM: TIMESTEP
0
ITEM: NUMBER OF ATOMS
47
ITEM: BOX BOUNDS xy xz yz pp pp pp
                     0.00000000000000e+00 1.06200000000000e+01 0.00000000000000e+00
0.00000000000000e+00	1.06200000000000e+01	0.00000000000000e+00
0.00000000000000e+00	1.06200000000000e+01	0.00000000000000e+00
ITEM: ATOMS id type x y z DisplacementX DisplacementY DisplacementZ
142 1 1.157e-04 -3.521e+00 -3.521e+00 6.463e-04 1.127e-02 9.361e-03
143 1 -1.773e+00 -1.761e+00 3.548e+00 3.260e-03 1.705e-02 1.346e-02
144 1 1.773e+00 3.549e+00 -1.761e+00 -3.689e-03 1.559e-02 1.919e-02
145 1 -1.772e+00 3.549e+00 -1.759e+00 5.149e-03 1.613e-02 1.854e-02
146 1 1.772e+00 -1.760e+00 3.548e+00 -4.070e-03 1.894e-02 1.587e-02
147 1 -3.538e+00 -3.529e+00 8.218e-03 -3.071e-04 1.805e-02 1.865e-02
148 1 3.537e+00 8.953e-03 -3.530e+00 1.051e-03 1.811e-02 1.673e-02
149 1 -3.538e+00 7.708e-03 -3.528e+00 7.177e-04 1.864e-02 1.718e-02
150 1 3.538e+00 -3.530e+00 6.375e-03 -1.196e-03 1.766e-02 1.850e-02
151 1 1.767e+00 3.550e+00 1.777e+00 -1.265e-03 1.219e-02 1.576e-02
152 1 -1.769e+00 3.549e+00 1.777e+00 2.690e-04 1.382e-02 1.405e-02
153 1 1.770e+00 1.777e+00 3.550e+00 3.438e-04 1.757e-02 1.367e-02
154 1 -1.768e+00 1.778e+00 3.549e+00 -1.247e-04 1.705e-02 1.435e-02
155 1 3.539e+00 1.777e+00 1.779e+00 -1.620e-03 1.547e-02 1.554e-02
156 1 -3.536e+00 1.778e+00 1.778e+00 -1.154e-04 1.633e-02 1.476e-02
157 1 1.762e+00 -1.762e+00 -3.521e+00 6.332e-03 1.852e-02 8.978e-03
158 1 -1.760e+00 -1.761e+00 -3.521e+00 -9.326e-03 1.751e-02 9.145e-03
159 1 1.761e+00 -3.522e+00 -1.760e+00 7.993e-03 1.041e-02 1.826e-02
160 1 -1.760e+00 -3.521e+00 -1.760e+00 -7.532e-03 9.272e-03 1.938e-02
161 1 -3.535e+00 -1.758e+00 1.775e+00 -6.955e-04 1.601e-02 1.940e-02
162 1 3.536e+00 1.775e+00 -1.761e+00 -4.816e-04 1.810e-02 1.578e-02
163 1 3.536e+00 -1.760e+00 1.775e+00 -2.202e-03 1.680e-02 1.826e-02
164 1 -3.537e+00 1.776e+00 -1.761e+00 6.880e-04 1.751e-02 1.710e-02
165 1 -1.768e+00 -3.528e+00 1.776e+00 -7.285e-04 1.657e-02 1.422e-02
166 1 1.768e+00 1.778e+00 -3.530e+00 -1.102e-04 1.750e-02 1.573e-02
167 1 -1.767e+00 1.777e+00 -3.528e+00 -9.009e-04 1.762e-02 1.737e-02
168 1 1.767e+00 -3.531e+00 1.778e+00 3.422e-04 1.820e-02 1.826e-02
169 1 4.844e-04 -3.523e+00 3.525e-04 1.385e-03 -2.359e-03 2.526e-02
170 1 6.531e-04 1.385e-05 -3.522e+00 7.795e-04 2.541e-02 -2.389e-03
171 1 3.551e+00 -1.761e+00 -1.761e+00 -1.201e-02 1.882e-02 2.108e-02
172 1 -3.547e+00 -1.760e+00 -1.760e+00 1.116e-02 1.886e-02 1.822e-02
173 1 -3.537e+00 7.238e-03 8.433e-03 -1.378e-02 1.862e-02 1.813e-02
174 1 3.537e+00 6.755e-03 6.101e-03 1.173e-02 1.801e-02 1.869e-02
175 1 -1.624e-03 8.979e-03 3.550e+00 -5.804e-04 1.332e-02 2.429e-02
176 1 -7.702e-04 3.549e+00 1.042e-02 -1.304e-03 2.441e-02 1.535e-02
177 1 5.688e-04 -6.132e-04 -1.252e-03 2.897e-04 -1.735e+00 -1.735e+00
178 1 -1.760e+00 -1.761e+00 -1.249e-04 -1.523e-03 2.670e-02 2.694e-02
179 1 1.760e+00 -7.311e-04 -1.761e+00 -7.966e-04 2.489e-02 2.594e-02
180 1 -1.762e+00 -2.604e-04 -1.761e+00 1.341e-04 2.475e-02 2.737e-02
181 1 1.761e+00 -1.760e+00 -1.020e-05 -2.730e-03 2.513e-02 2.683e-02
182 1 7.459e-04 -1.760e+00 1.788e+00 -9.362e-04 2.593e-02 -8.464e-04
183 1 1.033e-03 1.787e+00 -1.761e+00 1.699e-04 -6.694e-04 2.545e-02
184 1 -1.768e+00 7.830e-03 1.779e+00 9.196e-03 1.863e-02 8.845e-03
185 1 1.767e+00 1.776e+00 9.406e-03 -7.457e-03 1.052e-02 1.905e-02
186 1 1.769e+00 7.961e-03 1.776e+00 -7.306e-03 1.812e-02 8.569e-03
187 1 -1.770e+00 1.777e+00 9.389e-03 7.658e-03 9.355e-03 1.879e-02
188 1 1.150e-04 1.778e+00 1.775e+00 1.056e-03 9.036e-03 1.181e-02
ITEM: TIMESTEP
0
ITEM: NUMBER OF ATOMS
47
ITEM: BOX BOUNDS xy xz yz pp pp pp
                     0.00000000000000e+00 1.06200000000000e+01 0.00000000000000e+00
0.00000000000000e+00	1.06200000000000e+01	0.00000000000000e+00
0.00000000000000e+00	1.06200000000000e+01	0.00000000000000e+00
ITEM: ATOMS id type x y z DisplacementX DisplacementY DisplacementZ
189 1 3.522e+00 -1.347e-04 3.524e+00 -1.054e-02 3.841e-04 -1.030e-02
190 1 -3.551e+00 1.773e+00 1.762e+00 -1.318e-02 -2.891e-03 -1.871e-02
191 1 1.761e+00 -1.770e+00 -3.549e+00 -1.655e-02 4.681e-03 -1.550e-02
192 1 1.760e+00 1.770e+00 -3.550e+00 -1.944e-02 -3.685e-03 -1.665e-02
193 1 -3.549e+00 -1.773e+00 1.761e+00 -1.705e-02 3.272e-03 -1.794e-02
194 1 -7.738e-03 3.538e+00 3.529e+00 -1.731e-02 5.317e-04 -1.890e-02
195 1 3.529e+00 -3.537e+00 -1.095e-02 -1.993e-02 2.251e-03 -1.737e-02
196 1 3.529e+00 3.538e+00 -5.993e-03 -1.928e-02 -2.031e-03 -2.021e-02
197 1 -6.533e-03 -3.537e+00 3.530e+00 -1.812e-02 1.177e-03 -1.858e-02
198 1 -1.780e+00 -1.769e+00 -3.548e+00 -1.545e-02 8.851e-04 -1.341e-02
199 1 -1.780e+00 1.769e+00 -3.549e+00 -1.684e-02 -1.256e-03 -1.379e-02
200 1 -3.548e+00 -1.770e+00 -1.779e+00 -1.502e-02 1.121e-03 -1.662e-02
201 1 -3.549e+00 1.769e+00 -1.779e+00 -1.335e-02 -1.259e-03 -1.438e-02
202 1 -1.777e+00 -3.536e+00 -1.778e+00 -1.629e-02 1.196e-03 -1.482e-02
203 1 -1.778e+00 3.539e+00 -1.778e+00 -1.595e-02 -8.531e-04 -1.495e-02
204 1 3.522e+00 -1.762e+00 1.759e+00 -7.364e-03 -7.056e-03 -1.604e-02
205 1 3.523e+00 1.759e+00 1.762e+00 -9.299e-03 5.909e-03 -1.815e-02
206 1 1.761e+00 -1.761e+00 3.522e+00 -1.727e-02 -4.895e-03 -9.702e-03
207 1 1.761e+00 1.762e+00 3.522e+00 -1.836e-02 7.243e-03 -9.138e-03
208 1 -1.775e+00 3.536e+00 1.761e+00 -1.926e-02 9.628e-04 -1.756e-02
209 1 1.761e+00 -3.536e+00 -1.775e+00 -1.781e-02 -6.252e-04 -1.728e-02
210 1 -1.776e+00 -3.537e+00 1.761e+00 -1.849e-02 -1.166e-04 -1.599e-02
211 1 1.761e+00 3.537e+00 -1.776e+00 -1.807e-02 8.794e-04 -1.879e-02
212 1 -1.778e+00 1.769e+00 3.529e+00 -1.844e-02 3.560e-04 -1.775e-02
213 1 3.529e+00 -1.768e+00 -1.777e+00 -1.584e-02 1.166e-04 -1.791e-02
214 1 3.528e+00 1.768e+00 -1.776e+00 -1.690e-02 8.554e-04 -1.713e-02
215 1 -1.778e+00 -1.768e+00 3.529e+00 -1.784e-02 1.142e-03 -1.868e-02
216 1 -4.539e-04 1.229e-03 3.524e+00 -2.519e-02 -4.892e-04 2.744e-04
217 1 3.523e+00 1.640e-03 6.918e-04 1.216e-03 4.934e-04 -2.725e-02
218 1 1.760e+00 -3.552e+00 1.760e+00 -1.906e-02 1.126e-02 -1.786e-02
219 1 1.761e+00 3.549e+00 1.761e+00 -1.687e-02 -1.355e-02 -1.923e-02
220 1 -7.085e-03 3.538e+00 -5.470e-03 -1.695e-02 1.085e-02 -1.772e-02
221 1 -6.776e-03 -3.538e+00 -8.177e-03 -2.050e-02 -1.071e-02 -1.724e-02
222 1 -3.549e+00 6.167e-04 -1.004e-02 -2.671e-02 6.515e-04 -1.573e-02
223 1 -1.127e-02 2.038e-03 -3.551e+00 -1.436e-02 8.643e-04 -2.501e-02
224 1 6.675e-04 -1.067e-03 -1.233e-03 1.737e+00 -8.798e-04 1.736e+00
225 1 6.555e-04 1.760e+00 1.761e+00 -2.494e-02 -4.733e-04 -2.640e-02
226 1 1.760e+00 -1.761e+00 -7.154e-04 -2.383e-02 -1.379e-04 -2.681e-02
227 1 1.760e+00 1.760e+00 1.194e-03 -2.500e-02 -1.556e-04 -2.664e-02
228 1 -1.681e-03 -1.763e+00 1.760e+00 -2.597e-02 1.313e-03 -2.610e-02
229 1 -1.789e+00 -8.331e-04 1.760e+00 7.091e-04 3.626e-04 -2.320e-02
230 1 1.760e+00 -1.872e-03 -1.788e+00 -2.365e-02 -4.617e-05 2.053e-04
231 1 -1.777e+00 1.766e+00 -8.318e-03 -9.160e-03 -8.033e-03 -1.809e-02
232 1 -7.841e-03 -1.769e+00 -1.778e+00 -1.637e-02 7.758e-03 -1.009e-02
233 1 -1.776e+00 -1.768e+00 -8.063e-03 -9.148e-03 5.675e-03 -1.711e-02
234 1 -8.207e-03 1.768e+00 -1.777e+00 -1.862e-02 -8.554e-03 -1.042e-02
235 1 -1.775e+00 -1.165e-03 -1.776e+00 -1.018e-02 -3.715e-04 -1.148e-02
ITEM: TIMESTEP
0
ITEM: NUMBER OF ATOMS
47
ITEM: BOX BOUNDS xy xz yz pp pp pp
                     0.00000000000000e+00 1.06200000000000e+01 0.00000000000000e+00
0.00000000000000e+00	1.06200000000000e+01	0.00000000000000e+00
0.00000000000000e+00	1.06200000000000e+01	0.00000000000000e+00
ITEM: ATOMS id type x y z DisplacementX DisplacementY DisplacementZ
236 1 3.521e+00 3.522e+00 -6.084e-04 -8.391e-03 -1.090e-02 -5.012e-04
237 1 -3.551e+00 1.761e+00 1.773e+00 -1.446e-02 -1.730e-02 -3.011e-03
238 1 1.762e+00 -3.550e+00 -1.773e+00 -1.660e-02 -1.422e-02 3.756e-03
239 1 1.760e+00 -3.549e+00 1.771e+00 -1.834e-02 -1.393e-02 -3.709e-03
240 1 -3.551e+00 1.761e+00 -1.772e+00 -1.470e-02 -1.788e-02 5.562e-03
241 1 -9.827e-03 3.529e+00 3.537e+00 -1.654e-02 -1.759e-02 -2.506e-03
242 1 3.529e+00 -5.896e-03 -3.537e+00 -1.764e-02 -1.757e-02 7.916e-04
243 1 3.528e+00 -8.119e-03 3.536e+00 -1.663e-02 -1.946e-02 -9.527e-04
244 1 -1.029e-02 3.529e+00 -3.537e+00 -1.816e-02 -1.930e-02 2.316e-03
245 1 -1.779e+00 -3.549e+00 -1.770e+00 -1.668e-02 -1.330e-02 2.546e-03
246 1 -1.780e+00 -3.551e+00 1.769e+00 -1.504e-02 -1.481e-02 -3.337e-03
247 1 -3.549e+00 -1.780e+00 -1.768e+00 -1.305e-02 -1.547e-02 1.132e-03
248 1 -3.550e+00 -1.780e+00 1.769e+00 -1.506e-02 -1.577e-02 -2.279e-03
249 1 -1.779e+00 -1.779e+00 -3.541e+00 -1.597e-02 -1.539e-02 2.136e-03
250 1 -1.778e+00 -1.780e+00 3.539e+00 -1.615e-02 -1.538e-02 -9.374e-04
251 1 3.521e+00 1.761e+00 -1.761e+00 -8.957e-03 -1.632e-02 -6.197e-03
252 1 3.521e+00 1.764e+00 1.761e+00 -8.533e-03 -1.679e-02 6.561e-03
253 1 1.760e+00 3.521e+00 -1.761e+00 -1.904e-02 -1.106e-02 -7.190e-03
254 1 1.762e+00 3.523e+00 1.761e+00 -1.841e-02 -9.954e-03 7.590e-03
255 1 -1.776e+00 1.761e+00 3.537e+00 -1.698e-02 -1.841e-02 1.311e-03
256 1 1.760e+00 -1.776e+00 -3.537e+00 -1.628e-02 -1.778e-02 -1.283e-03
257 1 -1.776e+00 1.762e+00 -3.537e+00 -1.893e-02 -1.711e-02 1.045e-03
258 1 1.761e+00 -1.776e+00 3.538e+00 -1.768e-02 -1.810e-02 9.567e-04
259 1 -1.776e+00 3.529e+00 1.768e+00 -1.820e-02 -1.661e-02 1.538e-03
260 1 3.529e+00 -1.778e+00 -1.768e+00 -1.480e-02 -1.769e-02 -9.328e-04
261 1 3.530e+00 -1.774e+00 1.769e+00 -1.718e-02 -1.852e-02 -7.557e-04
262 1 -1.777e+00 3.528e+00 -1.767e+00 -1.850e-02 -1.862e-02 -1.511e-03
263 1 5.072e-04 3.522e+00 -6.159e-04 -2.353e-02 1.694e-03 3.415e-04
264 1 3.522e+00 2.061e-03 -1.258e-04 1.872e-03 -2.516e-02 -6.342e-04
265 1 1.760e+00 1.762e+00 -3.550e+00 -1.904e-02 -1.816e-02 1.291e-02
266 1 1.760e+00 1.760e+00 3.548e+00 -1.927e-02 -1.883e-02 -1.307e-02
267 1 -7.969e-03 -7.831e-03 3.537e+00 -1.701e-02 -1.694e-02 1.179e-02
268 1 -8.345e-03 -7.284e-03 -3.537e+00 -1.696e-02 -1.892e-02 -1.214e-02
269 1 -3.548e+00 -1.183e-02 -3.490e-04 -2.548e-02 -1.397e-02 -6.237e-04
270 1 -1.152e-02 -3.547e+00 -2.839e-04 -1.529e-02 -2.611e-02 2.873e-04
271 1 2.412e-03 1.141e-04 5.427e-04 1.736e+00 1.734e+00 1.036e-03
272 1 -3.066e-04 1.760e+00 1.760e+00 -2.682e-02 -2.729e-02 -7.533e-04
273 1 1.761e+00 -1.789e-03 -1.761e+00 -2.428e-02 -2.549e-02 1.048e-03
274 1 1.760e+00 1.695e-03 1.760e+00 -2.473e-02 -2.709e-02 1.184e-03
275 1 7.025e-04 1.760e+00 -1.760e+00 -2.584e-02 -2.621e-02 -8.258e-05
276 1 -1.789e+00 1.760e+00 2.866e-04 8.650e-04 -2.658e-02 -1.491e-03
277 1 1.761e+00 -1.788e+00 1.744e-03 -2.389e-02 2.285e-03 -7.256e-04
278 1 -1.776e+00 -1.049e-02 1.768e+00 -1.099e-02 -1.616e-02 -7.260e-03
279 1 -8.365e-03 -1.776e+00 -1.770e+00 -1.958e-02 -8.916e-03 8.287e-03
280 1 -1.775e+00 -7.572e-03 -1.768e+00 -9.041e-03 -1.643e-02 7.446e-03
281 1 -7.998e-03 -1.777e+00 1.768e+00 -1.803e-02 -9.836e-03 -8.149e-03
282 1 -1.775e+00 -1.774e+00 -1.217e-03 -9.658e-03 -1.039e-02 -1.695e-03
ITEM: TIMESTEP
0
ITEM: NUMBER OF ATOMS
47
ITEM: BOX BOUNDS xy xz yz pp pp pp
                     0.00000000000000e+00 1.06200000000000e+01 0.00000000000000e+00
0.00000000000000e+00	1.06200000000000e+01	0.00000000000000e+00
0.00000000000000e+00	1.06200000000000e+01	0.00000000000000e+00
ITEM: ATOMS id type x y z DisplacementX DisplacementY DisplacementZ
283 1 -1.179e-04 3.521e+00 3.522e+00 1.179e-03 -9.597e-03 -8.347e-03
284 1 1.771e+00 -3.548e+00 1.761e+00 -4.362e-03 -1.535e-02 -1.836e-02
285 1 -1.772e+00 1.760e+00 -3.549e+00 2.998e-03 -2.000e-02 -1.275e-02
286 1 1.773e+00 1.762e+00 -3.549e+00 -3.038e-03 -1.610e-02 -1.328e-02
287 1 -1.770e+00 -3.550e+00 1.762e+00 2.166e-03 -1.385e-02 -1.659e-02
288 1 3.537e+00 -7.131e-03 3.530e+00 -2.427e-05 -1.959e-02 -1.771e-02
289 1 -3.537e+00 3.530e+00 -6.119e-03 2.054e-03 -1.840e-02 -1.986e-02
290 1 3.538e+00 3.530e+00 -8.247e-03 -1.887e-03 -1.825e-02 -1.774e-02
291 1 -3.537e+00 -7.380e-03 3.528e+00 1.214e-03 -1.941e-02 -1.734e-02
292 1 -1.770e+00 -1.780e+00 -3.549e+00 3.666e-04 -1.651e-02 -1.232e-02
293 1 1.771e+00 -1.778e+00 -3.550e+00 -3.028e-03 -1.624e-02 -1.346e-02
294 1 -1.770e+00 -3.549e+00 -1.780e+00 2.160e-03 -1.434e-02 -1.632e-02
295 1 1.771e+00 -3.550e+00 -1.779e+00 -1.130e-03 -1.504e-02 -1.454e-02
296 1 -3.539e+00 -1.778e+00 -1.778e+00 3.841e-04 -1.517e-02 -1.548e-02
297 1 3.539e+00 -1.780e+00 -1.777e+00 -7.466e-04 -1.529e-02 -1.567e-02
298 1 -1.762e+00 3.522e+00 1.762e+00 -7.143e-03 -9.582e-03 -1.899e-02
299 1 1.761e+00 3.522e+00 1.762e+00 8.075e-03 -9.462e-03 -1.666e-02
300 1 -1.762e+00 1.761e+00 3.523e+00 -8.195e-03 -1.844e-02 -9.627e-03
301 1 1.760e+00 1.761e+00 3.521e+00 7.482e-03 -1.840e-02 -8.732e-03
302 1 3.535e+00 -1.777e+00 1.762e+00 -3.579e-04 -1.917e-02 -1.842e-02
303 1 -3.537e+00 1.761e+00 -1.776e+00 5.591e-05 -1.806e-02 -1.930e-02
304 1 -3.537e+00 -1.775e+00 1.762e+00 -4.790e-04 -1.990e-02 -1.788e-02
305 1 3.538e+00 1.761e+00 -1.776e+00 -1.419e-03 -1.878e-02 -1.768e-02
306 1 1.767e+00 -1.776e+00 3.529e+00 -3.818e-04 -1.678e-02 -1.605e-02
307 1 -1.768e+00 3.528e+00 -1.778e+00 -1.576e-03 -1.634e-02 -1.742e-02
308 1 1.769e+00 3.530e+00 -1.775e+00 2.757e-04 -1.675e-02 -1.450e-02
309 1 -1.768e+00 -1.777e+00 3.529e+00 -7.417e-04 -1.829e-02 -1.639e-02
310 1 1.885e-05 3.960e-04 3.522e+00 -1.071e-03 -2.702e-02 2.253e-03
311 1 -5.416e-04 3.523e+00 9.328e-04 1.363e-03 1.546e-03 -2.686e-02
312 1 -3.549e+00 1.762e+00 1.761e+00 1.093e-02 -1.860e-02 -1.997e-02
313 1 3.548e+00 1.761e+00 1.761e+00 -1.286e-02 -1.710e-02 -1.853e-02
314 1 3.537e+00 -7.083e-03 -8.697e-03 1.111e-02 -1.823e-02 -1.860e-02
315 1 -3.538e+00 -7.583e-03 -7.229e-03 -1.152e-02 -1.860e-02 -1.616e-02
316 1 -4.768e-04 -3.550e+00 -1.252e-02 8.225e-04 -2.588e-02 -1.468e-02
317 1 4.100e-04 -1.151e-02 -3.549e+00 -1.007e-03 -1.436e-02 -2.795e-02
318 1 -8.886e-04 3.043e-04 -9.731e-04 -2.674e-04 1.737e+00 1.735e+00
319 1 1.763e+00 -1.128e-03 1.761e+00 4.532e-04 -2.541e-02 -2.670e-02
320 1 -1.761e+00 1.761e+00 -1.513e-03 -7.993e-04 -2.619e-02 -2.512e-02
321 1 1.762e+00 1.762e+00 7.701e-04 -1.107e-03 -2.659e-02 -2.486e-02
322 1 -1.762e+00 -7.832e-04 1.760e+00 1.936e-03 -2.713e-02 -2.481e-02
323 1 -1.187e-03 -1.789e+00 1.760e+00 -1.481e-03 1.071e-03 -2.655e-02
324 1 -8.247e-04 1.761e+00 -1.789e+00 -4.405e-04 -2.518e-02 9.493e-04
325 1 1.767e+00 -1.777e+00 -9.838e-03 -8.394e-03 -1.030e-02 -1.847e-02
326 1 -1.768e+00 -6.284e-03 -1.777e+00 8.222e-03 -2.065e-02 -8.984e-03
327 1 -1.768e+00 -1.779e+00 -6.091e-03 6.768e-03 -8.918e-03 -1.656e-02
328 1 1.768e+00 -8.944e-03 -1.779e+00 -7.218e-03 -1.858e-02 -9.647e-03
329 1 -7.526e-04 -1.775e+00 -1.775e+00 4.000e-04 -1.214e-02 -1.285e-02
ITEM: TIMESTEP
0
ITEM: NUMBER OF ATOMS
47
ITEM: BOX BOUNDS xy xz yz pp pp pp
                     0.00000000000000e+00 1.06200000000000e+01 0.00000000000000e+00
0.00000000000000e+00	1.06200000000000e+01	0.00000000000000e+00
0.00000000000000e+00	1.06200000000000e+01	0.00000000000000e+00
ITEM: ATOMS id type x y z DisplacementX DisplacementY DisplacementZ
330 1 -3.524e+00 -1.572e-03 3.520e+00 1.028e-02 1.111e-04 -1.013e-02
331 1 3.550e+00 1.771e+00 1.760e+00 1.361e-02 -4.971e-03 -1.852e-02
332 1 -1.762e+00 -1.772e+00 -3.549e+00 1.839e-02 2.601e-03 -1.443e-02
333 1 -1.762e+00 1.772e+00 -3.549e+00 1.939e-02 -2.606e-03 -1.300e-02
334 1 3.552e+00 -1.773e+00 1.762e+00 1.680e-02 4.059e-03 -1.796e-02
335 1 7.530e-03 3.539e+00 3.529e+00 1.962e-02 1.551e-04 -1.829e-02
336 1 -3.529e+00 -3.538e+00 -6.892e-03 1.617e-02 2.464e-03 -1.967e-02
337 1 -3.529e+00 3.537e+00 -7.197e-03 1.770e-02 -4.031e-04 -1.627e-02
338 1 7.636e-03 -3.536e+00 3.528e+00 1.865e-02 1.338e-03 -1.708e-02
339 1 1.779e+00 -1.769e+00 -3.549e+00 1.553e-02 -8.025e-04 -1.368e-02
340 1 1.779e+00 1.769e+00 -3.549e+00 1.585e-02 -2.520e-03 -1.446e-02
341 1 3.548e+00 -1.769e+00 -1.779e+00 1.600e-02 2.006e-03 -1.702e-02
342 1 3.549e+00 1.769e+00 -1.779e+00 1.553e-02 -1.419e-03 -1.593e-02
343 1 1.779e+00 -3.539e+00 -1.777e+00 1.737e-02 2.363e-03 -1.746e-02
344 1 1.779e+00 3.539e+00 -1.778e+00 1.558e-02 -2.068e-03 -1.484e-02
345 1 -3.520e+00 -1.762e+00 1.760e+00 9.396e-03 -7.178e-03 -1.801e-02
346 1 -3.522e+00 1.759e+00 1.761e+00 8.853e-03 7.314e-03 -1.762e-02
347 1 -1.762e+00 -1.760e+00 3.520e+00 1.790e-02 -7.011e-03 -1.054e-02
348 1 -1.761e+00 1.760e+00 3.523e+00 1.807e-02 7.276e-03 -8.049e-03
349 1 1.777e+00 3.537e+00 1.762e+00 1.918e-02 5.323e-04 -2.111e-02
350 1 -1.760e+00 -3.536e+00 -1.774e+00 1.778e-02 3.035e-04 -1.925e-02
351 1 1.777e+00 -3.535e+00 1.762e+00 1.761e-02 -4.027e-04 -1.845e-02
352 1 -1.761e+00 3.535e+00 -1.778e+00 1.762e-02 9.903e-04 -1.658e-02
353 1 1.776e+00 1.768e+00 3.529e+00 1.723e-02 9.907e-04 -1.716e-02
354 1 -3.529e+00 -1.767e+00 -1.776e+00 1.801e-02 -1.207e-03 -1.717e-02
355 1 -3.529e+00 1.767e+00 -1.777e+00 1.681e-02 -1.617e-05 -1.767e-02
356 1 1.776e+00 -1.769e+00 3.530e+00 1.692e-02 -5.874e-04 -1.741e-02
357 1 1.696e-04 -5.128e-04 3.522e+00 2.409e-02 2.740e-05 2.431e-03
358 1 -3.521e+00 3.976e-04 -4.354e-04 -2.439e-03 -1.749e-03 -2.570e-02
359 1 -1.762e+00 -3.549e+00 1.759e+00 1.876e-02 1.264e-02 -1.864e-02
360 1 -1.760e+00 3.548e+00 1.758e+00 1.870e-02 -1.166e-02 -1.919e-02
361 1 6.721e-03 3.538e+00 -8.443e-03 1.824e-02 1.208e-02 -1.746e-02
362 1 8.493e-03 -3.536e+00 -6.020e-03 1.876e-02 -1.235e-02 -1.755e-02
363 1 3.550e+00 4.873e-04 -1.178e-02 2.710e-02 8.169e-04 -1.786e-02
364 1 9.568e-03 -5.522e-04 -3.551e+00 1.529e-02 -5.216e-04 -2.530e-02
365 1 -1.449e-04 -2.049e-03 1.602e-03 -1.734e+00 7.083e-04 1.736e+00
366 1 7.003e-04 1.762e+00 1.761e+00 2.726e-02 8.076e-04 -2.450e-02
367 1 -1.762e+00 -1.760e+00 1.024e-04 2.543e-02 3.217e-06 -2.732e-02
368 1 -1.762e+00 1.760e+00 1.304e-03 2.600e-02 4.111e-04 -2.691e-02
369 1 4.283e-04 -1.760e+00 1.761e+00 2.597e-02 -2.251e-04 -2.574e-02
370 1 1.790e+00 1.417e-03 1.760e+00 3.502e-04 1.486e-03 -2.491e-02
371 1 -1.760e+00 1.263e-03 -1.789e+00 2.511e-02 1.230e-03 1.096e-03
372 1 1.776e+00 1.767e+00 -8.797e-03 9.548e-03 -7.128e-03 -1.976e-02
373 1 7.661e-03 -1.766e+00 -1.776e+00 1.833e-02 6.559e-03 -1.008e-02
374 1 1.776e+00 -1.768e+00 -8.033e-03 1.095e-02 8.931e-03 -1.874e-02
375 1 8.179e-03 1.769e+00 -1.774e+00 1.704e-02 -6.866e-03 -8.723e-03
376 1 1.775e+00 -1.461e-03 -1.777e+00 1.131e-02 3.173e-04 -1.159e-02
ITEM: TIMESTEP
0
ITEM: NUMBER OF ATOMS
47
ITEM: BOX BOUNDS xy xz yz pp pp pp
                     0.00000000000000e+00 1.06200000000000e+01 0.00000000000000e+00
0.00000000000000e+00	1.06200000000000e+01	0.00000000000000e+00
0.00000000000000e+00	1.06200000000000e+01	0.00000000000000e+00
ITEM: ATOMS id type x y z DisplacementX DisplacementY DisplacementZ
377 1 -3.521e+00 3.522e+00 1.362e-03 9.212e-03 -9.037e-03 1.664e-03
378 1 3.550e+00 1.763e+00 -1.772e+00 1.517e-02 -1.873e-02 3.844e-03
379 1 -1.760e+00 -3.547e+00 1.772e+00 1.622e-02 -1.398e-02 -3.338e-03
380 1 -1.761e+00 -3.548e+00 -1.770e+00 1.836e-02 -1.325e-02 3.926e-03
381 1 3.550e+00 1.760e+00 1.771e+00 1.377e-02 -1.792e-02 -1.957e-03
382 1 7.085e-03 3.529e+00 -3.539e+00 1.777e-02 -1.718e-02 8.461e-04
383 1 -3.528e+00 -7.529e-03 3.539e+00 1.999e-02 -1.792e-02 -2.492e-04
384 1 -3.528e+00 -7.324e-03 -3.537e+00 1.651e-02 -1.850e-02 5.548e-04
385 1 7.569e-03 3.530e+00 3.538e+00 1.822e-02 -1.820e-02 -1.263e-03
386 1 1.777e+00 -3.550e+00 1.770e+00 1.644e-02 -1.312e-02 2.627e-04
387 1 1.778e+00 -3.549e+00 -1.769e+00 1.500e-02 -1.379e-02 1.980e-03
388 1 3.549e+00 -1.780e+00 1.769e+00 1.421e-02 -1.542e-02 -6.883e-04
389 1 3.549e+00 -1.779e+00 -1.768e+00 1.210e-02 -1.652e-02 3.138e-03