ITEM: TIMESTEP
0
ITEM: NUMBER OF ATOMS
32
ITEM: BOX BOUNDS xy xz yz pp pp pp
                     -5.00000000000000e-01 5.00000000000000e-01 0.00000000000000e+00
-5.00000000000000e-01	5.00000000000000e-01	0.00000000000000e+00
-5.00000000000000e-01	5.00000000000000e-01	0.00000000000000e+00
ITEM: ATOMS id type x y z DisplacementX DisplacementY DisplacementZ
1 1 0.000e+00 4.000e-01 0.000e+00 1.095e-03 5.406e-04 -1.607e-03
2 1 0.000e+00 -4.000e-01 0.000e+00 9.545e-04 -3.138e-04 3.702e-04
3 1 2.000e-01 0.000e+00 2.000e-01 8.578e-04 -2.596e-05 -1.888e-04
4 1 -2.000e-01 -2.000e-01 -2.000e-01 -9.860e-04 4.417e-04 2.521e-03
5 1 0.000e+00 0.000e+00 2.000e-01 -4.219e-04 2.569e-04 -5.661e-04
6 1 0.000e+00 0.000e+00 4.000e-01 1.179e-03 -2.632e-04 9.670e-04
7 1 0.000e+00 0.000e+00 0.000e+00 -1.999e-01 1.779e-03 8.936e-04
8 1 2.000e-01 -2.000e-01 -2.000e-01 1.051e-04 -1.935e-03 7.588e-04
9 1 -2.000e-01 2.000e-01 -2.000e-01 -9.516e-04 -5.491e-04 -2.121e-03
10 1 2.000e-01 0.000e+00 -2.000e-01 8.827e-04 1.718e-03 -1.018e-03
11 1 2.000e-01 -2.000e-01 2.000e-01 -2.251e-04 1.768e-03 3.467e-05
12 1 -2.000e-01 2.000e-01 2.000e-01 -5.768e-04 3.959e-04 1.000e-04
13 1 2.000e-01 2.000e-01 -2.000e-01 -3.965e-04 1.540e-03 1.734e-04
14 1 -2.000e-01 0.000e+00 2.000e-01 4.905e-04 1.968e-03 -2.002e-05
15 1 0.000e+00 0.000e+00 -4.000e-01 -1.358e-03 -1.550e-03 1.790e-04
16 1 2.000e-01 2.000e-01 2.000e-01 8.895e-04 8.016e-04 -1.129e-03
17 1 -2.000e-01 0.000e+00 -2.000e-01 3.469e-04 1.430e-03 4.774e-04
18 1 -4.000e-01 0.000e+00 0.000e+00 -6.109e-04 -9.507e-04 -6.208e-04
19 1 0.000e+00 2.000e-01 0.000e+00 4.652e-04 -5.684e-05 2.648e-03
20 1 0.000e+00 0.000e+00 -2.000e-01 -7.726e-04 1.309e-03 5.866e-04
21 1 0.000e+00 2.000e-01 2.000e-01 3.681e-04 -4.974e-04 2.844e-04
22 1 0.000e+00 2.000e-01 -2.000e-01 -4.058e-04 -8.863e-04 7.612e-04
23 1 4.000e-01 0.000e+00 0.000e+00 1.019e-03 -7.723e-04 2.013e-04
24 1 0.000e+00 -2.000e-01 2.000e-01 -8.147e-04 -1.205e-03 -3.530e-06
25 1 2.000e-01 0.000e+00 0.000e+00 1.080e-03 8.347e-05 -4.368e-04
26 1 0.000e+00 -2.000e-01 0.000e+00 6.348e-04 6.944e-04 9.952e-05
27 1 2.000e-01 2.000e-01 0.000e+00 3.089e-04 4.446e-04 2.116e-04
28 1 -2.000e-01 -2.000e-01 0.000e+00 -1.901e-04 1.814e-03 8.908e-04
29 1 -2.000e-01 2.000e-01 0.000e+00 1.457e-03 -1.524e-03 1.361e-03
30 1 2.000e-01 -2.000e-01 0.000e+00 5.424e-04 1.559e-04 -6.083e-04
31 1 0.000e+00 -2.000e-01 -2.000e-01 -1.377e-04 -1.535e-04 -4.605e-04
32 1 -2.000e-01 -2.000e-01 2.000e-01 8.337e-05 1.511e-03 3.376e-04
ITEM: TIMESTEP
0
ITEM: NUMBER OF ATOMS
32
ITEM: BOX BOUNDS xy xz yz pp pp pp
                     -5.00000000000000e-01 5.00000000000000e-01 0.00000000000000e+00
-5.00000000000000e-01	5.00000000000000e-01	0.00000000000000e+00
-5.00000000000000e-01	5.00000000000000e-01	0.00000000000000e+00
ITEM: ATOMS id type x y z DisplacementX DisplacementY DisplacementZ
33 1 0.000e+00 -2.000e-01 2.000e-01 -1.084e-03 5.834e-04 -2.101e-03
34 1 0.000e+00 2.000e-01 2.000e-01 -2.108e-04 -3.216e-04 7.062e-04
35 1 0.000e+00 0.000e+00 4.000e-01 -1.268e-04 -1.214e-03 -5.821e-04
36 1 0.000e+00 -4.000e-01 0.000e+00 -5.512e-04 1.212e-04 -3.103e-04
37 1 4.000e-01 0.000e+00 0.000e+00 -4.535e-04 3.643e-05 3.583e-04
38 1 2.000e-01 0.000e+00 0.000e+00 -1.921e-04 -1.573e-03 -6.664e-04
39 1 2.000e-01 0.000e+00 2.000e-01 -1.683e-03 4.423e-04 -1.515e-04
40 1 2.000e-01 0.000e+00 -2.000e-01 -9.297e-04 1.055e-03 -3.796e-04
41 1 0.000e+00 2.000e-01 0.000e+00 -1.179e-03 -6.410e-04 1.100e-04
42 1 -2.000e-01 2.000e-01 0.000e+00 1.651e-03 -8.094e-04 -2.403e-04
43 1 -2.000e-01 -2.000e-01 0.000e+00 -5.859e-05 2.056e-05 8.355e-04
44 1 0.000e+00 0.000e+00 0.000e+00 5.431e-04 -1.015e-03 -2.011e-01
45 1 0.000e+00 0.000e+00 2.000e-01 2.315e-04 4.242e-04 -1.498e-03
46 1 2.000e-01 -2.000e-01 2.000e-01 -3.254e-04 2.246e-04 1.160e-03
47 1 0.000e+00 0.000e+00 -4.000e-01 -1.110e-03 -3.903e-04 -2.533e-05
48 1 -2.000e-01 0.000e+00 -2.000e-01 -1.008e-03 -4.990e-04 6.816e-04
49 1 2.000e-01 2.000e-01 -2.000e-01 -9.287e-04 -1.572e-03 -1.935e-04
50 1 0.000e+00 4.000e-01 0.000e+00 -1.901e-04 -3.848e-05 -9.147e-04
51 1 -2.000e-01 -2.000e-01 -2.000e-01 -8.723e-04 -6.250e-04 8.458e-04
52 1 2.000e-01 2.000e-01 0.000e+00 -8.091e-04 -3.021e-04 -8.442e-04
53 1 -2.000e-01 2.000e-01 -2.000e-01 -4.292e-04 7.456e-04 -5.808e-04
54 1 2.000e-01 -2.000e-01 0.000e+00 -4.479e-06 -1.590e-03 -1.164e-03
55 1 2.000e-01 -2.000e-01 -2.000e-01 -9.622e-04 -6.963e-04 3.302e-04
56 1 0.000e+00 -2.000e-01 -2.000e-01 -5.344e-04 1.307e-03 1.982e-04
57 1 0.000e+00 2.000e-01 -2.000e-01 3.122e-04 -1.725e-03 -9.722e-04
58 1 -2.000e-01 0.000e+00 2.000e-01 1.048e-03 1.424e-03 1.202e-03
59 1 2.000e-01 2.000e-01 2.000e-01 -1.425e-03 -4.993e-04 -4.966e-04
60 1 -2.000e-01 2.000e-01 2.000e-01 -1.036e-03 -4.709e-04 -5.740e-04
61 1 -2.000e-01 0.000e+00 0.000e+00 1.079e-03 8.475e-04 -3.699e-04
62 1 -2.000e-01 -2.000e-01 2.000e-01 -4.441e-06 9.014e-04 2.765e-05
63 1 -4.000e-01 0.000e+00 0.000e+00 -3.429e-04 -1.786e-03 -3.229e-04
64 1 0.000e+00 -2.000e-01 0.000e+00 -1.700e-03 -1.013e-03 -1.944e-04
ITEM: TIMESTEP
0
ITEM: NUMBER OF ATOMS
32
ITEM: BOX BOUNDS xy xz yz pp pp pp
                     -5.00000000000000e-01 5.00000000000000e-01 0.00000000000000e+00
-5.00000000000000e-01	5.00000000000000e-01	0.00000000000000e+00
-5.00000000000000e-01	5.00000000000000e-01	0.00000000000000e+00
ITEM: ATOMS id type x y z DisplacementX DisplacementY DisplacementZ
65 1 -4.000e-01 0.000e+00 0.000e+00 4.570e-04 6.138e-04 -1.615e-03
66 1 0.000e+00 -4.000e-01 0.000e+00 -3.650e-04 4.593e-04 -3.043e-04
67 1 0.000e+00 0.000e+00 -2.000e-01 6.270e-04 -4.493e-05 -1.088e-03
68 1 0.000e+00 -2.000e-01 0.000e+00 5.201e-04 -1.726e-03 4.002e-04
69 1 2.000e-01 0.000e+00 2.000e-01 -2.807e-04 1.381e-04 -5.603e-04
70 1 0.000e+00 2.000e-01 0.000e+00 4.813e-04 1.452e-03 -6.914e-04
71 1 4.000e-01 0.000e+00 0.000e+00 -4.337e-04 -4.898e-04 -2.830e-04
72 1 2.000e-01 -2.000e-01 -2.000e-01 3.063e-04 -2.171e-04 6.385e-04
73 1 0.000e+00 4.000e-01 0.000e+00 5.972e-04 7.989e-04 -1.705e-03
74 1 -2.000e-01 0.000e+00 -2.000e-01 -8.251e-04 -1.198e-03 1.281e-03
75 1 -2.000e-01 -2.000e-01 -2.000e-01 -1.985e-04 2.656e-04 -2.545e-04
76 1 0.000e+00 0.000e+00 4.000e-01 1.142e-03 1.544e-03 -3.982e-04
77 1 0.000e+00 0.000e+00 -4.000e-01 9.304e-05 -8.342e-04 4.822e-04
78 1 0.000e+00 -2.000e-01 -2.000e-01 -7.243e-04 9.834e-04 -7.549e-05
79 1 2.000e-01 0.000e+00 -2.000e-01 -1.016e-04 -1.337e-03 6.560e-04
80 1 0.000e+00 0.000e+00 0.000e+00 -1.365e-03 -4.445e-04 1.986e-01
81 1 -2.000e-01 0.000e+00 2.000e-01 5.187e-04 1.990e-05 -7.292e-04
82 1 2.000e-01 2.000e-01 2.000e-01 -7.509e-04 -2.420e-04 -8.398e-04
83 1 -2.000e-01 2.000e-01 -2.000e-01 -8.157e-04 5.183e-04 -1.666e-03
84 1 2.000e-01 0.000e+00 0.000e+00 1.426e-03 -6.229e-04 -3.111e-04
85 1 -2.000e-01 -2.000e-01 2.000e-01 -4.497e-04 6.947e-04 2.910e-03
86 1 -2.000e-01 2.000e-01 0.000e+00 -4.368e-04 -1.864e-03 5.221e-04
87 1 2.000e-01 2.000e-01 0.000e+00 -5.360e-04 -3.352e-04 1.127e-03
88 1 -2.000e-01 2.000e-01 2.000e-01 -1.810e-04 8.388e-04 -1.385e-03
89 1 2.000e-01 -2.000e-01 2.000e-01 -5.592e-04 -8.131e-04 -1.555e-03
90 1 -2.000e-01 -2.000e-01 0.000e+00 1.242e-03 1.799e-04 1.725e-04
91 1 -2.000e-01 0.000e+00 0.000e+00 -3.185e-04 -7.913e-04 -6.064e-04
92 1 0.000e+00 -2.000e-01 2.000e-01 -6.193e-05 4.072e-04 3.664e-04
93 1 0.000e+00 2.000e-01 2.000e-01 -1.533e-03 1.937e-03 2.751e-04
94 1 2.000e-01 2.000e-01 -2.000e-01 -5.589e-04 -3.956e-03 -2.981e-04
95 1 0.000e+00 2.000e-01 -2.000e-01 -4.179e-04 1.625e-04 7.413e-05
96 1 2.000e-01 -2.000e-01 0.000e+00 2.777e-04 1.735e-03 3.137e-04
ITEM: TIMESTEP
0
ITEM: NUMBER OF ATOMS
32
ITEM: BOX BOUNDS xy xz yz pp pp pp
                     -5.00000000000000e-01 5.00000000000000e-01 0.00000000000000e+00
-5.00000000000000e-01	5.00000000000000e-01	0.00000000000000e+00
-5.00000000000000e-01	5.00000000000000e-01	0.00000000000000e+00
ITEM: ATOMS id type x y z DisplacementX DisplacementY DisplacementZ
97 1 -2.000e-01 -2.000e-01 0.000e+00 1.253e-03 4.813e-04 -2.848e-04
98 1 -2.000e-01 0.000e+00 -2.000e-01 -2.597e-03 -1.367e-03 -1.663e-03
99 1 2.000e-01 -2.000e-01 -2.000e-01 1.020e-04 5.276e-04 1.549e-04
100 1 4.000e-01 0.000e+00 0.000e+00 -1.064e-03 -5.448e-04 1.198e-04
101 1 2.000e-01 2.000e-01 -2.000e-01 8.019e-04 4.674e-04 -8.092e-05
102 1 2.000e-01 2.000e-01 2.000e-01 1.176e-03 -1.641e-04 -7.524e-05
103 1 0.000e+00 2.000e-01 2.000e-01 -2.189e-04 7.983e-04 6.198e-04
104 1 0.000e+00 0.000e+00 -4.000e-01 -7.061e-04 -2.236e-04 -2.641e-04
105 1 -2.000e-01 2.000e-01 2.000e-01 5.020e-05 1.002e-03 1.316e-03
106 1 0.000e+00 -2.000e-01 2.000e-01 1.074e-03 7.670e-04 1.783e-04
107 1 2.000e-01 0.000e+00 2.000e-01 -2.383e-04 2.063e-03 -1.718e-04
108 1 0.000e+00 -4.000e-01 0.000e+00 -3.305e-04 -2.482e-04 -1.659e-04
109 1 0.000e+00 4.000e-01 0.000e+00 -1.069e-03 3.008e-04 -9.915e-04
110 1 2.000e-01 0.000e+00 -2.000e-01 5.567e-04 9.752e-04 -1.178e-03
111 1 -2.000e-01 2.000e-01 -2.000e-01 -2.807e-04 -1.352e-03 -1.626e-03
112 1 0.000e+00 0.000e+00 0.000e+00 2.013e-01 -1.254e-03 8.047e-04
113 1 0.000e+00 -2.000e-01 0.000e+00 3.064e-04 -1.923e-03 1.119e-03
114 1 0.000e+00 2.000e-01 -2.000e-01 9.796e-04 -1.837e-03 3.745e-04
115 1 -2.000e-01 2.000e-01 0.000e+00 -1.503e-03 -3.956e-04 7.290e-05
116 1 -2.000e-01 0.000e+00 0.000e+00 -4.991e-04 -2.121e-04 -1.731e-03
117 1 0.000e+00 2.000e-01 0.000e+00 2.071e-04 -1.800e-03 -4.589e-04
118 1 -4.000e-01 0.000e+00 0.000e+00 1.129e-03 1.342e-03 8.867e-04
119 1 0.000e+00 -2.000e-01 -2.000e-01 6.523e-04 7.289e-04 -6.200e-04
120 1 0.000e+00 0.000e+00 -2.000e-01 -4.345e-04 -8.399e-04 -7.184e-04
121 1 2.000e-01 -2.000e-01 0.000e+00 -1.444e-03 -1.278e-03 1.523e-04
122 1 -2.000e-01 -2.000e-01 -2.000e-01 -1.055e-03 -2.806e-04 -1.420e-03
123 1 -2.000e-01 -2.000e-01 2.000e-01 -3.219e-04 -1.298e-03 -4.829e-04
124 1 2.000e-01 2.000e-01 0.000e+00 1.200e-03 -6.479e-04 4.094e-04
125 1 0.000e+00 0.000e+00 4.000e-01 1.974e-04 5.680e-04 1.588e-05
126 1 0.000e+00 0.000e+00 2.000e-01 -5.738e-04 4.358e-05 -9.898e-04
127 1 -2.000e-01 0.000e+00 2.000e-01 8.469e-04 1.661e-03 -1.071e-04
128 1 2.000e-01 -2.000e-01 2.000e-01 8.145e-04 2.729e-03 4.508e-04
ITEM: TIMESTEP
0
ITEM: NUMBER OF ATOMS
32
ITEM: BOX BOUNDS xy xz yz pp pp pp
                     -5.00000000000000e-01 5.00000000000000e-01 0.00000000000000e+00
-5.00000000000000e-01	5.00000000000000e-01	0.00000000000000e+00
-5.00000000000000e-01	5.00000000000000e-01	0.00000000000000e+00
ITEM: ATOMS id type x y z DisplacementX DisplacementY DisplacementZ
129 1 -4.000e-01 0.000e+00 0.000e+00 1.352e-03 1.501e-03 -2.520e-04
130 1 0.000e+00 0.000e+00 4.000e-01 -2.070e-03 -7.145e-04 -8.054e-04
131 1 -2.000e-01 -2.000e-01 -2.000e-01 -9.003e-05 -1.773e-03 1.524e-04
132 1 0.000e+00 -2.000e-01 0.000e+00 5.446e-04 1.054e-03 9.232e-04
133 1 2.000e-01 -2.000e-01 0.000e+00 -2.466e-04 -6.727e-04 7.742e-04
134 1 0.000e+00 -2.000e-01 -2.000e-01 -4.392e-04 3.289e-04 -6.990e-04
135 1 2.000e-01 -2.000e-01 -2.000e-01 -8.597e-04 -8.311e-04 -4.728e-04
136 1 0.000e+00 -2.000e-01 2.000e-01 -6.041e-04 4.663e-04 5.095e-04
137 1 0.000e+00 0.000e+00 -2.000e-01 -8.012e-04 2.443e-06 5.804e-04
138 1 2.000e-01 2.000e-01 2.000e-01 -5.305e-04 -1.210e-04 5.897e-04
139 1 2.000e-01 2.000e-01 0.000e+00 4.064e-04 -5.500e-05 3.064e-04
140 1 -2.000e-01 -2.000e-01 2.000e-01 -9.549e-04 -1.683e-04 1.650e-03
141 1 -2.000e-01 0.000e+00 2.000e-01 2.092e-04 -2.258e-03 -1.833e-04
142 1 0.000e+00 2.000e-01 2.000e-01 1.097e-03 -3.235e-04 -1.157e-03
143 1 0.000e+00 0.000e+00 -4.000e-01 1.206e-04 1.162e-03 1.898e-03
144 1 -2.000e-01 -2.000e-01 0.000e+00 -5.139e-04 -1.056e-03 2.625e-04
145 1 0.000e+00 2.000e-01 -2.000e-01 8.785e-04 7.536e-04 -1.160e-03
146 1 -2.000e-01 2.000e-01 0.000e+00 -1.957e-04 -2.166e-04 -1.611e-04
147 1 2.000e-01 2.000e-01 -2.000e-01 -3.805e-04 1.756e-03 1.330e-04
148 1 -2.000e-01 0.000e+00 0.000e+00 7.534e-04 2.776e-04 -1.493e-05
149 1 2.000e-01 0.000e+00 2.000e-01 5.302e-05 9.704e-04 -1.465e-03
150 1 2.000e-01 0.000e+00 0.000e+00 -3.892e-04 -5.809e-04 3.005e-04
151 1 2.000e-01 -2.000e-01 2.000e-01 4.527e-04 -4.650e-04 -1.742e-03
152 1 0.000e+00 -4.000e-01 0.000e+00 -9.858e-04 1.189e-03 -1.768e-03
153 1 -2.000e-01 0.000e+00 -2.000e-01 2.380e-04 -2.168e-04 3.101e-03
154 1 -2.000e-01 2.000e-01 -2.000e-01 4.006e-04 4.829e-04 -5.751e-04
155 1 0.000e+00 0.000e+00 0.000e+00 -1.793e-03 2.002e-01 2.101e-04
156 1 0.000e+00 4.000e-01 0.000e+00 2.966e-04 2.012e-03 -1.152e-03
157 1 -2.000e-01 2.000e-01 2.000e-01 -1.219e-03 1.379e-04 4.108e-04
158 1 4.000e-01 0.000e+00 0.000e+00 2.072e-04 1.558e-03 8.083e-04
159 1 2.000e-01 0.000e+00 -2.000e-01 8.269e-05 1.411e-03 -6.797e-04
160 1 0.000e+00 0.000e+00 2.000e-01 3.385e-04 7.818e-04 -3.457e-04
ITEM: TIMESTEP
0
ITEM: NUMBER OF ATOMS
32
ITEM: BOX BOUNDS xy xz yz pp pp pp
                     -5.00000000000000e-01 5.00000000000000e-01 0.00000000000000e+00
-5.00000000000000e-01	5.00000000000000e-01	0.00000000000000e+00
-5.00000000000000e-01	5.00000000000000e-01	0.00000000000000e+00
ITEM: ATOMS id type x y z DisplacementX DisplacementY DisplacementZ
161 1 2.000e-01 2.000e-01 0.000e+00 -1.501e-03 1.937e-04 -9.791e-04
162 1 2.000e-01 2.000e-01 -2.000e-01 5.198e-04 -2.598e-04 -3.536e-04
163 1 0.000e+00 4.000e-01 0.000e+00 4.713e-04 4.012e-04 5.639e-04
164 1 0.000e+00 0.000e+00 4.000e-01 5.674e-04 1.493e-03 1.454e-03
165 1 2.000e-01 -2.000e-01 2.000e-01 -4.830e-05 -5.169e-04 -8.847e-04
166 1 2.000e-01 -2.000e-01 0.000e+00 -4.880e-04 1.088e-03 -1.338e-03
167 1 0.000e+00 0.000e+00 -2.000e-01 1.067e-03 -2.004e-04 -9.160e-05
168 1 0.000e+00 0.000e+00 2.000e-01 3.703e-04 -7.135e-04 9.928e-04
169 1 0.000e+00 2.000e-01 -2.000e-01 1.270e-03 6.819e-04 5.700e-04
170 1 -2.000e-01 2.000e-01 2.000e-01 1.480e-04 1.240e-03 5.788e-05
171 1 -2.000e-01 0.000e+00 2.000e-01 -2.256e-04 1.983e-05 -7.331e-06
172 1 0.000e+00 -2.000e-01 2.000e-01 -2.336e-05 -2.750e-04 8.112e-04
173 1 -2.000e-01 2.000e-01 0.000e+00 5.711e-04 1.720e-03 -6.873e-04
174 1 0.000e+00 -2.000e-01 -2.000e-01 1.324e-03 1.627e-03 -1.048e-03
175 1 -2.000e-01 -2.000e-01 0.000e+00 -1.705e-03 1.090e-03 -9.226e-04
176 1 2.000e-01 0.000e+00 0.000e+00 2.666e-04 1.122e-04 -4.859e-05
177 1 0.000e+00 2.000e-01 2.000e-01 1.569e-03 -8.301e-04 5.418e-04
178 1 2.000e-01 -2.000e-01 -2.000e-01 2.380e-03 8.038e-04 -9.475e-04
179 1 -2.000e-01 0.000e+00 -2.000e-01 -8.447e-04 -2.132e-03 -8.342e-04
180 1 -4.000e-01 0.000e+00 0.000e+00 2.096e-04 -1.018e-04 7.542e-04
181 1 2.000e-01 0.000e+00 2.000e-01 -7.860e-04 -1.646e-03 -1.020e-03
182 1 2.000e-01 2.000e-01 2.000e-01 -3.100e-04 -9.341e-04 -4.449e-04
183 1 2.000e-01 0.000e+00 -2.000e-01 -7.695e-04 -1.608e-04 -7.512e-04
184 1 -2.000e-01 0.000e+00 0.000e+00 -2.844e-03 2.072e-04 6.191e-04
185 1 4.000e-01 0.000e+00 0.000e+00 -7.837e-04 -1.201e-04 -1.797e-05
186 1 0.000e+00 2.000e-01 0.000e+00 1.418e-03 -4.612e-04 -5.446e-04
187 1 -2.000e-01 -2.000e-01 -2.000e-01 -1.048e-03 -2.007e-03 1.043e-03
188 1 0.000e+00 -4.000e-01 0.000e+00 7.953e-04 2.067e-04 -1.448e-03
189 1 0.000e+00 0.000e+00 0.000e+00 1.727e-03 -2.004e-01 -1.081e-03
190 1 -2.000e-01 -2.000e-01 2.000e-01 1.706e-03 3.879e-04 5.587e-04
191 1 -2.000e-01 2.000e-01 -2.000e-01 6.020e-04 -9.541e-04 1.907e-03
192 1 0.000e+00 0.000e+00 -4.000e-01 -1.627e-03 1.175e-03 -5.040e-04
ITEM: TIMESTEP
0
ITEM: NUMBER OF ATOMS
32
ITEM: BOX BOUNDS xy xz yz pp pp pp
                     -5.00000000000000e-01 5.00000000000000e-01 0.00000000000000e+00
-5.00000000000000e-01	5.00000000000000e-01	0.00000000000000e+00
-5.00000000000000e-01	5.00000000000000e-01	0.00000000000000e+00
ITEM: ATOMS id type x y z DisplacementX DisplacementY DisplacementZ
193 1 2.000e-01 0.000e+00 2.000e-01 -6.986e-04 -4.229e-04 -9.937e-05
194 1 4.000e-01 0.000e+00 0.000e+00 -1.437e-03 -7.306e-04 -1.739e-03
195 1 0.000e+00 -2.000e-01 0.000e+00 -4.666e-04 1.693e-04 -1.651e-04
196 1 -2.000e-01 0.000e+00 0.000e+00 1.768e-04 -1.494e-04 5.977e-04
197 1 0.000e+00 0.000e+00 -2.000e-01 2.135e-04 4.343e-04 -1.102e-03
198 1 -2.000e-01 0.000e+00 -2.000e-01 -1.142e-03 -3.393e-04 -2.072e-05
199 1 2.000e-01 -2.000e-01 0.000e+00 -3.621e-04 -6.657e-04 -4.046e-04
200 1 0.000e+00 0.000e+00 0.000e+00 4.740e-04 1.993e-01 -8.773e-04
201 1 -2.000e-01 2.000e-01 -2.000e-01 -6.742e-04 8.431e-04 5.324e-04
202 1 0.000e+00 -4.000e-01 0.000e+00 7.562e-04 -6.679e-04 1.803e-03
203 1 0.000e+00 -2.000e-01 -2.000e-01 5.576e-04 -2.538e-04 -4.890e-04
204 1 2.000e-01 2.000e-01 2.000e-01 3.344e-03 4.936e-04 5.282e-04
205 1 -2.000e-01 -2.000e-01 2.000e-01 1.894e-03 1.109e-03 1.545e-03
206 1 2.000e-01 2.000e-01 -2.000e-01 -5.266e-04 -6.609e-04 8.834e-04
207 1 -2.000e-01 -2.000e-01 -2.000e-01 3.088e-04 6.655e-04 -1.466e-03
208 1 0.000e+00 0.000e+00 -4.000e-01 -1.136e-03 1.041e-03 -1.003e-04
209 1 0.000e+00 4.000e-01 0.000e+00 1.046e-03 -7.429e-04 7.533e-04
210 1 0.000e+00 2.000e-01 -2.000e-01 -8.190e-04 -5.507e-04 -7.277e-04
211 1 -4.000e-01 0.000e+00 0.000e+00 -1.727e-03 -1.036e-03 1.214e-03
212 1 0.000e+00 0.000e+00 2.000e-01 -1.126e-04 -1.036e-03 -2.288e-04
213 1 2.000e-01 -2.000e-01 2.000e-01 -1.192e-03 2.702e-04 2.168e-03
214 1 0.000e+00 0.000e+00 4.000e-01 1.355e-03 -1.223e-03 2.853e-04
215 1 -2.000e-01 2.000e-01 0.000e+00 -4.605e-04 2.429e-04 5.513e-04
216 1 -2.000e-01 2.000e-01 2.000e-01 7.369e-04 6.755e-04 1.775e-03
217 1 2.000e-01 0.000e+00 0.000e+00 -3.490e-04 2.434e-04 6.046e-04
218 1 2.000e-01 2.000e-01 0.000e+00 -2.383e-05 -5.326e-04 3.139e-04
219 1 2.000e-01 -2.000e-01 -2.000e-01 -2.584e-04 1.163e-03 -1.287e-03
220 1 2.000e-01 0.000e+00 -2.000e-01 2.203e-04 -1.618e-03 1.753e-04
221 1 -2.000e-01 0.000e+00 2.000e-01 2.036e-04 -7.286e-04 3.215e-04
222 1 0.000e+00 -2.000e-01 2.000e-01 -3.137e-03 4.747e-04 7.768e-04
223 1 0.000e+00 2.000e-01 2.000e-01 -1.197e-03 -1.341e-04 -1.488e-03
224 1 -2.000e-01 -2.000e-01 0.000e+00 -7.287e-04 -5.590e-04 4.603e-04
ITEM: TIMESTEP
0
ITEM: NUMBER OF ATOMS
32
ITEM: BOX BOUNDS xy xz yz pp pp pp
                     -5.00000000000000e-01 5.00000000000000e-01 0.00000000000000e+00
-5.00000000000000e-01	5.00000000000000e-01	0.00000000000000e+00
-5.00000000000000e-01	5.00000000000000e-01	0.00000000000000e+00
ITEM: ATOMS id type x y z DisplacementX DisplacementY DisplacementZ
225 1 2.000e-01 2.000e-01 2.000e-01 1.731e-04 -3.066e-03 1.641e-03
226 1 2.000e-01 0.000e+00 0.000e+00 -2.684e-04 2.103e-04 1.512e-03
227 1 2.000e-01 0.000e+00 -2.000e-01 -9.390e-04 8.184e-04 -8.097e-05
228 1 -2.000e-01 0.000e+00 -2.000e-01 -8.913e-04 2.673e-04 -2.430e-04
229 1 0.000e+00 4.000e-01 0.000e+00 -6.090e-04 -6.162e-04 -9.510e-04
230 1 2.000e-01 2.000e-01 -2.000e-01 8.432e-04 1.295e-03 -1.019e-03
231 1 4.000e-01 0.000e+00 0.000e+00 2.249e-03 -1.481e-03 -2.039e-04
232 1 0.000e+00 -4.000e-01 0.000e+00 1.026e-03 1.546e-03 9.665e-04
233 1 0.000e+00 2.000e-01 -2.000e-01 8.009e-04 -3.066e-04 -1.691e-03
234 1 0.000e+00 0.000e+00 -2.000e-01 1.555e-03 -3.580e-04 4.694e-04
235 1 -2.000e-01 -2.000e-01 -2.000e-01 -1.829e-04 5.339e-04 -2.773e-04
236 1 0.000e+00 2.000e-01 0.000e+00 1.512e-03 -9.397e-04 -2.583e-04
237 1 -2.000e-01 2.000e-01 2.000e-01 1.224e-03 2.149e-03 7.308e-04
238 1 2.000e-01 -2.000e-01 2.000e-01 7.070e-04 2.909e-05 2.953e-03
239 1 -2.000e-01 2.000e-01 -2.000e-01 3.176e-04 -1.457e-04 -1.349e-03
240 1 2.000e-01 -2.000e-01 -2.000e-01 1.478e-03 -1.074e-03 -1.073e-03
241 1 0.000e+00 0.000e+00 0.000e+00 -3.350e-04 -2.001e-01 -5.483e-04
242 1 0.000e+00 2.000e-01 2.000e-01 2.801e-04 7.723e-04 6.860e-04
243 1 0.000e+00 -2.000e-01 -2.000e-01 -9.769e-04 -5.083e-04 5.300e-04
244 1 -2.000e-01 0.000e+00 0.000e+00 8.132e-04 -5.007e-04 -3.670e-04
245 1 0.000e+00 0.000e+00 -4.000e-01 7.528e-04 9.700e-04 -7.826e-05
246 1 2.000e-01 0.000e+00 2.000e-01 -7.811e-04 2.003e-03 7.297e-04
247 1 -2.000e-01 2.000e-01 0.000e+00 -4.757e-04 -2.075e-03 -1.528e-04
248 1 -4.000e-01 0.000e+00 0.000e+00 -1.410e-03 -7.306e-04 9.755e-05
249 1 -2.000e-01 -2.000e-01 0.000e+00 6.212e-04 -7.863e-04 -2.303e-04
250 1 -2.000e-01 -2.000e-01 2.000e-01 -1.380e-03 7.022e-04 -1.003e-03
251 1 2.000e-01 -2.000e-01 0.000e+00 -9.334e-04 -5.046e-04 7.345e-05
252 1 0.000e+00 0.000e+00 4.000e-01 -5.186e-04 -2.127e-05 9.424e-04
253 1 2.000e-01 2.000e-01 0.000e+00 1.451e-03 1.507e-03 1.555e-03
254 1 -2.000e-01 0.000e+00 2.000e-01 1.462e-03 1.817e-04 5.568e-04
255 1 0.000e+00 -2.000e-01 2.000e-01 7.001e-05 -1.988e-03 -1.710e-03
256 1 0.000e+00 0.000e+00 2.000e-01 8.351e-04 -3.095e-04 -2.994e-04
ITEM: TIMESTEP
0
ITEM: NUMBER OF ATOMS
32
ITEM: BOX BOUNDS xy xz yz pp pp pp
                     -5.00000000000000e-01 5.00000000000000e-01 0.00000000000000e+00
-5.00000000000000e-01	5.00000000000000e-01	0.00000000000000e+00
-5.00000000000000e-01	5.00000000000000e-01	0.00000000000000e+00
ITEM: ATOMS id type x y z DisplacementX DisplacementY DisplacementZ
257 1 2.000e-01 2.000e-01 -2.000e-01 -6.274e-04 1.221e-03 9.776e-04
258 1 2.000e-01 2.000e-01 2.000e-01 -1.632e-04 8.776e-04 1.281e-03
259 1 2.000e-01 2.000e-01 0.000e+00 -6.155e-04 -7.325e-04 -4.980e-04
260 1 -2.000e-01 2.000e-01 0.000e+00 -1.104e-03 1.165e-03 -8.508e-04
261 1 -2.000e-01 -2.000e-01 2.000e-01 -1.374e-03 -4.746e-05 1.134e-03
262 1 0.000e+00 -2.000e-01 0.000e+00 -9.747e-04 1.302e-03 -2.659e-04
263 1 -2.000e-01 -2.000e-01 0.000e+00 -6.942e-04 -1.058e-03 -2.434e-03
264 1 0.000e+00 -2.000e-01 2.000e-01 -2.055e-03 2.592e-04 -1.874e-03
265 1 0.000e+00 4.000e-01 0.000e+00 -2.371e-03 1.960e-04 -5.969e-04
266 1 0.000e+00 2.000e-01 0.000e+00 -1.632e-04 1.868e-03 -7.660e-04
267 1 -2.000e-01 0.000e+00 0.000e+00 -2.751e-04 9.241e-04 -3.292e-05
268 1 0.000e+00 -4.000e-01 0.000e+00 6.523e-06 -2.755e-03 -3.302e-04
269 1 2.000e-01 0.000e+00 0.000e+00 -7.494e-04 2.254e-04 -8.824e-04
270 1 0.000e+00 -2.000e-01 -2.000e-01 7.207e-04 5.023e-04 -1.214e-03
271 1 2.000e-01 0.000e+00 -2.000e-01 -1.119e-03 -1.116e-03 -1.253e-03
272 1 0.000e+00 2.000e-01 2.000e-01 2.170e-03 -1.293e-03 -1.726e-04
273 1 -2.000e-01 -2.000e-01 -2.000e-01 -9.107e-06 -2.082e-03 1.318e-04
274 1 -2.000e-01 0.000e+00 -2.000e-01 -4.736e-04 -1.863e-03 1.893e-03
275 1 0.000e+00 0.000e+00 0.000e+00 2.162e-04 -1.614e-03 2.001e-01
276 1 -2.000e-01 2.000e-01 2.000e-01 1.030e-03 -1.512e-03 5.876e-04
277 1 4.000e-01 0.000e+00 0.000e+00 -9.218e-04 -5.394e-04 6.557e-04
278 1 0.000e+00 2.000e-01 -2.000e-01 -3.520e-04 6.529e-04 1.267e-03
279 1 0.000e+00 0.000e+00 -4.000e-01 -9.570e-04 -7.065e-04 -1.236e-03
280 1 -2.000e-01 2.000e-01 -2.000e-01 6.313e-04 3.165e-04 -7.814e-04
281 1 0.000e+00 0.000e+00 -2.000e-01 1.664e-03 -2.931e-03 -1.021e-03
282 1 -2.000e-01 0.000e+00 2.000e-01 2.301e-04 2.040e-03 4.778e-04
283 1 2.000e-01 -2.000e-01 2.000e-01 -9.798e-04 -5.645e-04 8.636e-05
284 1 2.000e-01 0.000e+00 2.000e-01 -7.170e-04 2.248e-04 -8.732e-04
285 1 2.000e-01 -2.000e-01 0.000e+00 5.880e-05 1.793e-03 -5.649e-04
286 1 0.000e+00 0.000e+00 4.000e-01 6.216e-04 -1.032e-03 3.410e-04
287 1 2.000e-01 -2.000e-01 -2.000e-01 -1.288e-03 1.241e-04 6.118e-04
288 1 -4.000e-01 0.000e+00 0.000e+00 -1.702e-03 8.879e-04 1.626e-03
ITEM: TIMESTEP
0
ITEM: NUMBER OF ATOMS
32
ITEM: BOX BOUNDS xy xz yz pp pp pp
                     -5.00000000000000e-01 5.00000000000000e-01 0.00000000000000e+00
-5.00000000000000e-01	5.00000000000000e-01	0.00000000000000e+00
-5.00000000000000e-01	5.00000000000000e-01	0.00000000000000e+00
ITEM: ATOMS id type x y z DisplacementX DisplacementY DisplacementZ
289 1 0.000e+00 2.000e-01 -2.000e-01 -7.995e-04 -3.616e-04 2.500e-03
290 1 -2.000e-01 0.000e+00 0.000e+00 -9.035e-06 5.401e-04 6.182e-04
291 1 0.000e+00 -2.000e-01 0.000e+00 -8.931e-04 6.614e-04 3.307e-04
292 1 2.000e-01 -2.000e-01 -2.000e-01 -1.555e-04 3.016e-04 9.381e-04
293 1 0.000e+00 -2.000e-01 -2.000e-01 6.597e-04 -8.133e-04 -1.661e-04
294 1 2.000e-01 -2.000e-01 0.000e+00 4.614e-04 1.928e-05 8.032e-04
295 1 2.000e-01 2.000e-01 -2.000e-01 1.035e-03 3.302e-06 1.557e-03
296 1 0.000e+00 0.000e+00 -2.000e-01 -5.904e-04 -7.275e-04 6.691e-04
297 1 -2.000e-01 0.000e+00 2.000e-01 1.412e-03 1.336e-03 -8.782e-04
298 1 2.000e-01 2.000e-01 0.000e+00 1.646e-04 -7.746e-04 -6.997e-04
299 1 -2.000e-01 2.000e-01 -2.000e-01 1.164e-03 -2.785e-04 -6.123e-04
300 1 0.000e+00 0.000e+00 -4.000e-01 1.506e-03 1.678e-03 -7.879e-04
301 1 2.000e-01 0.000e+00 -2.000e-01 -4.639e-04 1.841e-04 -4.449e-04
302 1 0.000e+00 2.000e-01 0.000e+00 2.033e-04 -2.122e-03 -7.186e-06
303 1 0.000e+00 0.000e+00 4.000e-01 -7.403e-04 -1.234e-04 -6.539e-04
304 1 0.000e+00 4.000e-01 0.000e+00 2.864e-04 1.211e-03 5.468e-04
305 1 -2.000e-01 -2.000e-01 0.000e+00 -1.312e-03 -1.494e-03 -4.001e-04
306 1 -4.000e-01 0.000e+00 0.000e+00 7.053e-04 -5.873e-04 1.346e-04
307 1 -2.000e-01 2.000e-01 0.000e+00 7.070e-04 3.518e-04 5.700e-04
308 1 2.000e-01 -2.000e-01 2.000e-01 2.147e-03 -4.038e-04 1.257e-03
309 1 0.000e+00 0.000e+00 0.000e+00 2.004e-01 2.501e-04 1.223e-03
310 1 0.000e+00 0.000e+00 2.000e-01 -2.494e-03 -8.897e-04 5.449e-04
311 1 4.000e-01 0.000e+00 0.000e+00 -3.934e-04 -1.843e-03 2.331e-03
312 1 -2.000e-01 -2.000e-01 -2.000e-01 -3.519e-04 2.444e-05 -1.948e-04
313 1 0.000e+00 2.000e-01 2.000e-01 1.034e-03 1.196e-05 3.215e-04
314 1 0.000e+00 -2.000e-01 2.000e-01 -1.408e-04 -3.263e-04 9.310e-04
315 1 -2.000e-01 2.000e-01 2.000e-01 -8.052e-04 5.112e-04 -6.667e-04
316 1 2.000e-01 0.000e+00 2.000e-01 -5.751e-04 5.682e-04 -3.420e-04
317 1 0.000e+00 -4.000e-01 0.000e+00 -3.855e-04 -5.004e-04 -2.265e-05
318 1 2.000e-01 2.000e-01 2.000e-01 -6.696e-04 -1.558e-03 -3.938e-04
319 1 -2.000e-01 -2.000e-01 2.000e-01 1.579e-05 1.960e-03 7.639e-05
320 1 -2.000e-01 0.000e+00 -2.000e-01 1.732e-03 9.947e-04 6.968e-04
ITEM: TIMESTEP
0
ITEM: NUMBER OF ATOMS
32
ITEM: BOX BOUNDS xy xz yz pp pp pp
                     -5.00000000000000e-01 5.00000000000000e-01 0.00000000000000e+00
-5.00000000000000e-01	5.00000000000000e-01	0.00000000000000e+00
-5.00000000000000e-01	5.00000000000000e-01	0.00000000000000e+00
ITEM: ATOMS id type x y z DisplacementX DisplacementY DisplacementZ
321 1 0.000e+00 -2.000e-01 2.000e-01 -8.315e-04 -8.895e-04 4.492e-05
322 1 2.000e-01 -2.000e-01 0.000e+00 -9.312e-04 -4.787e-04 1.265e-03
323 1 0.000e+00 2.000e-01 0.000e+00 9.546e-04 2.584e-04 6.937e-04
324 1 0.000e+00 2.000e-01 -2.000e-01 -1.334e-03 1.470e-03 -9.798e-04
325 1 4.000e-01 0.000e+00 0.000e+00 -9.654e-04 -2.348e-05 -7.007e-04
326 1 -2.000e-01 -2.000e-01 -2.000e-01 1.648e-03 -2.486e-05 -1.895e-03
327 1 2.000e-01 2.000e-01 0.000e+00 8.607e-04 4.630e-04 -8.780e-04
328 1 0.000e+00 -4.000e-01 0.000e+00 -1.429e-04 2.971e-05 -6.219e-05
329 1 -2.000e-01 -2.000e-01 0.000e+00 7.403e-04 6.791e-04 6.910e-04
330 1 2.000e-01 2.000e-01 -2.000e-01 1.438e-03 3.427e-04 -8.135e-04
331 1 -2.000e-01 2.000e-01 -2.000e-01 2.186e-04 -9.100e-04 2.834e-04
332 1 0.000e+00 0.000e+00 2.000e-01 -6.642e-04 2.313e-04 1.474e-03
333 1 0.000e+00 0.000e+00 4.000e-01 -4.704e-05 1.236e-04 5.974e-04
334 1 0.000e+00 0.000e+00 -2.000e-01 -2.210e-04 4.266e-05 -8.337e-05
335 1 0.000e+00 0.000e+00 -4.000e-01 1.613e-03 1.626e-04 1.427e-03
336 1 -2.000e-01 2.000e-01 0.000e+00 -1.194e-04 -1.640e-03 5.685e-04
337 1 -2.000e-01 0.000e+00 -2.000e-01 -1.391e-03 6.621e-04 1.139e-03
338 1 2.000e-01 0.000e+00 -2.000e-01 1.354e-03 -2.035e-04 3.093e-04
339 1 0.000e+00 2.000e-01 2.000e-01 5.312e-04 3.776e-04 -8.567e-04
340 1 2.000e-01 0.000e+00 0.000e+00 1.045e-03 6.240e-04 -7.940e-04
341 1 2.000e-01 -2.000e-01 2.000e-01 5.215e-05 -1.791e-04 3.522e-04
342 1 -2.000e-01 -2.000e-01 2.000e-01 -8.152e-04 2.675e-04 7.738e-04
343 1 -4.000e-01 0.000e+00 0.000e+00 -5.620e-04 1.066e-03 1.755e-04
344 1 0.000e+00 -2.000e-01 0.000e+00 1.923e-05 1.980e-04 8.226e-04
345 1 0.000e+00 0.000e+00 0.000e+00 -1.981e-01 1.904e-04 2.514e-05
346 1 0.000e+00 -2.000e-01 -2.000e-01 6.640e-04 -9.864e-04 -5.753e-04
347 1 0.000e+00 4.000e-01 0.000e+00 -8.452e-05 4.398e-05 -7.395e-04
348 1 2.000e-01 0.000e+00 2.000e-01 -1.372e-03 1.573e-03 8.278e-04
349 1 -2.000e-01 0.000e+00 2.000e-01 -4.916e-04 1.970e-03 -3.098e-04
350 1 2.000e-01 -2.000e-01 -2.000e-01 5.632e-04 -5.023e-04 -1.192e-03
351 1 2.000e-01 2.000e-01 2.000e-01 -6.544e-06 -6.981e-05 -1.035e-03
352 1 -2.000e-01 2.000e-01 2.000e-01 -2.484e-04 3.223e-04 9.875e-04
ITEM: TIMESTEP
0
ITEM: NUMBER OF ATOMS
32
ITEM: BOX BOUNDS xy xz yz pp pp pp
                     -5.00000000000000e-01 5.00000000000000e-01 0.00000000000000e+00
-5.00000000000000e-01	5.00000000000000e-01	0.00000000000000e+00
-5.00000000000000e-01	5.00000000000000e-01	0.00000000000000e+00
ITEM: ATOMS id type x y z DisplacementX DisplacementY DisplacementZ
353 1 2.000e-01 -2.000e-01 0.000e+00 5.988e-04 -1.052e-03 1.997e-04
354 1 2.000e-01 2.000e-01 -2.000e-01 2.609e-03 8.063e-04 -5.205e-04
355 1 -2.000e-01 -2.000e-01 -2.000e-01 1.874e-03 1.015e-03 -1.844e-03
356 1 0.000e+00 -2.000e-01 -2.000e-01 1.368e-03 8.137e-04 -5.637e-04
357 1 2.000e-01 0.000e+00 0.000e+00 8.815e-04 9.822e-04 8.358e-04
358 1 2.000e-01 0.000e+00 2.000e-01 -1.658e-05 -6.335e-04 2.669e-04
359 1 -2.000e-01 -2.000e-01 2.000e-01 6.993e-04 1.245e-03 -5.566e-04
360 1 -2.000e-01 2.000e-01 2.000e-01 -1.258e-03 2.545e-05 1.038e-03
361 1 -4.000e-01 0.000e+00 0.000e+00 9.914e-04 6.397e-05 -8.847e-05
362 1 0.000e+00 2.000e-01 -2.000e-01 -1.088e-03 -3.857e-04 6.169e-04
363 1 2.000e-01 -2.000e-01 2.000e-01 -1.333e-04 -1.526e-03 -8.389e-04
364 1 2.000e-01 2.000e-01 2.000e-01 -5.281e-04 -8.223e-04 1.866e-03
365 1 0.000e+00 4.000e-01 0.000e+00 1.366e-03 1.199e-03 1.743e-04
366 1 0.000e+00 0.000e+00 -4.000e-01 3.336e-04 -7.613e-04 -1.776e-03
367 1 -2.000e-01 2.000e-01 -2.000e-01 1.014e-03 -1.307e-03 1.202e-03
368 1 -2.000e-01 0.000e+00 2.000e-01 7.249e-04 -1.062e-03 -4.125e-04
369 1 0.000e+00 0.000e+00 2.000e-01 1.242e-04 4.631e-04 -2.899e-03
370 1 2.000e-01 2.000e-01 0.000e+00 4.608e-04 4.179e-04 -1.356e-04
371 1 0.000e+00 0.000e+00 4.000e-01 -8.980e-04 1.231e-03 -9.983e-04
372 1 0.000e+00 -2.000e-01 0.000e+00 1.123e-03 1.354e-03 2.363e-03
373 1 0.000e+00 -2.000e-01 2.000e-01 -8.809e-04 5.268e-05 -5.940e-04
374 1 -2.000e-01 0.000e+00 -2.000e-01 2.294e-05 -1.284e-04 -1.170e-03
375 1 -2.000e-01 0.000e+00 0.000e+00 -7.466e-04 4.495e-04 -7.486e-04
376 1 2.000e-01 -2.000e-01 -2.000e-01 -2.234e-05 -2.091e-03 1.992e-04