ITEM: TIMESTEP
0
ITEM: NUMBER OF ATOMS
99
ITEM: BOX BOUNDS xy xz yz pp pp pp
                     -5.00000000000000e-01 5.00000000000000e-01 0.00000000000000e+00
-5.00000000000000e-01	5.00000000000000e-01	0.00000000000000e+00
-5.00000000000000e-01	5.00000000000000e-01	0.00000000000000e+00
ITEM: ATOMS id type x y z DisplacementX DisplacementY DisplacementZ
1 1 3.000e-01 4.000e-01 0.000e+00 -1.044e-03 -9.340e-04 -3.033e-04
2 1 5.000e-01 2.000e-01 0.000e+00 4.671e-04 -7.527e-04 1.270e-03
3 1 1.000e-01 4.000e-01 0.000e+00 -1.900e-03 7.878e-04 1.858e-04
4 1 2.000e-01 -4.000e-01 0.000e+00 -1.089e-03 2.171e-03 -5.590e-04
5 1 4.000e-01 5.000e-01 0.000e+00 1.324e-03 2.797e-03 -4.604e-04
6 1 5.000e-01 4.000e-01 0.000e+00 8.745e-04 -1.121e-03 1.038e-03
7 1 -1.000e-01 1.000e-01 0.000e+00 6.909e-04 1.560e-03 1.433e-03
8 1 4.000e-01 -2.000e-01 0.000e+00 2.144e-05 2.323e-04 -2.720e-03
9 1 0.000e+00 0.000e+00 0.000e+00 6.215e-04 -1.014e-01 3.249e-04
10 1 0.000e+00 2.000e-01 0.000e+00 -5.508e-04 6.190e-04 -2.003e-04
11 1 3.000e-01 0.000e+00 0.000e+00 -5.481e-04 3.607e-04 7.191e-04
12 1 3.000e-01 -4.000e-01 0.000e+00 -3.492e-04 1.638e-06 6.417e-04
13 1 -3.000e-01 -4.000e-01 0.000e+00 -7.224e-04 -3.847e-04 5.123e-04
14 1 4.000e-01 -1.000e-01 0.000e+00 -1.750e-03 -7.068e-05 -5.954e-04
15 1 -2.000e-01 1.000e-01 0.000e+00 1.253e-03 -1.747e-03 -1.616e-03
16 1 4.000e-01 -4.000e-01 0.000e+00 -1.452e-03 7.061e-04 5.041e-04
17 1 3.000e-01 -2.000e-01 0.000e+00 1.219e-04 -8.437e-04 -1.366e-04
18 1 5.000e-01 -3.000e-01 0.000e+00 6.522e-04 8.458e-04 -3.011e-04
19 1 -2.000e-01 4.000e-01 0.000e+00 4.456e-04 2.349e-04 8.101e-04
20 1 -2.000e-01 0.000e+00 0.000e+00 -4.305e-04 3.767e-04 4.600e-04
21 1 -1.000e-01 3.000e-01 0.000e+00 4.540e-04 1.095e-03 -7.337e-04
22 1 5.000e-01 -1.000e-01 0.000e+00 -1.415e-03 2.467e-03 -7.109e-04
23 1 5.000e-01 5.000e-01 0.000e+00 -1.332e-03 1.878e-03 5.605e-04
24 1 4.000e-01 3.000e-01 0.000e+00 1.569e-03 5.765e-04 -1.699e-03
25 1 1.000e-01 3.000e-01 0.000e+00 1.083e-03 2.490e-04 -1.028e-03
26 1 3.000e-01 3.000e-01 0.000e+00 1.060e-03 3.672e-04 -8.572e-04
27 1 -3.000e-01 -3.000e-01 0.000e+00 1.100e-03 -1.358e-03 1.483e-03
28 1 0.000e+00 5.000e-01 0.000e+00 4.783e-05 -6.324e-04 7.792e-04
29 1 -2.000e-01 -1.000e-01 0.000e+00 -1.264e-03 -6.603e-04 -7.895e-05
30 1 -4.000e-01 5.000e-01 0.000e+00 -2.784e-03 -1.569e-03 2.029e-03
31 1 3.000e-01 1.000e-01 0.000e+00 1.293e-03 4.285e-04 -2.861e-04
32 1 2.000e-01 -2.000e-01 0.000e+00 1.758e-03 5.542e-05 1.075e-03
33 1 2.000e-01 0.000e+00 0.000e+00 1.490e-03 -1.991e-04 1.587e-04
34 1 -4.000e-01 -3.000e-01 0.000e+00 4.328e-04 -6.532e-04 -1.963e-03
35 1 -1.000e-01 4.000e-01 0.000e+00 -5.695e-04 2.990e-04 4.322e-04
36 1 -3.000e-01 -2.000e-01 0.000e+00 4.731e-04 6.458e-04 -2.999e-03
37 1 -1.000e-01 -2.000e-01 0.000e+00 -1.103e-03 -1.137e-03 -9.163e-04
38 1 4.000e-01 1.000e-01 0.000e+00 5.453e-04 -1.223e-03 -8.914e-04
39 1 0.000e+00 1.000e-01 0.000e+00 1.938e-03 8.531e-05 -2.963e-04
40 1 4.000e-01 4.000e-01 0.000e+00 -1.388e-03 -5.599e-04 -2.203e-04
41 1 4.000e-01 -3.000e-01 0.000e+00 3.586e-04 -4.039e-04 -1.056e-03
42 1 2.000e-01 2.000e-01 0.000e+00 6.003e-04 1.250e-04 3.070e-04
43 1 -3.000e-01 1.000e-01 0.000e+00 9.765e-04 -2.410e-03 1.570e-03
44 1 2.000e-01 -3.000e-01 0.000e+00 -5.203e-04 -7.944e-04 -2.425e-04
45 1 3.000e-01 5.000e-01 0.000e+00 8.004e-04 3.784e-04 -1.425e-03
46 1 -2.000e-01 5.000e-01 0.000e+00 1.938e-03 -6.000e-04 3.050e-04
47 1 2.000e-01 3.000e-01 0.000e+00 5.565e-04 -9.296e-04 -3.504e-04
48 1 -2.000e-01 3.000e-01 0.000e+00 -1.537e-03 -1.298e-04 7.315e-04
49 1 1.000e-01 0.000e+00 0.000e+00 -1.483e-03 2.793e-04 -9.184e-04
50 1 5.000e-01 -4.000e-01 0.000e+00 -5.623e-04 -1.190e-03 2.166e-04
51 1 3.000e-01 -1.000e-01 0.000e+00 -1.696e-04 8.573e-04 5.398e-04
52 1 -2.000e-01 2.000e-01 0.000e+00 -2.357e-03 1.358e-03 1.220e-03
53 1 -1.000e-01 5.000e-01 0.000e+00 2.076e-04 6.588e-04 9.635e-04
54 1 1.000e-01 -4.000e-01 0.000e+00 8.075e-05 1.724e-04 -5.677e-04
55 1 1.000e-01 2.000e-01 0.000e+00 6.616e-05 3.144e-04 -1.359e-03
56 1 0.000e+00 -2.000e-01 0.000e+00 2.195e-03 2.933e-04 2.265e-03
57 1 -1.000e-01 -1.000e-01 0.000e+00 8.246e-04 5.509e-04 -1.504e-03
58 1 3.000e-01 -3.000e-01 0.000e+00 -5.620e-05 -1.928e-04 7.885e-04
59 1 0.000e+00 -4.000e-01 0.000e+00 -1.071e-03 1.630e-03 1.285e-03
60 1 5.000e-01 1.000e-01 0.000e+00 9.852e-04 -7.059e-04 -4.569e-04
61 1 2.000e-01 -1.000e-01 0.000e+00 7.385e-04 -8.203e-04 3.337e-04
62 1 -4.000e-01 4.000e-01 0.000e+00 1.253e-03 -3.343e-04 -8.013e-04
63 1 -4.000e-01 -1.000e-01 0.000e+00 -1.634e-03 -6.158e-04 -4.636e-04
64 1 0.000e+00 3.000e-01 0.000e+00 -1.697e-05 8.679e-04 1.768e-03
65 1 -1.000e-01 0.000e+00 0.000e+00 -8.689e-04 2.106e-03 3.730e-04
66 1 1.000e-01 -3.000e-01 0.000e+00 -1.201e-03 5.518e-04 -1.990e-04
67 1 1.000e-01 1.000e-01 0.000e+00 1.943e-04 1.760e-05 9.707e-05
68 1 1.000e-01 -2.000e-01 0.000e+00 -1.241e-03 4.354e-04 1.208e-03
69 1 -3.000e-01 2.000e-01 0.000e+00 8.881e-04 -1.454e-03 -3.753e-04
70 1 1.000e-01 -1.000e-01 0.000e+00 -1.706e-04 1.246e-03 -4.916e-04
71 1 -3.000e-01 0.000e+00 0.000e+00 9.415e-04 1.160e-03 -9.230e-04
72 1 1.000e-01 5.000e-01 0.000e+00 2.757e-04 -1.461e-03 2.324e-03
73 1 -4.000e-01 -2.000e-01 0.000e+00 -3.595e-04 1.276e-04 -1.168e-03
74 1 -2.000e-01 -2.000e-01 0.000e+00 1.000e-03 -4.889e-04 -7.753e-04
75 1 -3.000e-01 4.000e-01 0.000e+00 -3.602e-04 -1.699e-03 3.409e-04
76 1 -1.000e-01 -4.000e-01 0.000e+00 -3.504e-04 -8.346e-04 8.952e-04
77 1 -3.000e-01 3.000e-01 0.000e+00 1.375e-03 -1.224e-03 3.755e-05
78 1 -4.000e-01 1.000e-01 0.000e+00 4.551e-04 9.391e-04 9.910e-04
79 1 -1.000e-01 -3.000e-01 0.000e+00 1.912e-04 -1.350e-03 -6.490e-05
80 1 -1.000e-01 2.000e-01 0.000e+00 6.734e-04 -1.211e-03 -1.152e-03
81 1 4.000e-01 0.000e+00 0.000e+00 -1.769e-03 -9.888e-04 8.690e-06
82 1 -2.000e-01 -3.000e-01 0.000e+00 1.334e-03 -1.187e-03 -3.595e-04
83 1 -4.000e-01 -4.000e-01 0.000e+00 5.548e-05 2.865e-04 4.314e-04
84 1 2.000e-01 4.000e-01 0.000e+00 -5.690e-04 -1.380e-03 1.315e-04
85 1 3.000e-01 2.000e-01 0.000e+00 1.211e-03 -5.159e-04 -2.606e-04
86 1 -3.000e-01 -1.000e-01 0.000e+00 -9.387e-05 -1.530e-03 1.048e-03
87 1 4.000e-01 2.000e-01 0.000e+00 -2.344e-03 7.434e-05 -7.066e-04
88 1 2.000e-01 5.000e-01 0.000e+00 -5.711e-04 -9.695e-04 -5.586e-04
89 1 5.000e-01 3.000e-01 0.000e+00 -6.955e-05 1.039e-05 -1.061e-04
90 1 0.000e+00 -3.000e-01 0.000e+00 9.398e-04 4.181e-04 1.042e-03
91 1 -4.000e-01 3.000e-01 0.000e+00 6.469e-04 9.725e-05 8.220e-05
92 1 5.000e-01 -2.000e-01 0.000e+00 7.521e-04 2.415e-03 -9.116e-04
93 1 0.000e+00 4.000e-01 0.000e+00 3.641e-04 -1.554e-03 -2.638e-04
94 1 -3.000e-01 5.000e-01 0.000e+00 1.141e-03 9.145e-04 -2.358e-03
95 1 -2.000e-01 -4.000e-01 0.000e+00 -7.615e-04 1.423e-04 1.499e-03
96 1 -4.000e-01 2.000e-01 0.000e+00 -3.726e-04 2.414e-03 -2.100e-03
97 1 2.000e-01 1.000e-01 0.000e+00 1.617e-05 -1.810e-04 -2.447e-04
98 1 5.000e-01 0.000e+00 0.000e+00 -3.297e-04 9.139e-04 -1.532e-03
99 1 -4.000e-01 0.000e+00 0.000e+00 5.364e-04 8.774e-04 -1.873e-03
