ITEM: TIMESTEP
0
ITEM: NUMBER OF ATOMS
8
ITEM: BOX BOUNDS xy xz yz pp pp pp
                     -5.00000000000000e-01 5.00000000000000e-01 0.00000000000000e+00
-5.00000000000000e-01	5.00000000000000e-01	0.00000000000000e+00
-5.00000000000000e-01	5.00000000000000e-01	0.00000000000000e+00
ITEM: ATOMS id type x y z DisplacementX DisplacementY DisplacementZ
1 1 0.000e+00 0.000e+00 0.000e+00 -1.014e-01 3.249e-04 -1.166e-03
2 1 -1.000e-01 -1.000e-01 0.000e+00 -1.700e-03 1.725e-03 1.057e-04
3 1 -1.000e-01 1.000e-01 0.000e+00 -8.188e-04 1.117e-03 2.956e-04
4 1 1.000e-01 -1.000e-01 0.000e+00 -3.708e-04 1.464e-03 -4.434e-04
5 1 1.000e-01 1.000e-01 0.000e+00 2.029e-03 1.581e-03 1.661e-03
6 1 0.000e+00 -1.000e-01 0.000e+00 -2.152e-05 8.320e-04 -8.473e-05
7 1 0.000e+00 1.000e-01 0.000e+00 6.799e-04 -1.336e-03 3.337e-04
8 1 1.000e-01 0.000e+00 0.000e+00 3.055e-04 5.073e-04 -3.542e-04
ITEM: TIMESTEP
0
ITEM: NUMBER OF ATOMS
8
ITEM: BOX BOUNDS xy xz yz pp pp pp
                     -5.00000000000000e-01 5.00000000000000e-01 0.00000000000000e+00
-5.00000000000000e-01	5.00000000000000e-01	0.00000000000000e+00
-5.00000000000000e-01	5.00000000000000e-01	0.00000000000000e+00
ITEM: ATOMS id type x y z DisplacementX DisplacementY DisplacementZ
9 1 1.000e-01 1.000e-01 0.000e+00 -9.786e-05 2.172e-03 7.396e-04
10 1 0.000e+00 0.000e+00 0.000e+00 -3.139e-04 9.822e-02 1.316e-03
11 1 1.000e-01 -1.000e-01 0.000e+00 3.980e-04 8.948e-05 -9.147e-04
12 1 -1.000e-01 -1.000e-01 0.000e+00 2.903e-04 -1.209e-03 3.794e-04
13 1 0.000e+00 -1.000e-01 0.000e+00 2.147e-04 1.043e-03 3.899e-04
14 1 1.000e-01 0.000e+00 0.000e+00 5.546e-04 1.052e-03 1.620e-03
15 1 -1.000e-01 1.000e-01 0.000e+00 9.548e-04 -7.714e-05 1.148e-03
16 1 -1.000e-01 0.000e+00 0.000e+00 9.273e-04 4.005e-04 9.704e-04
