ITEM: TIMESTEP
0
ITEM: NUMBER OF ATOMS
99
ITEM: BOX BOUNDS xy xz yz pp pp pp
                     -5.00000000000000e-01 5.00000000000000e-01 0.00000000000000e+00
-5.00000000000000e-01	5.00000000000000e-01	0.00000000000000e+00
-5.00000000000000e-01	5.00000000000000e-01	0.00000000000000e+00
ITEM: ATOMS id type x y z DisplacementX DisplacementY DisplacementZ
1 1 -4.000e-01 0.000e+00 0.000e+00 1.019e-03 5.036e-04 -5.750e-04
2 1 4.000e-01 -2.000e-01 0.000e+00 4.912e-04 8.631e-04 -4.155e-04
3 1 2.000e-01 -5.000e-01 0.000e+00 -6.289e-04 -3.078e-04 -1.308e-04
4 1 -3.000e-01 4.000e-01 0.000e+00 1.540e-03 2.330e-04 1.986e-03
5 1 0.000e+00 3.000e-01 0.000e+00 1.806e-03 -6.587e-04 1.183e-03
6 1 -3.000e-01 -2.000e-01 0.000e+00 9.849e-04 -6.497e-04 8.267e-04
7 1 5.000e-01 1.000e-01 0.000e+00 2.337e-04 7.364e-04 5.833e-04
8 1 5.000e-01 -3.000e-01 0.000e+00 2.497e-03 1.498e-03 6.685e-04
9 1 1.000e-01 3.000e-01 0.000e+00 -9.769e-04 -2.119e-03 -4.108e-04
10 1 0.000e+00 4.000e-01 0.000e+00 9.546e-04 -2.213e-03 9.134e-04
11 1 0.000e+00 -1.000e-01 0.000e+00 1.437e-03 1.771e-03 -5.138e-04
12 1 5.000e-01 4.000e-01 0.000e+00 -2.502e-03 -4.976e-04 -1.362e-03
13 1 -1.000e-01 -4.000e-01 0.000e+00 2.494e-04 -1.376e-03 -6.162e-04
14 1 3.000e-01 1.000e-01 0.000e+00 1.175e-03 5.571e-04 1.037e-03
15 1 -3.000e-01 2.000e-01 0.000e+00 -8.868e-04 3.040e-04 1.711e-04
16 1 3.000e-01 -4.000e-01 0.000e+00 4.599e-04 -5.211e-04 9.371e-04
17 1 -4.000e-01 -4.000e-01 0.000e+00 2.354e-04 -6.077e-04 -1.126e-03
18 1 0.000e+00 0.000e+00 0.000e+00 -9.951e-02 -2.720e-05 1.033e-03
19 1 5.000e-01 -1.000e-01 0.000e+00 -6.651e-04 8.423e-04 7.045e-04
20 1 3.000e-01 -1.000e-01 0.000e+00 -2.745e-05 -5.060e-04 -1.182e-03
21 1 4.000e-01 2.000e-01 0.000e+00 -1.085e-03 -1.307e-04 -1.317e-03
22 1 0.000e+00 -2.000e-01 0.000e+00 2.134e-04 1.969e-04 1.925e-03
23 1 3.000e-01 -3.000e-01 0.000e+00 -1.023e-03 5.986e-04 -1.691e-03
24 1 1.000e-01 -1.000e-01 0.000e+00 1.537e-03 4.064e-04 -1.227e-03
25 1 2.000e-01 1.000e-01 0.000e+00 2.311e-04 -1.467e-03 -6.598e-04
26 1 -2.000e-01 -1.000e-01 0.000e+00 -1.042e-03 5.678e-04 -4.524e-04
27 1 -2.000e-01 -4.000e-01 0.000e+00 -1.275e-03 1.439e-03 4.826e-04
28 1 -1.000e-01 -2.000e-01 0.000e+00 1.051e-03 -5.637e-04 4.583e-04
29 1 5.000e-01 3.000e-01 0.000e+00 9.630e-04 1.641e-03 -1.053e-03
30 1 4.000e-01 -3.000e-01 0.000e+00 1.744e-03 1.253e-03 -8.927e-04
31 1 -4.000e-01 4.000e-01 0.000e+00 -2.051e-04 -7.702e-04 9.186e-04
32 1 0.000e+00 -4.000e-01 0.000e+00 2.947e-04 -2.242e-04 -1.126e-03
33 1 -4.000e-01 -3.000e-01 0.000e+00 -6.709e-04 -9.098e-04 2.699e-04
34 1 -3.000e-01 3.000e-01 0.000e+00 -1.395e-03 2.456e-03 2.264e-03
35 1 4.000e-01 1.000e-01 0.000e+00 -1.730e-03 1.124e-03 1.486e-03
36 1 0.000e+00 2.000e-01 0.000e+00 -1.650e-03 7.892e-04 1.354e-03
37 1 1.000e-01 -3.000e-01 0.000e+00 -1.076e-03 -1.267e-03 7.656e-04
38 1 -1.000e-01 -3.000e-01 0.000e+00 -2.200e-03 -1.399e-03 7.682e-04
39 1 2.000e-01 2.000e-01 0.000e+00 -3.329e-04 6.869e-04 4.896e-04
40 1 1.000e-01 1.000e-01 0.000e+00 6.352e-04 7.457e-04 -1.462e-04
41 1 4.000e-01 3.000e-01 0.000e+00 3.249e-04 -6.947e-04 8.321e-04
42 1 1.000e-01 -4.000e-01 0.000e+00 -5.507e-04 -6.040e-05 2.136e-03
43 1 5.000e-01 2.000e-01 0.000e+00 -1.452e-03 1.014e-03 -3.818e-04
44 1 4.000e-01 -5.000e-01 0.000e+00 -1.101e-03 -3.151e-04 -1.168e-03
45 1 3.000e-01 0.000e+00 0.000e+00 1.168e-03 -2.132e-03 -4.646e-05
46 1 2.000e-01 3.000e-01 0.000e+00 6.755e-05 -1.286e-03 2.315e-03
47 1 -1.000e-01 2.000e-01 0.000e+00 -1.580e-04 -1.897e-03 9.622e-04
48 1 1.000e-01 0.000e+00 0.000e+00 9.439e-05 1.127e-04 -1.330e-03
49 1 -2.000e-01 -5.000e-01 0.000e+00 -2.040e-03 -7.608e-04 -5.467e-04
50 1 2.000e-01 4.000e-01 0.000e+00 9.076e-04 -7.772e-04 -1.298e-03
51 1 -1.000e-01 -5.000e-01 0.000e+00 1.362e-03 1.226e-03 -9.239e-06
52 1 -3.000e-01 -1.000e-01 0.000e+00 4.005e-04 -1.795e-04 -6.130e-04
53 1 -2.000e-01 3.000e-01 0.000e+00 6.652e-04 1.025e-03 1.555e-03
54 1 4.000e-01 -1.000e-01 0.000e+00 6.206e-04 3.530e-04 -1.379e-03
55 1 5.000e-01 -2.000e-01 0.000e+00 -1.461e-03 -1.194e-03 -4.043e-04
56 1 2.000e-01 0.000e+00 0.000e+00 1.278e-05 5.250e-04 1.706e-06
57 1 2.000e-01 -4.000e-01 0.000e+00 -8.690e-04 1.294e-03 7.206e-04
58 1 -2.000e-01 -3.000e-01 0.000e+00 -2.738e-04 -5.857e-04 2.584e-04
59 1 -3.000e-01 -3.000e-01 0.000e+00 -1.810e-03 3.631e-04 9.228e-05
60 1 5.000e-01 -4.000e-01 0.000e+00 -1.073e-03 -3.980e-04 1.191e-04
61 1 5.000e-01 -5.000e-01 0.000e+00 -2.620e-03 1.559e-04 5.631e-04
62 1 1.000e-01 2.000e-01 0.000e+00 -1.519e-03 1.013e-03 5.968e-04
63 1 -4.000e-01 3.000e-01 0.000e+00 -4.585e-04 -4.547e-04 2.790e-04
64 1 -1.000e-01 1.000e-01 0.000e+00 -2.762e-04 -5.740e-04 1.120e-03
65 1 -4.000e-01 2.000e-01 0.000e+00 -1.158e-04 -1.807e-04 2.249e-03
66 1 2.000e-01 -3.000e-01 0.000e+00 5.385e-04 3.148e-04 -1.150e-04
67 1 -4.000e-01 -2.000e-01 0.000e+00 8.147e-04 5.151e-04 -1.047e-04
68 1 -1.000e-01 3.000e-01 0.000e+00 1.631e-03 -1.225e-03 -1.195e-03
69 1 -2.000e-01 2.000e-01 0.000e+00 1.810e-03 3.625e-04 -1.169e-03
70 1 3.000e-01 -5.000e-01 0.000e+00 1.388e-03 1.628e-03 -5.609e-04
71 1 -2.000e-01 0.000e+00 0.000e+00 -4.961e-04 -5.913e-04 1.337e-03
72 1 -2.000e-01 1.000e-01 0.000e+00 -5.509e-04 -7.817e-04 1.455e-03
73 1 -1.000e-01 -1.000e-01 0.000e+00 -4.006e-04 3.054e-04 -8.684e-04
74 1 -4.000e-01 -1.000e-01 0.000e+00 4.656e-05 1.280e-03 -9.185e-04
75 1 3.000e-01 3.000e-01 0.000e+00 -1.356e-03 7.149e-04 -2.053e-03
76 1 -3.000e-01 -5.000e-01 0.000e+00 -4.502e-05 -2.878e-04 2.980e-04
77 1 -3.000e-01 0.000e+00 0.000e+00 -7.352e-04 6.940e-04 5.655e-04
78 1 1.000e-01 4.000e-01 0.000e+00 3.844e-04 -1.982e-03 -3.069e-04
79 1 -4.000e-01 1.000e-01 0.000e+00 7.535e-04 4.058e-04 8.329e-04
80 1 3.000e-01 2.000e-01 0.000e+00 1.098e-04 1.656e-03 -1.333e-03
81 1 1.000e-01 -5.000e-01 0.000e+00 -1.818e-05 -5.570e-04 2.503e-04
82 1 -2.000e-01 4.000e-01 0.000e+00 -5.012e-04 -3.321e-04 -1.972e-04
83 1 -1.000e-01 4.000e-01 0.000e+00 2.017e-03 -3.197e-04 1.722e-03
84 1 5.000e-01 0.000e+00 0.000e+00 -8.244e-04 5.104e-04 -1.897e-03
85 1 2.000e-01 -2.000e-01 0.000e+00 -2.020e-03 -1.598e-03 1.234e-03
86 1 4.000e-01 0.000e+00 0.000e+00 1.296e-03 1.997e-03 9.958e-04
87 1 -2.000e-01 -2.000e-01 0.000e+00 1.264e-04 -1.525e-03 -7.274e-04
88 1 -4.000e-01 -5.000e-01 0.000e+00 -1.109e-03 4.765e-04 -1.214e-03
89 1 4.000e-01 4.000e-01 0.000e+00 -8.316e-04 -4.653e-04 1.031e-03
90 1 4.000e-01 -4.000e-01 0.000e+00 6.478e-04 -2.842e-04 7.574e-04
91 1 -3.000e-01 1.000e-01 0.000e+00 7.812e-04 5.696e-04 -1.175e-03
92 1 3.000e-01 -2.000e-01 0.000e+00 -1.365e-03 -1.259e-03 -1.723e-04
93 1 0.000e+00 -5.000e-01 0.000e+00 -2.180e-03 -9.710e-04 1.306e-03
94 1 0.000e+00 1.000e-01 0.000e+00 -3.171e-04 9.768e-04 4.473e-04
95 1 3.000e-01 4.000e-01 0.000e+00 1.682e-03 1.391e-04 6.163e-04
96 1 1.000e-01 -2.000e-01 0.000e+00 2.784e-04 -1.402e-03 1.097e-04
97 1 0.000e+00 -3.000e-01 0.000e+00 4.559e-04 -4.348e-04 -2.172e-03
98 1 -3.000e-01 -4.000e-01 0.000e+00 7.306e-04 4.023e-04 -4.261e-04
99 1 2.000e-01 -1.000e-01 0.000e+00 6.883e-04 9.413e-04 1.475e-03
ITEM: TIMESTEP
0
ITEM: NUMBER OF ATOMS
99
ITEM: BOX BOUNDS xy xz yz pp pp pp
                     -5.00000000000000e-01 5.00000000000000e-01 0.00000000000000e+00
-5.00000000000000e-01	5.00000000000000e-01	0.00000000000000e+00
-5.00000000000000e-01	5.00000000000000e-01	0.00000000000000e+00
ITEM: ATOMS id type x y z DisplacementX DisplacementY DisplacementZ
100 1 -3.000e-01 -1.000e-01 0.000e+00 6.388e-04 -6.850e-04 -7.896e-04
101 1 5.000e-01 -3.000e-01 0.000e+00 -5.781e-04 -1.363e-03 2.468e-03
102 1 3.000e-01 4.000e-01 0.000e+00 -1.634e-03 1.100e-03 -7.969e-04
103 1 -2.000e-01 3.000e-01 0.000e+00 -1.417e-04 1.431e-03 -6.703e-04
104 1 1.000e-01 2.000e-01 0.000e+00 -7.143e-04 -2.060e-04 -1.782e-03
105 1 -2.000e-01 -3.000e-01 0.000e+00 9.815e-04 -1.827e-03 -1.264e-03
106 1 -4.000e-01 0.000e+00 0.000e+00 1.469e-03 8.709e-05 1.116e-03
107 1 -4.000e-01 -4.000e-01 0.000e+00 -3.786e-04 -5.174e-04 2.230e-03
108 1 2.000e-01 2.000e-01 0.000e+00 -9.302e-04 4.183e-04 6.573e-04
109 1 1.000e-01 3.000e-01 0.000e+00 6.998e-04 2.319e-03 9.801e-06
110 1 1.000e-01 -2.000e-01 0.000e+00 -1.841e-03 -5.811e-04 -8.058e-04
111 1 -4.000e-01 3.000e-01 0.000e+00 2.135e-03 1.041e-03 2.798e-04
112 1 0.000e+00 5.000e-01 0.000e+00 -1.390e-03 -7.056e-04 1.969e-03
113 1 4.000e-01 0.000e+00 0.000e+00 3.114e-04 -8.977e-04 1.290e-03
114 1 -2.000e-01 1.000e-01 0.000e+00 9.538e-04 -1.464e-03 2.704e-04
115 1 4.000e-01 5.000e-01 0.000e+00 5.161e-04 8.076e-04 -4.513e-05
116 1 -3.000e-01 5.000e-01 0.000e+00 -4.308e-04 -8.306e-04 -7.159e-04
117 1 1.000e-01 -1.000e-01 0.000e+00 -3.683e-04 -1.564e-03 2.075e-03
118 1 -4.000e-01 -2.000e-01 0.000e+00 -6.462e-04 7.899e-04 -6.259e-04
119 1 4.000e-01 -2.000e-01 0.000e+00 -1.488e-03 1.155e-03 9.920e-05
120 1 5.000e-01 1.000e-01 0.000e+00 -2.373e-04 -7.232e-04 -5.720e-05
121 1 1.000e-01 -3.000e-01 0.000e+00 1.153e-03 4.145e-05 -1.492e-03
122 1 4.000e-01 -4.000e-01 0.000e+00 5.050e-04 8.459e-06 -1.943e-05
123 1 2.000e-01 -2.000e-01 0.000e+00 1.020e-03 -1.332e-03 -1.377e-04
124 1 3.000e-01 0.000e+00 0.000e+00 1.306e-03 1.053e-03 1.069e-03
125 1 -1.000e-01 -2.000e-01 0.000e+00 -1.179e-03 -5.528e-04 -1.400e-04
126 1 -1.000e-01 5.000e-01 0.000e+00 8.263e-04 6.055e-04 1.567e-03
127 1 0.000e+00 -3.000e-01 0.000e+00 -5.576e-04 1.557e-03 -9.260e-04
128 1 -4.000e-01 2.000e-01 0.000e+00 -1.982e-04 -1.020e-03 -1.420e-03
129 1 5.000e-01 -4.000e-01 0.000e+00 -1.727e-03 1.624e-03 2.262e-04
130 1 -3.000e-01 3.000e-01 0.000e+00 -2.082e-04 6.924e-04 -6.435e-04
131 1 1.000e-01 5.000e-01 0.000e+00 -5.754e-04 -1.308e-03 1.119e-03
132 1 -3.000e-01 -4.000e-01 0.000e+00 -3.493e-04 -1.089e-03 -7.562e-04
133 1 -2.000e-01 2.000e-01 0.000e+00 1.518e-03 -1.334e-04 -2.576e-04
134 1 5.000e-01 0.000e+00 0.000e+00 8.438e-04 1.020e-04 -5.176e-04
135 1 1.000e-01 1.000e-01 0.000e+00 6.310e-04 -8.000e-04 1.639e-03
136 1 2.000e-01 -4.000e-01 0.000e+00 3.926e-04 -5.250e-04 -4.877e-04
137 1 0.000e+00 -4.000e-01 0.000e+00 1.776e-04 -9.787e-04 -2.379e-05
138 1 3.000e-01 1.000e-01 0.000e+00 -1.369e-03 -6.559e-04 -1.072e-03
139 1 2.000e-01 0.000e+00 0.000e+00 -2.318e-04 -1.512e-03 -5.816e-04
140 1 5.000e-01 2.000e-01 0.000e+00 4.925e-04 1.528e-03 9.834e-05
141 1 2.000e-01 5.000e-01 0.000e+00 1.526e-04 -5.120e-04 -7.015e-04
142 1 -4.000e-01 1.000e-01 0.000e+00 1.173e-04 -7.455e-04 -6.236e-04
143 1 5.000e-01 4.000e-01 0.000e+00 -1.505e-03 8.556e-04 -4.374e-04
144 1 4.000e-01 -1.000e-01 0.000e+00 5.091e-04 6.069e-05 -2.586e-04
145 1 3.000e-01 2.000e-01 0.000e+00 1.080e-03 -3.138e-04 1.101e-03
146 1 0.000e+00 1.000e-01 0.000e+00 -4.500e-04 3.833e-04 2.514e-04
147 1 2.000e-01 -1.000e-01 0.000e+00 5.245e-04 3.046e-04 -9.620e-05
148 1 -1.000e-01 4.000e-01 0.000e+00 1.500e-03 -8.762e-05 -9.720e-04
149 1 3.000e-01 3.000e-01 0.000e+00 -3.969e-04 1.334e-03 -1.352e-03
150 1 0.000e+00 4.000e-01 0.000e+00 6.088e-04 3.336e-04 -6.870e-04
151 1 -2.000e-01 -2.000e-01 0.000e+00 2.781e-04 -7.069e-04 7.868e-04
152 1 -1.000e-01 2.000e-01 0.000e+00 -7.611e-04 1.576e-04 -9.912e-04
153 1 5.000e-01 -2.000e-01 0.000e+00 7.353e-05 -6.505e-04 -6.333e-04
154 1 -4.000e-01 -3.000e-01 0.000e+00 -2.336e-03 -9.609e-04 7.651e-04
155 1 3.000e-01 -1.000e-01 0.000e+00 1.729e-03 4.639e-04 1.358e-03
156 1 3.000e-01 5.000e-01 0.000e+00 -1.728e-04 1.462e-03 -1.001e-03
157 1 -1.000e-01 -4.000e-01 0.000e+00 8.162e-04 1.522e-03 -5.657e-04
158 1 -2.000e-01 -4.000e-01 0.000e+00 -9.209e-04 8.924e-04 5.886e-04
159 1 -4.000e-01 5.000e-01 0.000e+00 -6.559e-04 6.874e-04 1.588e-03
160 1 -4.000e-01 4.000e-01 0.000e+00 5.170e-05 -2.015e-03 -9.307e-04
161 1 2.000e-01 1.000e-01 0.000e+00 -1.009e-03 -1.408e-04 3.879e-04
162 1 -3.000e-01 2.000e-01 0.000e+00 3.600e-04 7.200e-04 -1.060e-03
163 1 0.000e+00 0.000e+00 0.000e+00 1.450e-03 -9.827e-02 1.537e-03
164 1 -3.000e-01 1.000e-01 0.000e+00 3.869e-04 1.823e-04 -7.405e-04
165 1 3.000e-01 -4.000e-01 0.000e+00 7.209e-04 1.553e-04 -1.795e-03
166 1 -3.000e-01 -3.000e-01 0.000e+00 -5.911e-04 -2.117e-03 -4.390e-04
167 1 0.000e+00 2.000e-01 0.000e+00 -9.211e-05 -2.693e-04 1.097e-03
168 1 -1.000e-01 1.000e-01 0.000e+00 -2.858e-04 4.770e-04 5.894e-04
169 1 4.000e-01 4.000e-01 0.000e+00 4.837e-04 -4.285e-04 5.198e-04
170 1 -1.000e-01 -1.000e-01 0.000e+00 -2.422e-04 -1.827e-05 -6.723e-04
171 1 -1.000e-01 0.000e+00 0.000e+00 4.256e-04 8.596e-04 1.007e-04
172 1 0.000e+00 -2.000e-01 0.000e+00 7.747e-04 1.795e-03 7.630e-04
173 1 -3.000e-01 -2.000e-01 0.000e+00 1.882e-03 7.241e-05 -5.194e-06
174 1 4.000e-01 2.000e-01 0.000e+00 1.208e-03 -1.184e-03 1.852e-03
175 1 -2.000e-01 4.000e-01 0.000e+00 3.739e-04 -2.185e-04 -8.957e-05
176 1 -2.000e-01 -1.000e-01 0.000e+00 -1.593e-03 1.692e-04 1.388e-03
177 1 2.000e-01 3.000e-01 0.000e+00 -1.577e-04 -5.014e-04 4.433e-04
178 1 -3.000e-01 0.000e+00 0.000e+00 -6.138e-04 -5.499e-04 8.174e-04
179 1 4.000e-01 1.000e-01 0.000e+00 -2.299e-04 1.204e-03 -1.537e-03
180 1 2.000e-01 4.000e-01 0.000e+00 2.137e-04 6.328e-04 6.343e-04
181 1 -1.000e-01 3.000e-01 0.000e+00 -1.075e-03 -1.278e-03 1.889e-04
182 1 0.000e+00 3.000e-01 0.000e+00 -6.553e-04 2.567e-03 3.974e-04
183 1 -4.000e-01 -1.000e-01 0.000e+00 9.122e-04 -4.805e-04 -7.667e-04
184 1 3.000e-01 -3.000e-01 0.000e+00 -8.843e-05 -8.519e-04 -1.190e-04
185 1 5.000e-01 -1.000e-01 0.000e+00 2.805e-05 -1.945e-03 -8.487e-05
186 1 -1.000e-01 -3.000e-01 0.000e+00 1.000e-03 -7.058e-04 3.449e-05
187 1 -3.000e-01 4.000e-01 0.000e+00 2.887e-04 -1.815e-03 -1.251e-03
188 1 5.000e-01 3.000e-01 0.000e+00 -2.204e-04 -6.968e-04 -1.540e-03
189 1 5.000e-01 5.000e-01 0.000e+00 -8.465e-04 2.385e-03 1.483e-04
190 1 -2.000e-01 0.000e+00 0.000e+00 3.381e-05 -9.071e-04 6.728e-04
191 1 4.000e-01 -3.000e-01 0.000e+00 1.061e-03 1.330e-03 2.639e-04
192 1 1.000e-01 4.000e-01 0.000e+00 2.234e-04 -5.893e-04 -1.059e-03
193 1 1.000e-01 0.000e+00 0.000e+00 1.712e-03 -8.959e-04 -1.020e-03
194 1 4.000e-01 3.000e-01 0.000e+00 1.176e-03 -1.719e-03 -9.392e-04
195 1 2.000e-01 -3.000e-01 0.000e+00 -4.286e-04 -7.894e-04 6.338e-04
196 1 1.000e-01 -4.000e-01 0.000e+00 1.609e-03 -1.169e-03 -1.302e-04
197 1 -2.000e-01 5.000e-01 0.000e+00 -1.187e-03 3.768e-04 4.716e-04
198 1 3.000e-01 -2.000e-01 0.000e+00 -5.887e-04 -7.655e-05 9.364e-04
