ITEM: TIMESTEP
0
ITEM: NUMBER OF ATOMS
32
ITEM: BOX BOUNDS xy xz yz pp pp pp
                     -5.00000000000000e-01 5.00000000000000e-01 0.00000000000000e+00
-5.00000000000000e-01	5.00000000000000e-01	0.00000000000000e+00
-5.00000000000000e-01	5.00000000000000e-01	0.00000000000000e+00
ITEM: ATOMS id type x y z DisplacementX DisplacementY DisplacementZ
1 1 2.000e-01 0.000e+00 -2.000e-01 -2.815e-04 -1.323e-03 -1.007e-03
2 1 -2.000e-01 2.000e-01 -2.000e-01 4.106e-04 -1.998e-03 -1.119e-05
3 1 0.000e+00 -2.000e-01 -2.000e-01 1.556e-03 -1.119e-03 6.138e-04
4 1 0.000e+00 -4.000e-01 0.000e+00 6.974e-04 2.793e-05 6.528e-05
5 1 0.000e+00 0.000e+00 0.000e+00 -9.638e-04 -2.104e-04 1.991e-01
6 1 2.000e-01 0.000e+00 0.000e+00 1.237e-03 1.513e-03 -1.020e-03
7 1 4.000e-01 0.000e+00 0.000e+00 1.615e-03 2.032e-04 -1.931e-03
8 1 2.000e-01 -2.000e-01 2.000e-01 1.751e-03 1.296e-03 -2.021e-03
9 1 -2.000e-01 0.000e+00 -2.000e-01 1.421e-03 -1.074e-03 -1.488e-04
10 1 0.000e+00 0.000e+00 4.000e-01 6.644e-04 -2.092e-03 1.004e-04
11 1 2.000e-01 0.000e+00 2.000e-01 8.439e-04 1.248e-03 6.036e-04
12 1 0.000e+00 0.000e+00 -2.000e-01 1.331e-03 7.749e-04 8.787e-05
13 1 2.000e-01 -2.000e-01 -2.000e-01 -1.326e-04 -1.002e-04 1.038e-03
14 1 -4.000e-01 0.000e+00 0.000e+00 -9.455e-04 1.104e-04 -3.213e-05
15 1 0.000e+00 2.000e-01 2.000e-01 2.054e-04 1.295e-03 6.978e-04
16 1 0.000e+00 0.000e+00 -4.000e-01 2.473e-04 -1.821e-03 1.750e-03
17 1 2.000e-01 2.000e-01 2.000e-01 7.141e-04 1.200e-03 -7.149e-05
18 1 -2.000e-01 -2.000e-01 0.000e+00 2.195e-04 1.895e-03 6.897e-04
19 1 2.000e-01 -2.000e-01 0.000e+00 -7.522e-05 1.109e-04 1.276e-03
20 1 -2.000e-01 -2.000e-01 -2.000e-01 8.869e-04 1.159e-03 8.093e-04
21 1 2.000e-01 2.000e-01 -2.000e-01 -6.412e-05 -5.977e-05 -1.278e-03
22 1 0.000e+00 4.000e-01 0.000e+00 1.002e-03 2.198e-03 -2.671e-05
23 1 -2.000e-01 2.000e-01 0.000e+00 -6.983e-04 1.979e-04 1.470e-03
24 1 0.000e+00 -2.000e-01 0.000e+00 -7.622e-04 -4.387e-04 1.358e-04
25 1 -2.000e-01 0.000e+00 2.000e-01 7.351e-04 -1.159e-03 -1.741e-04
26 1 -2.000e-01 0.000e+00 0.000e+00 1.546e-03 1.097e-03 1.152e-03
27 1 2.000e-01 2.000e-01 0.000e+00 -1.737e-03 -9.512e-04 -5.596e-04
28 1 -2.000e-01 -2.000e-01 2.000e-01 -7.071e-04 -3.226e-04 -1.333e-03
29 1 0.000e+00 2.000e-01 -2.000e-01 -1.363e-04 -4.100e-04 -3.291e-04
30 1 0.000e+00 -2.000e-01 2.000e-01 2.106e-06 1.098e-03 1.007e-03
31 1 0.000e+00 2.000e-01 0.000e+00 -3.257e-05 5.274e-04 1.795e-04
32 1 -2.000e-01 2.000e-01 2.000e-01 2.170e-04 2.203e-04 -1.570e-03
ITEM: TIMESTEP
0
ITEM: NUMBER OF ATOMS
32
ITEM: BOX BOUNDS xy xz yz pp pp pp
                     -5.00000000000000e-01 5.00000000000000e-01 0.00000000000000e+00
-5.00000000000000e-01	5.00000000000000e-01	0.00000000000000e+00
-5.00000000000000e-01	5.00000000000000e-01	0.00000000000000e+00
ITEM: ATOMS id type x y z DisplacementX DisplacementY DisplacementZ
33 1 0.000e+00 -2.000e-01 0.000e+00 -9.266e-05 1.833e-03 5.372e-04
34 1 -4.000e-01 0.000e+00 0.000e+00 -1.012e-03 7.361e-04 -9.621e-04
35 1 0.000e+00 0.000e+00 -4.000e-01 -1.142e-03 -1.551e-03 3.250e-04
36 1 -2.000e-01 0.000e+00 2.000e-01 -8.451e-04 -3.157e-04 8.035e-05
37 1 2.000e-01 0.000e+00 2.000e-01 6.461e-04 -1.196e-03 -1.266e-03
38 1 2.000e-01 2.000e-01 0.000e+00 -1.334e-03 -3.131e-04 1.715e-03
39 1 2.000e-01 -2.000e-01 -2.000e-01 -2.752e-04 -4.921e-05 -1.572e-04
40 1 0.000e+00 2.000e-01 0.000e+00 5.618e-04 5.235e-04 -9.884e-04
41 1 2.000e-01 2.000e-01 2.000e-01 1.545e-03 1.266e-03 2.080e-03
42 1 2.000e-01 -2.000e-01 2.000e-01 1.035e-03 -5.212e-04 -1.572e-03
43 1 0.000e+00 0.000e+00 0.000e+00 2.669e-04 -3.646e-04 -2.018e-01
44 1 -2.000e-01 -2.000e-01 0.000e+00 -9.479e-04 -1.627e-03 5.588e-05
45 1 -2.000e-01 2.000e-01 2.000e-01 -1.508e-04 1.012e-03 -8.530e-04
46 1 2.000e-01 0.000e+00 0.000e+00 4.352e-04 -7.251e-05 -1.713e-03
47 1 2.000e-01 0.000e+00 -2.000e-01 2.000e-04 -1.103e-03 -1.409e-03
48 1 0.000e+00 0.000e+00 4.000e-01 9.281e-04 7.496e-04 1.364e-03
49 1 4.000e-01 0.000e+00 0.000e+00 1.472e-03 7.552e-05 1.079e-03
50 1 0.000e+00 2.000e-01 -2.000e-01 1.003e-03 -5.779e-04 5.142e-04
51 1 0.000e+00 0.000e+00 2.000e-01 -9.904e-04 -1.032e-03 1.159e-04
52 1 2.000e-01 2.000e-01 -2.000e-01 -1.183e-03 -1.069e-03 -1.859e-03
53 1 0.000e+00 2.000e-01 2.000e-01 7.658e-04 -1.194e-03 1.526e-03
54 1 2.000e-01 -2.000e-01 0.000e+00 -3.348e-04 9.482e-04 -9.409e-04
55 1 0.000e+00 -4.000e-01 0.000e+00 1.520e-03 -9.235e-04 -8.496e-04
56 1 -2.000e-01 0.000e+00 0.000e+00 8.901e-05 -1.076e-03 8.449e-04
57 1 -2.000e-01 0.000e+00 -2.000e-01 1.051e-03 2.093e-03 1.943e-03
58 1 -2.000e-01 -2.000e-01 2.000e-01 3.592e-04 -1.261e-03 6.296e-04
59 1 -2.000e-01 -2.000e-01 -2.000e-01 -8.325e-04 -9.136e-04 4.685e-04
60 1 0.000e+00 -2.000e-01 2.000e-01 -7.459e-06 2.168e-04 5.937e-04
61 1 0.000e+00 4.000e-01 0.000e+00 -5.409e-04 3.102e-04 6.227e-04
62 1 0.000e+00 -2.000e-01 -2.000e-01 1.561e-04 8.671e-04 1.572e-03
63 1 -2.000e-01 2.000e-01 0.000e+00 7.247e-04 3.653e-04 1.876e-03
64 1 -2.000e-01 2.000e-01 -2.000e-01 -1.697e-03 -3.411e-05 9.628e-04
ITEM: TIMESTEP
0
ITEM: NUMBER OF ATOMS
32
ITEM: BOX BOUNDS xy xz yz pp pp pp
                     -5.00000000000000e-01 5.00000000000000e-01 0.00000000000000e+00
-5.00000000000000e-01	5.00000000000000e-01	0.00000000000000e+00
-5.00000000000000e-01	5.00000000000000e-01	0.00000000000000e+00
ITEM: ATOMS id type x y z DisplacementX DisplacementY DisplacementZ
65 1 0.000e+00 0.000e+00 -4.000e-01 1.654e-03 -9.044e-04 -5.038e-05
66 1 -2.000e-01 -2.000e-01 2.000e-01 4.621e-04 -1.544e-03 -6.768e-04
67 1 2.000e-01 2.000e-01 2.000e-01 -5.055e-04 5.934e-04 3.878e-04
68 1 2.000e-01 -2.000e-01 -2.000e-01 1.267e-03 9.582e-04 -3.294e-04
69 1 -2.000e-01 0.000e+00 -2.000e-01 4.028e-05 -3.936e-04 -1.277e-03
70 1 2.000e-01 2.000e-01 -2.000e-01 6.922e-04 -4.754e-04 9.985e-04
71 1 4.000e-01 0.000e+00 0.000e+00 3.114e-04 -1.133e-03 -1.490e-03
72 1 0.000e+00 0.000e+00 -2.000e-01 4.305e-04 -4.630e-04 -1.631e-03
73 1 0.000e+00 0.000e+00 4.000e-01 -1.957e-03 1.454e-03 -9.873e-04
74 1 2.000e-01 0.000e+00 -2.000e-01 -2.309e-03 9.253e-05 -5.983e-05
75 1 0.000e+00 2.000e-01 2.000e-01 -2.742e-04 7.404e-04 1.504e-03
76 1 0.000e+00 -2.000e-01 0.000e+00 -2.476e-04 -9.520e-04 -1.026e-03
77 1 2.000e-01 -2.000e-01 0.000e+00 -1.762e-04 5.843e-04 -1.663e-04
78 1 -2.000e-01 2.000e-01 2.000e-01 -1.008e-03 -1.443e-03 7.463e-04
79 1 -2.000e-01 0.000e+00 2.000e-01 -3.453e-05 -8.756e-04 -8.474e-04
80 1 0.000e+00 0.000e+00 2.000e-01 3.247e-04 -6.646e-04 5.372e-04
81 1 0.000e+00 0.000e+00 0.000e+00 -1.998e-01 8.478e-04 8.146e-04
82 1 2.000e-01 2.000e-01 0.000e+00 -1.927e-03 1.855e-03 1.821e-04
83 1 2.000e-01 0.000e+00 2.000e-01 2.690e-04 -9.047e-04 8.247e-04
84 1 -2.000e-01 2.000e-01 0.000e+00 9.190e-04 8.092e-04 -2.320e-04
85 1 0.000e+00 2.000e-01 0.000e+00 5.502e-05 1.417e-03 -3.874e-04
86 1 0.000e+00 4.000e-01 0.000e+00 1.235e-03 7.830e-04 -6.247e-04
87 1 0.000e+00 -2.000e-01 -2.000e-01 -5.829e-04 9.391e-04 6.847e-04
88 1 0.000e+00 -2.000e-01 2.000e-01 1.203e-03 2.739e-04 -4.544e-04
89 1 -2.000e-01 -2.000e-01 -2.000e-01 4.008e-04 1.355e-04 7.923e-04
90 1 -4.000e-01 0.000e+00 0.000e+00 7.777e-05 -1.959e-04 -1.110e-03
91 1 2.000e-01 -2.000e-01 2.000e-01 1.044e-04 7.808e-05 -6.290e-04
92 1 0.000e+00 2.000e-01 -2.000e-01 -7.999e-05 -1.598e-03 1.901e-04
93 1 -2.000e-01 -2.000e-01 0.000e+00 -5.506e-05 9.439e-04 1.952e-03
94 1 -2.000e-01 2.000e-01 -2.000e-01 -2.179e-04 -1.119e-03 -2.200e-03
95 1 2.000e-01 0.000e+00 0.000e+00 4.995e-04 -1.615e-03 -1.163e-03
96 1 0.000e+00 -4.000e-01 0.000e+00 4.693e-04 -9.864e-06 -3.546e-04
ITEM: TIMESTEP
0
ITEM: NUMBER OF ATOMS
32
ITEM: BOX BOUNDS xy xz yz pp pp pp
                     -5.00000000000000e-01 5.00000000000000e-01 0.00000000000000e+00
-5.00000000000000e-01	5.00000000000000e-01	0.00000000000000e+00
-5.00000000000000e-01	5.00000000000000e-01	0.00000000000000e+00
ITEM: ATOMS id type x y z DisplacementX DisplacementY DisplacementZ
97 1 0.000e+00 -2.000e-01 -2.000e-01 8.827e-04 -1.262e-03 -1.933e-03
98 1 2.000e-01 -2.000e-01 -2.000e-01 1.111e-03 -1.603e-03 -4.279e-04
99 1 2.000e-01 0.000e+00 2.000e-01 -3.118e-05 7.648e-04 -1.041e-03
100 1 0.000e+00 0.000e+00 2.000e-01 -1.196e-03 1.844e-04 1.265e-03
101 1 0.000e+00 -2.000e-01 2.000e-01 1.998e-03 -4.159e-04 -6.824e-04
102 1 2.000e-01 -2.000e-01 2.000e-01 -9.448e-04 -1.668e-03 -1.685e-03
103 1 2.000e-01 -2.000e-01 0.000e+00 9.046e-04 2.352e-03 1.758e-03
104 1 -2.000e-01 2.000e-01 0.000e+00 -1.233e-03 -9.856e-04 -3.467e-04
105 1 2.000e-01 2.000e-01 2.000e-01 -8.945e-04 -4.440e-04 1.349e-03
106 1 4.000e-01 0.000e+00 0.000e+00 -9.354e-04 5.472e-04 1.115e-03
107 1 2.000e-01 2.000e-01 -2.000e-01 2.698e-04 2.721e-04 -7.409e-04
108 1 0.000e+00 0.000e+00 0.000e+00 1.090e-03 -2.012e-01 -1.494e-03
109 1 2.000e-01 0.000e+00 0.000e+00 -9.719e-05 -2.391e-03 1.846e-04
110 1 2.000e-01 2.000e-01 0.000e+00 9.694e-04 5.577e-05 -1.458e-03
111 1 -4.000e-01 0.000e+00 0.000e+00 -2.098e-04 4.560e-04 -8.862e-04
112 1 0.000e+00 0.000e+00 4.000e-01 -5.760e-04 2.655e-04 4.092e-04
113 1 0.000e+00 4.000e-01 0.000e+00 -1.116e-03 5.305e-04 1.166e-04
114 1 0.000e+00 2.000e-01 0.000e+00 3.167e-04 6.553e-04 4.062e-04
115 1 -2.000e-01 2.000e-01 2.000e-01 3.584e-06 5.458e-06 7.796e-04
116 1 -2.000e-01 2.000e-01 -2.000e-01 -7.002e-04 -2.450e-04 -9.270e-04
117 1 0.000e+00 2.000e-01 -2.000e-01 7.133e-04 1.172e-03 4.620e-04
118 1 -2.000e-01 0.000e+00 -2.000e-01 -9.696e-04 -1.075e-03 -2.044e-04
119 1 -2.000e-01 -2.000e-01 2.000e-01 -7.556e-04 -4.327e-04 -7.247e-04
120 1 -2.000e-01 -2.000e-01 0.000e+00 -1.176e-03 -1.071e-03 -9.254e-04
121 1 -2.000e-01 -2.000e-01 -2.000e-01 -6.796e-05 -4.164e-04 9.600e-04
122 1 2.000e-01 0.000e+00 -2.000e-01 -2.149e-03 2.668e-04 -1.329e-04
123 1 0.000e+00 0.000e+00 -4.000e-01 6.760e-04 -1.304e-03 1.002e-03
124 1 0.000e+00 2.000e-01 2.000e-01 -4.789e-04 -1.238e-03 1.489e-03
125 1 0.000e+00 -4.000e-01 0.000e+00 -9.788e-05 2.143e-03 2.742e-03
126 1 0.000e+00 0.000e+00 -2.000e-01 1.528e-03 -2.040e-03 -3.115e-04
127 1 -2.000e-01 0.000e+00 2.000e-01 2.217e-04 -4.115e-04 1.401e-04
128 1 -2.000e-01 0.000e+00 0.000e+00 -1.220e-03 -1.156e-03 -1.453e-04
ITEM: TIMESTEP
0
ITEM: NUMBER OF ATOMS
32
ITEM: BOX BOUNDS xy xz yz pp pp pp
                     -5.00000000000000e-01 5.00000000000000e-01 0.00000000000000e+00
-5.00000000000000e-01	5.00000000000000e-01	0.00000000000000e+00
-5.00000000000000e-01	5.00000000000000e-01	0.00000000000000e+00
ITEM: ATOMS id type x y z DisplacementX DisplacementY DisplacementZ
129 1 2.000e-01 -2.000e-01 2.000e-01 -7.110e-04 -5.271e-04 -1.075e-03
130 1 -2.000e-01 0.000e+00 2.000e-01 -1.057e-03 -9.032e-04 -8.284e-04
131 1 2.000e-01 0.000e+00 -2.000e-01 -1.892e-03 -9.491e-04 -9.335e-04
132 1 -2.000e-01 0.000e+00 0.000e+00 -6.911e-04 5.817e-04 -2.147e-03
133 1 0.000e+00 0.000e+00 4.000e-01 2.818e-04 -8.757e-06 -8.579e-04
134 1 2.000e-01 2.000e-01 2.000e-01 1.951e-04 -3.179e-04 5.420e-04
135 1 -2.000e-01 2.000e-01 2.000e-01 -1.347e-03 1.277e-04 9.548e-04
136 1 0.000e+00 0.000e+00 -4.000e-01 -1.537e-03 1.550e-04 -1.129e-03
137 1 2.000e-01 0.000e+00 2.000e-01 3.336e-03 8.639e-04 9.468e-05
138 1 0.000e+00 -2.000e-01 2.000e-01 1.194e-03 1.884e-03 -4.813e-05
139 1 4.000e-01 0.000e+00 0.000e+00 4.469e-04 1.605e-04 -2.617e-04
140 1 0.000e+00 4.000e-01 0.000e+00 -9.976e-04 -1.265e-04 6.525e-04
141 1 -2.000e-01 0.000e+00 -2.000e-01 -8.434e-04 -5.472e-04 9.308e-04
142 1 2.000e-01 2.000e-01 0.000e+00 -2.034e-03 1.282e-05 -5.704e-04
143 1 -2.000e-01 -2.000e-01 -2.000e-01 -6.897e-04 -4.416e-04 -6.388e-04
144 1 -2.000e-01 2.000e-01 -2.000e-01 4.863e-04 5.641e-04 5.657e-04
145 1 0.000e+00 -4.000e-01 0.000e+00 3.964e-04 4.741e-04 -4.568e-04
146 1 -2.000e-01 2.000e-01 0.000e+00 -1.314e-03 1.501e-03 -2.029e-05
147 1 0.000e+00 -2.000e-01 -2.000e-01 3.086e-04 1.524e-03 1.250e-03
148 1 0.000e+00 2.000e-01 -2.000e-01 -5.498e-04 -5.227e-05 1.605e-03
149 1 0.000e+00 0.000e+00 2.000e-01 8.302e-05 8.116e-04 5.098e-04
150 1 2.000e-01 -2.000e-01 -2.000e-01 2.303e-05 -7.818e-05 9.038e-04
151 1 0.000e+00 0.000e+00 0.000e+00 1.985e-01 -1.461e-04 1.700e-03
152 1 -2.000e-01 -2.000e-01 0.000e+00 -8.808e-04 -2.451e-03 -1.040e-03
153 1 0.000e+00 0.000e+00 -2.000e-01 -1.382e-03 -1.233e-04 -1.129e-03
154 1 0.000e+00 -2.000e-01 0.000e+00 -1.846e-03 1.647e-04 6.040e-04
155 1 2.000e-01 -2.000e-01 0.000e+00 2.505e-04 -3.509e-04 1.091e-03
156 1 2.000e-01 2.000e-01 -2.000e-01 1.421e-03 -1.270e-03 -4.660e-04
157 1 -4.000e-01 0.000e+00 0.000e+00 -4.723e-05 8.555e-04 1.600e-04
158 1 0.000e+00 2.000e-01 2.000e-01 2.008e-04 6.552e-05 -5.272e-04
159 1 -2.000e-01 -2.000e-01 2.000e-01 -4.112e-04 2.245e-03 9.089e-04
160 1 0.000e+00 2.000e-01 0.000e+00 3.356e-04 -2.295e-04 -1.230e-03
ITEM: TIMESTEP
0
ITEM: NUMBER OF ATOMS
32
ITEM: BOX BOUNDS xy xz yz pp pp pp
                     -5.00000000000000e-01 5.00000000000000e-01 0.00000000000000e+00
-5.00000000000000e-01	5.00000000000000e-01	0.00000000000000e+00
-5.00000000000000e-01	5.00000000000000e-01	0.00000000000000e+00
ITEM: ATOMS id type x y z DisplacementX DisplacementY DisplacementZ
161 1 0.000e+00 0.000e+00 2.000e-01 -2.322e-03 -7.762e-04 6.846e-04
162 1 -2.000e-01 -2.000e-01 2.000e-01 5.933e-04 -5.956e-04 -6.481e-04
163 1 0.000e+00 0.000e+00 -4.000e-01 6.741e-04 2.335e-03 -1.373e-03
164 1 0.000e+00 -2.000e-01 -2.000e-01 7.347e-04 -8.772e-04 9.310e-04
165 1 0.000e+00 2.000e-01 -2.000e-01 6.518e-04 2.231e-03 7.483e-04
166 1 2.000e-01 2.000e-01 -2.000e-01 -6.639e-04 6.764e-04 -1.550e-04
167 1 2.000e-01 0.000e+00 0.000e+00 6.187e-04 -1.272e-03 -1.201e-03
168 1 4.000e-01 0.000e+00 0.000e+00 -3.898e-04 -1.035e-03 5.018e-04
169 1 0.000e+00 2.000e-01 2.000e-01 1.782e-04 3.196e-04 8.995e-04
170 1 -2.000e-01 0.000e+00 2.000e-01 -2.034e-04 2.327e-04 -9.634e-04
171 1 2.000e-01 2.000e-01 2.000e-01 5.163e-04 -4.467e-04 1.705e-03
172 1 2.000e-01 2.000e-01 0.000e+00 -9.787e-04 -1.281e-03 -1.153e-03
173 1 0.000e+00 4.000e-01 0.000e+00 -5.054e-05 -1.244e-03 1.601e-03
174 1 2.000e-01 -2.000e-01 -2.000e-01 1.178e-03 -1.760e-04 7.544e-04
175 1 -2.000e-01 -2.000e-01 0.000e+00 2.565e-04 1.794e-04 -7.062e-04
176 1 0.000e+00 -2.000e-01 0.000e+00 -1.681e-03 4.310e-04 -9.867e-05
177 1 -2.000e-01 0.000e+00 -2.000e-01 -5.052e-04 1.271e-03 5.163e-04
178 1 2.000e-01 0.000e+00 -2.000e-01 7.481e-04 -1.392e-03 -2.682e-05
179 1 0.000e+00 -4.000e-01 0.000e+00 6.206e-04 -4.738e-04 1.597e-03
180 1 2.000e-01 0.000e+00 2.000e-01 1.336e-04 2.194e-04 5.310e-04
181 1 0.000e+00 -2.000e-01 2.000e-01 1.884e-04 -1.772e-03 2.833e-04
182 1 -2.000e-01 2.000e-01 2.000e-01 2.743e-04 7.771e-04 -6.908e-04
183 1 0.000e+00 0.000e+00 -2.000e-01 -1.376e-03 2.062e-03 9.374e-04
184 1 -2.000e-01 2.000e-01 0.000e+00 1.192e-03 -9.845e-04 5.020e-04
185 1 -2.000e-01 -2.000e-01 -2.000e-01 8.123e-07 6.030e-04 -1.185e-03
186 1 -4.000e-01 0.000e+00 0.000e+00 8.046e-04 -1.752e-04 1.339e-03
187 1 -2.000e-01 2.000e-01 -2.000e-01 -1.038e-04 4.924e-04 8.796e-05
188 1 -2.000e-01 0.000e+00 0.000e+00 -1.123e-03 7.296e-04 9.221e-04
189 1 0.000e+00 0.000e+00 4.000e-01 2.282e-05 -1.053e-03 -7.997e-05
190 1 0.000e+00 0.000e+00 0.000e+00 2.721e-04 2.009e-01 -8.928e-04
191 1 2.000e-01 -2.000e-01 2.000e-01 -1.748e-03 -1.152e-03 -2.748e-04
192 1 2.000e-01 -2.000e-01 0.000e+00 -8.295e-04 1.990e-03 -9.733e-04
ITEM: TIMESTEP
0
ITEM: NUMBER OF ATOMS
32
ITEM: BOX BOUNDS xy xz yz pp pp pp
                     -5.00000000000000e-01 5.00000000000000e-01 0.00000000000000e+00
-5.00000000000000e-01	5.00000000000000e-01	0.00000000000000e+00
-5.00000000000000e-01	5.00000000000000e-01	0.00000000000000e+00
ITEM: ATOMS id type x y z DisplacementX DisplacementY DisplacementZ
193 1 0.000e+00 0.000e+00 0.000e+00 -2.004e-01 5.482e-04 -8.617e-05
194 1 0.000e+00 4.000e-01 0.000e+00 2.034e-04 1.002e-04 -6.102e-05
195 1 0.000e+00 0.000e+00 -4.000e-01 9.450e-04 -8.257e-04 2.451e-04
196 1 2.000e-01 -2.000e-01 2.000e-01 2.393e-03 1.237e-03 9.710e-04
197 1 -2.000e-01 0.000e+00 2.000e-01 5.298e-04 -4.117e-04 -1.288e-03
198 1 -2.000e-01 -2.000e-01 2.000e-01 4.736e-04 1.906e-03 1.472e-05
199 1 2.000e-01 -2.000e-01 0.000e+00 2.018e-04 -2.084e-03 -1.031e-03
200 1 0.000e+00 -2.000e-01 0.000e+00 -4.297e-04 7.120e-04 -2.140e-05
201 1 -2.000e-01 -2.000e-01 0.000e+00 -1.527e-04 -1.144e-03 -6.830e-05
202 1 2.000e-01 0.000e+00 -2.000e-01 -1.039e-03 2.133e-04 -2.071e-03
203 1 -2.000e-01 0.000e+00 -2.000e-01 -2.301e-04 1.032e-04 1.392e-03
204 1 0.000e+00 -4.000e-01 0.000e+00 1.321e-03 1.001e-03 -8.818e-04
205 1 0.000e+00 2.000e-01 -2.000e-01 9.904e-04 -7.979e-04 3.276e-04
206 1 2.000e-01 0.000e+00 0.000e+00 -1.298e-03 -5.389e-04 -5.615e-05
207 1 -2.000e-01 2.000e-01 -2.000e-01 1.268e-03 -1.146e-03 -5.449e-04
208 1 0.000e+00 -2.000e-01 -2.000e-01 -7.292e-04 3.847e-04 8.847e-05
209 1 0.000e+00 0.000e+00 2.000e-01 2.027e-03 -2.104e-03 2.786e-04
210 1 2.000e-01 0.000e+00 2.000e-01 -1.680e-04 1.631e-03 8.073e-04
211 1 2.000e-01 2.000e-01 -2.000e-01 -7.721e-05 6.444e-04 -1.668e-04
212 1 0.000e+00 2.000e-01 0.000e+00 -6.318e-04 -1.985e-04 -1.036e-03
213 1 -2.000e-01 2.000e-01 2.000e-01 9.012e-05 5.000e-04 3.828e-04
214 1 2.000e-01 -2.000e-01 -2.000e-01 9.513e-04 -4.877e-05 -5.515e-05
215 1 -2.000e-01 2.000e-01 0.000e+00 -1.204e-03 -7.953e-04 2.597e-04
216 1 4.000e-01 0.000e+00 0.000e+00 -1.352e-03 3.835e-04 3.282e-04
217 1 -2.000e-01 -2.000e-01 -2.000e-01 -2.832e-04 1.234e-03 1.481e-03
218 1 0.000e+00 -2.000e-01 2.000e-01 -6.430e-04 -5.284e-04 1.257e-03
219 1 0.000e+00 0.000e+00 -2.000e-01 -1.385e-03 -1.025e-03 2.372e-03
220 1 2.000e-01 2.000e-01 2.000e-01 -1.201e-03 -6.310e-05 1.357e-03
221 1 0.000e+00 2.000e-01 2.000e-01 4.628e-04 -5.435e-04 -1.787e-03
222 1 0.000e+00 0.000e+00 4.000e-01 7.349e-05 1.170e-03 -1.670e-03
223 1 -4.000e-01 0.000e+00 0.000e+00 1.192e-03 -1.349e-03 -9.693e-04
224 1 2.000e-01 2.000e-01 0.000e+00 -1.001e-03 1.797e-03 3.163e-04
ITEM: TIMESTEP
0
ITEM: NUMBER OF ATOMS
32
ITEM: BOX BOUNDS xy xz yz pp pp pp
                     -5.00000000000000e-01 5.00000000000000e-01 0.00000000000000e+00
-5.00000000000000e-01	5.00000000000000e-01	0.00000000000000e+00
-5.00000000000000e-01	5.00000000000000e-01	0.00000000000000e+00
ITEM: ATOMS id type x y z DisplacementX DisplacementY DisplacementZ
225 1 2.000e-01 0.000e+00 -2.000e-01 1.647e-04 -3.875e-04 -8.691e-04
226 1 0.000e+00 2.000e-01 2.000e-01 -1.111e-03 -1.203e-03 -1.578e-04
227 1 -2.000e-01 0.000e+00 0.000e+00 1.917e-03 5.438e-04 -7.401e-04
228 1 -2.000e-01 -2.000e-01 0.000e+00 3.836e-04 -1.003e-03 2.027e-04
229 1 0.000e+00 0.000e+00 4.000e-01 3.357e-05 -2.050e-03 -3.175e-04
230 1 -2.000e-01 0.000e+00 2.000e-01 -1.589e-03 5.059e-04 1.284e-03
231 1 -2.000e-01 -2.000e-01 2.000e-01 -1.477e-03 2.156e-04 -3.427e-04
232 1 0.000e+00 0.000e+00 0.000e+00 1.013e-03 1.027e-03 -2.004e-01
233 1 0.000e+00 -2.000e-01 0.000e+00 6.550e-04 -8.831e-04 -8.725e-04
234 1 0.000e+00 -2.000e-01 2.000e-01 -5.188e-04 1.512e-03 -5.977e-04
235 1 -2.000e-01 2.000e-01 -2.000e-01 -1.333e-03 -6.802e-05 -2.751e-04
236 1 2.000e-01 -2.000e-01 -2.000e-01 2.981e-04 -1.205e-04 -6.003e-04
237 1 0.000e+00 -2.000e-01 -2.000e-01 2.370e-04 2.007e-04 -8.079e-04
238 1 0.000e+00 0.000e+00 -4.000e-01 1.677e-03 -4.025e-04 -1.068e-03
239 1 -2.000e-01 2.000e-01 0.000e+00 9.570e-05 -3.294e-04 -4.105e-05
240 1 0.000e+00 0.000e+00 2.000e-01 4.579e-04 2.109e-03 3.337e-04
241 1 0.000e+00 4.000e-01 0.000e+00 6.289e-04 -1.121e-03 1.281e-03
242 1 2.000e-01 -2.000e-01 2.000e-01 2.042e-04 1.337e-03 8.881e-04
243 1 2.000e-01 0.000e+00 0.000e+00 -2.888e-04 2.213e-04 1.453e-03
244 1 4.000e-01 0.000e+00 0.000e+00 6.701e-04 7.019e-04 4.837e-04
245 1 -2.000e-01 -2.000e-01 -2.000e-01 -1.802e-03 -3.086e-04 -6.891e-04
246 1 -2.000e-01 2.000e-01 2.000e-01 -1.088e-03 1.484e-04 -1.304e-04
247 1 2.000e-01 2.000e-01 -2.000e-01 1.472e-03 -7.978e-04 -1.298e-03
248 1 2.000e-01 2.000e-01 2.000e-01 2.489e-03 3.418e-05 -4.165e-04
249 1 0.000e+00 2.000e-01 0.000e+00 8.976e-05 4.979e-04 -4.665e-04
250 1 0.000e+00 2.000e-01 -2.000e-01 7.104e-04 1.215e-03 1.900e-03
251 1 -4.000e-01 0.000e+00 0.000e+00 -1.130e-03 -2.544e-04 -2.486e-03
252 1 2.000e-01 -2.000e-01 0.000e+00 -1.540e-04 -4.687e-04 -3.559e-04
253 1 2.000e-01 2.000e-01 0.000e+00 1.732e-03 2.546e-04 1.412e-03
254 1 2.000e-01 0.000e+00 2.000e-01 4.189e-04 1.487e-03 -9.310e-05
255 1 -2.000e-01 0.000e+00 -2.000e-01 1.938e-03 9.324e-04 3.730e-04
256 1 0.000e+00 -4.000e-01 0.000e+00 4.388e-04 -4.256e-04 -1.436e-03
ITEM: TIMESTEP
0
ITEM: NUMBER OF ATOMS
32
ITEM: BOX BOUNDS xy xz yz pp pp pp
                     -5.00000000000000e-01 5.00000000000000e-01 0.00000000000000e+00
-5.00000000000000e-01	5.00000000000000e-01	0.00000000000000e+00
-5.00000000000000e-01	5.00000000000000e-01	0.00000000000000e+00
ITEM: ATOMS id type x y z DisplacementX DisplacementY DisplacementZ
257 1 2.000e-01 2.000e-01 0.000e+00 -9.500e-04 6.946e-04 -1.457e-03
258 1 -2.000e-01 2.000e-01 2.000e-01 6.979e-04 2.179e-04 5.895e-05
259 1 -2.000e-01 0.000e+00 2.000e-01 3.121e-04 -1.859e-03 -1.113e-04
260 1 2.000e-01 -2.000e-01 2.000e-01 -9.550e-04 -3.384e-04 2.400e-03
261 1 0.000e+00 2.000e-01 2.000e-01 2.902e-04 5.138e-04 2.334e-04
262 1 0.000e+00 0.000e+00 2.000e-01 -9.917e-04 -8.269e-05 5.789e-05
263 1 -2.000e-01 -2.000e-01 2.000e-01 1.948e-03 -3.124e-04 2.126e-03
264 1 4.000e-01 0.000e+00 0.000e+00 -5.815e-04 1.446e-04 1.035e-03
265 1 0.000e+00 0.000e+00 4.000e-01 -4.129e-04 -6.772e-04 4.718e-04
266 1 -2.000e-01 0.000e+00 -2.000e-01 3.145e-04 5.581e-04 -1.283e-03
267 1 2.000e-01 0.000e+00 0.000e+00 2.672e-04 6.910e-04 7.449e-04
268 1 0.000e+00 0.000e+00 0.000e+00 2.577e-04 2.004e-01 2.265e-04
269 1 0.000e+00 2.000e-01 -2.000e-01 1.193e-03 4.406e-04 -1.563e-03
270 1 2.000e-01 -2.000e-01 -2.000e-01 -1.745e-04 2.086e-03 4.709e-04
271 1 2.000e-01 -2.000e-01 0.000e+00 -1.843e-03 9.002e-04 -2.297e-04
272 1 0.000e+00 -4.000e-01 0.000e+00 -4.168e-04 1.498e-03 -3.739e-04
273 1 2.000e-01 0.000e+00 -2.000e-01 3.266e-04 7.843e-05 -4.650e-04
274 1 0.000e+00 -2.000e-01 -2.000e-01 -2.822e-04 7.881e-05 -2.613e-06
275 1 0.000e+00 0.000e+00 -4.000e-01 1.171e-03 -1.379e-04 3.567e-04
276 1 -4.000e-01 0.000e+00 0.000e+00 -1.188e-03 -8.553e-04 -1.498e-03
277 1 2.000e-01 2.000e-01 2.000e-01 1.271e-04 -3.728e-04 -1.836e-03
278 1 -2.000e-01 0.000e+00 0.000e+00 -7.338e-04 2.591e-04 1.385e-03
279 1 0.000e+00 -2.000e-01 0.000e+00 1.409e-03 -1.132e-03 7.109e-04
280 1 0.000e+00 4.000e-01 0.000e+00 1.406e-03 -3.850e-04 1.500e-04
281 1 0.000e+00 0.000e+00 -2.000e-01 -5.900e-05 2.457e-04 4.688e-04
282 1 2.000e-01 0.000e+00 2.000e-01 7.072e-04 -1.829e-04 -3.583e-04
283 1 2.000e-01 2.000e-01 -2.000e-01 -5.879e-04 2.660e-04 -1.038e-03
284 1 -2.000e-01 -2.000e-01 -2.000e-01 -7.114e-04 -5.260e-04 6.582e-04
285 1 -2.000e-01 2.000e-01 -2.000e-01 -9.297e-04 -2.947e-04 1.474e-03
286 1 -2.000e-01 2.000e-01 0.000e+00 -1.777e-03 3.385e-04 1.650e-03
287 1 0.000e+00 -2.000e-01 2.000e-01 -1.230e-03 8.418e-05 1.077e-03
288 1 -2.000e-01 -2.000e-01 0.000e+00 -1.613e-03 -1.792e-03 8.796e-04
ITEM: TIMESTEP
0
ITEM: NUMBER OF ATOMS
32
ITEM: BOX BOUNDS xy xz yz pp pp pp
                     -5.00000000000000e-01 5.00000000000000e-01 0.00000000000000e+00
-5.00000000000000e-01	5.00000000000000e-01	0.00000000000000e+00
-5.00000000000000e-01	5.00000000000000e-01	0.00000000000000e+00
ITEM: ATOMS id type x y z DisplacementX DisplacementY DisplacementZ
289 1 2.000e-01 0.000e+00 2.000e-01 -8.016e-04 -1.665e-04 -3.486e-04
290 1 2.000e-01 0.000e+00 -2.000e-01 -1.161e-03 -6.686e-04 -1.386e-04
291 1 -2.000e-01 0.000e+00 -2.000e-01 3.065e-04 1.335e-03 1.108e-03
292 1 0.000e+00 0.000e+00 -2.000e-01 -1.452e-03 3.207e-04 -4.651e-05
293 1 0.000e+00 0.000e+00 4.000e-01 4.903e-04 -4.980e-04 4.552e-04
294 1 -2.000e-01 -2.000e-01 -2.000e-01 -7.504e-04 -2.473e-04 1.071e-03
295 1 -2.000e-01 -2.000e-01 0.000e+00 -2.029e-04 7.154e-04 1.699e-03
296 1 -2.000e-01 2.000e-01 2.000e-01 6.793e-04 1.118e-03 -6.249e-04
297 1 2.000e-01 -2.000e-01 2.000e-01 6.268e-04 5.523e-04 6.046e-04
298 1 -2.000e-01 2.000e-01 -2.000e-01 -2.260e-04 -9.537e-04 1.986e-04
299 1 0.000e+00 -2.000e-01 2.000e-01 -1.429e-03 1.723e-03 -1.126e-03
300 1 4.000e-01 0.000e+00 0.000e+00 -1.629e-04 1.161e-03 1.697e-03
301 1 0.000e+00 0.000e+00 0.000e+00 6.062e-04 6.338e-04 2.007e-01
302 1 2.000e-01 2.000e-01 0.000e+00 -1.104e-03 -2.201e-03 -9.481e-04
303 1 0.000e+00 0.000e+00 -4.000e-01 -1.028e-03 -7.601e-04 1.096e-03
304 1 0.000e+00 2.000e-01 0.000e+00 -6.820e-04 -2.865e-04 7.825e-04
305 1 2.000e-01 -2.000e-01 0.000e+00 3.409e-04 6.100e-04 -1.065e-03
306 1 0.000e+00 -4.000e-01 0.000e+00 1.422e-03 -1.472e-03 3.448e-04
307 1 0.000e+00 -2.000e-01 -2.000e-01 1.818e-03 -8.201e-04 1.265e-03
308 1 -4.000e-01 0.000e+00 0.000e+00 2.038e-04 -3.989e-04 4.075e-04
309 1 -2.000e-01 -2.000e-01 2.000e-01 -9.894e-04 3.695e-04 -1.133e-03
310 1 2.000e-01 2.000e-01 2.000e-01 -4.334e-04 -5.289e-05 -1.113e-04
311 1 0.000e+00 2.000e-01 -2.000e-01 -2.494e-04 -3.071e-04 -6.766e-04
312 1 0.000e+00 2.000e-01 2.000e-01 -1.853e-03 -8.231e-04 -4.785e-04
313 1 0.000e+00 -2.000e-01 0.000e+00 6.777e-04 6.359e-05 -2.463e-04
314 1 2.000e-01 0.000e+00 0.000e+00 8.704e-04 1.628e-04 -1.700e-04
315 1 2.000e-01 -2.000e-01 -2.000e-01 1.314e-04 1.352e-03 9.427e-04
316 1 -2.000e-01 2.000e-01 0.000e+00 3.716e-05 -1.148e-03 2.254e-04
317 1 -2.000e-01 0.000e+00 0.000e+00 2.916e-05 -9.375e-04 5.521e-04
318 1 -2.000e-01 0.000e+00 2.000e-01 4.068e-04 -2.844e-04 -4.997e-04
319 1 0.000e+00 4.000e-01 0.000e+00 1.618e-03 -5.258e-04 2.090e-03
320 1 2.000e-01 2.000e-01 -2.000e-01 -1.482e-04 -2.287e-04 8.886e-05
ITEM: TIMESTEP
0
ITEM: NUMBER OF ATOMS
32
ITEM: BOX BOUNDS xy xz yz pp pp pp
                     -5.00000000000000e-01 5.00000000000000e-01 0.00000000000000e+00
-5.00000000000000e-01	5.00000000000000e-01	0.00000000000000e+00
-5.00000000000000e-01	5.00000000000000e-01	0.00000000000000e+00
ITEM: ATOMS id type x y z DisplacementX DisplacementY DisplacementZ
321 1 2.000e-01 -2.000e-01 0.000e+00 -5.682e-04 -1.007e-03 -6.275e-04
322 1 2.000e-01 2.000e-01 0.000e+00 2.946e-04 -2.575e-04 3.019e-04
323 1 0.000e+00 0.000e+00 4.000e-01 5.472e-04 1.540e-04 1.156e-03
324 1 -2.000e-01 -2.000e-01 2.000e-01 6.950e-04 1.011e-03 6.879e-04
325 1 0.000e+00 -2.000e-01 2.000e-01 6.483e-04 -7.825e-04 1.218e-03
326 1 -4.000e-01 0.000e+00 0.000e+00 1.740e-03 -4.116e-04 -3.360e-04
327 1 -2.000e-01 0.000e+00 0.000e+00 2.580e-04 -6.072e-04 -1.592e-03
328 1 0.000e+00 -4.000e-01 0.000e+00 -1.364e-03 -3.553e-04 1.949e-03
329 1 2.000e-01 2.000e-01 -2.000e-01 -1.021e-04 1.449e-04 -2.442e-03
330 1 0.000e+00 -2.000e-01 -2.000e-01 -2.176e-04 7.528e-04 -3.205e-04
331 1 -2.000e-01 2.000e-01 0.000e+00 -2.636e-04 1.088e-03 1.023e-03
332 1 2.000e-01 0.000e+00 -2.000e-01 -1.111e-03 -4.207e-04 -7.767e-04
333 1 -2.000e-01 0.000e+00 2.000e-01 -1.850e-04 -8.867e-04 -1.058e-03
334 1 0.000e+00 2.000e-01 0.000e+00 -2.079e-03 -7.659e-04 -2.068e-03
335 1 0.000e+00 2.000e-01 2.000e-01 -4.373e-04 -4.440e-04 1.459e-04
336 1 0.000e+00 0.000e+00 -2.000e-01 -3.565e-04 -5.848e-04 5.893e-05
337 1 2.000e-01 -2.000e-01 2.000e-01 -5.789e-04 1.335e-03 2.054e-03
338 1 2.000e-01 2.000e-01 2.000e-01 6.100e-05 9.947e-04 2.009e-03
339 1 0.000e+00 4.000e-01 0.000e+00 -1.308e-04 -1.573e-03 1.643e-04
340 1 2.000e-01 0.000e+00 0.000e+00 -1.393e-03 6.970e-04 -8.671e-04
341 1 -2.000e-01 2.000e-01 2.000e-01 2.467e-04 -5.259e-04 -1.533e-03
342 1 0.000e+00 0.000e+00 -4.000e-01 -2.706e-04 2.971e-04 1.016e-03
343 1 0.000e+00 0.000e+00 2.000e-01 -1.738e-03 4.399e-04 1.390e-03
344 1 0.000e+00 0.000e+00 0.000e+00 1.302e-04 -2.005e-01 1.786e-03
345 1 2.000e-01 -2.000e-01 -2.000e-01 9.826e-05 -3.519e-05 3.166e-04
346 1 -2.000e-01 0.000e+00 -2.000e-01 -1.050e-03 1.806e-05 -2.143e-04
347 1 -2.000e-01 -2.000e-01 -2.000e-01 -5.707e-04 -4.995e-04 7.203e-04
348 1 2.000e-01 0.000e+00 2.000e-01 -1.837e-03 -1.293e-03 3.457e-04
349 1 -2.000e-01 -2.000e-01 0.000e+00 -3.706e-04 6.575e-04 -3.266e-04
350 1 4.000e-01 0.000e+00 0.000e+00 -7.369e-04 1.044e-03 -1.109e-03
351 1 0.000e+00 2.000e-01 -2.000e-01 -5.910e-04 1.542e-03 -1.290e-03
352 1 -2.000e-01 2.000e-01 -2.000e-01 1.306e-03 -1.214e-03 4.089e-04
ITEM: TIMESTEP
0
ITEM: NUMBER OF ATOMS
32
ITEM: BOX BOUNDS xy xz yz pp pp pp
                     -5.00000000000000e-01 5.00000000000000e-01 0.00000000000000e+00
-5.00000000000000e-01	5.00000000000000e-01	0.00000000000000e+00
-5.00000000000000e-01	5.00000000000000e-01	0.00000000000000e+00
ITEM: ATOMS id type x y z DisplacementX DisplacementY DisplacementZ
353 1 -2.000e-01 -2.000e-01 2.000e-01 -9.195e-05 -1.101e-04 2.693e-04
354 1 4.000e-01 0.000e+00 0.000e+00 -7.976e-04 3.715e-04 2.820e-04
355 1 0.000e+00 0.000e+00 2.000e-01 4.326e-04 2.984e-04 -3.141e-04
356 1 0.000e+00 -2.000e-01 2.000e-01 1.462e-03 1.073e-03 -2.166e-05
357 1 -2.000e-01 2.000e-01 2.000e-01 -2.099e-04 5.012e-04 -1.681e-03
358 1 0.000e+00 0.000e+00 -4.000e-01 -1.902e-03 -3.040e-04 -2.173e-04
359 1 0.000e+00 0.000e+00 4.000e-01 1.476e-03 8.163e-04 4.229e-04
360 1 2.000e-01 0.000e+00 2.000e-01 -1.944e-04 -5.175e-04 8.244e-04
361 1 -2.000e-01 2.000e-01 0.000e+00 4.855e-06 8.724e-04 9.815e-05
362 1 2.000e-01 -2.000e-01 2.000e-01 -1.566e-03 -4.772e-04 9.241e-05
363 1 -2.000e-01 2.000e-01 -2.000e-01 -9.364e-05 -7.958e-05 -5.817e-04
364 1 0.000e+00 -2.000e-01 -2.000e-01 1.039e-03 7.728e-04 -2.750e-04
365 1 0.000e+00 2.000e-01 0.000e+00 -1.297e-03 -5.282e-04 5.753e-04
366 1 2.000e-01 -2.000e-01 0.000e+00 4.714e-04 -1.050e-03 -1.447e-03
367 1 2.000e-01 0.000e+00 -2.000e-01 -9.350e-04 4.928e-04 1.477e-04
368 1 0.000e+00 4.000e-01 0.000e+00 2.450e-04 -1.409e-04 1.812e-04
369 1 0.000e+00 2.000e-01 2.000e-01 -1.201e-03 1.066e-03 -9.475e-04
370 1 -4.000e-01 0.000e+00 0.000e+00 -1.320e-03 1.492e-04 1.254e-04
371 1 2.000e-01 2.000e-01 -2.000e-01 -2.632e-04 -2.600e-04 -5.650e-04
372 1 -2.000e-01 -2.000e-01 0.000e+00 1.081e-04 1.907e-03 3.954e-04
373 1 -2.000e-01 0.000e+00 -2.000e-01 -8.961e-05 -5.347e-04 3.939e-04
374 1 0.000e+00 -2.000e-01 0.000e+00 -7.405e-06 1.212e-03 4.393e-04
375 1 2.000e-01 2.000e-01 2.000e-01 1.742e-03 6.744e-04 9.192e-04
376 1 -2.000e-01 -2.000e-01 -2.000e-01 -1.762e-04 1.632e-03 9.520e-04
377 1 2.000e-01 2.000e-01 0.000e+00 -1.755e-03 2.708e-04 -9.172e-04