ITEM: TIMESTEP
0
ITEM: NUMBER OF ATOMS
4
ITEM: BOX BOUNDS xy xz yz pp pp pp
                     -5.00000000000000e-01 5.00000000000000e-01 0.00000000000000e+00
-5.00000000000000e-01	5.00000000000000e-01	0.00000000000000e+00
-5.00000000000000e-01	5.00000000000000e-01	0.00000000000000e+00
ITEM: ATOMS id type x y z DisplacementX DisplacementY DisplacementZ
1 1 0.000e+00 0.000e+00 0.000e+00 -1.003e-01 7.461e-04 -2.134e-04
2 1 0.000e+00 -1.000e-01 0.000e+00 -7.687e-04 -1.805e-04 3.764e-04
3 1 1.000e-01 0.000e+00 0.000e+00 4.528e-04 1.193e-03 -1.635e-03
4 1 0.000e+00 1.000e-01 0.000e+00 -1.726e-03 -1.553e-03 1.271e-03
ITEM: TIMESTEP
0
ITEM: NUMBER OF ATOMS
4
ITEM: BOX BOUNDS xy xz yz pp pp pp
                     -5.00000000000000e-01 5.00000000000000e-01 0.00000000000000e+00
-5.00000000000000e-01	5.00000000000000e-01	0.00000000000000e+00
-5.00000000000000e-01	5.00000000000000e-01	0.00000000000000e+00
ITEM: ATOMS id type x y z DisplacementX DisplacementY DisplacementZ
5 1 0.000e+00 1.000e-01 0.000e+00 -4.444e-04 -1.994e-03 1.775e-03
6 1 0.000e+00 -1.000e-01 0.000e+00 -3.398e-04 -1.272e-03 1.539e-03
7 1 0.000e+00 0.000e+00 0.000e+00 1.006e-01 -1.999e-03 1.295e-03
8 1 -1.000e-01 0.000e+00 0.000e+00 2.891e-04 9.179e-04 6.725e-04
