ITEM: TIMESTEP
0
ITEM: NUMBER OF ATOMS
107
ITEM: BOX BOUNDS xy xz yz pp pp pp
                     0.00000000000000e+00 1.06000000000000e+01 0.00000000000000e+00
0.00000000000000e+00	1.06000000000000e+01	0.00000000000000e+00
0.00000000000000e+00	1.06000000000000e+01	0.00000000000000e+00
ITEM: ATOMS id type x y z DisplacementX DisplacementY DisplacementZ
1 1 3.516e-01 3.525e-01 3.561e-01 -9.564e-04 -2.152e-05 -5.413e-04
2 1 2.126e+00 2.124e+00 3.520e-01 1.610e-03 -4.436e-04 1.172e-03
3 1 2.123e+00 3.525e-01 2.124e+00 6.689e-04 1.179e-03 -2.908e-05
4 1 3.530e-01 2.123e+00 2.125e+00 -2.326e-03 -1.314e-02 -1.749e-02
5 1 3.896e+00 3.521e-01 3.562e-01 8.919e-04 -8.138e-04 1.030e-03
6 1 5.664e+00 2.124e+00 3.540e-01 -3.406e-04 -1.452e-02 -1.540e-02
7 1 5.667e+00 3.519e-01 2.127e+00 -3.323e-03 -1.449e-02 -1.970e-02
8 1 3.897e+00 2.124e+00 2.125e+00 2.106e-03 -1.236e-02 -1.718e-02
9 1 7.434e+00 3.516e-01 3.572e-01 -2.417e-03 -1.348e-02 -2.462e-02
10 1 9.204e+00 2.124e+00 3.560e-01 -1.784e-03 -1.482e-02 -1.710e-02
11 1 9.202e+00 3.516e-01 2.125e+00 2.838e-03 -1.507e-02 -1.680e-02
12 1 7.433e+00 2.123e+00 2.124e+00 -5.205e-04 -2.469e-02 -1.666e-02
13 1 3.539e-01 3.896e+00 3.552e-01 -1.176e-03 -1.572e-02 -1.693e-02
14 1 2.124e+00 3.893e+00 2.125e+00 -6.912e-04 -1.836e-02 -1.697e-02
15 1 3.896e+00 3.894e+00 3.565e-01 1.989e-03 -1.489e-02 -1.630e-02
16 1 5.667e+00 3.896e+00 2.127e+00 7.948e-03 -1.008e-02 -1.782e-02
17 1 7.433e+00 3.899e+00 3.570e-01 6.156e-04 -9.992e-03 -1.027e-02
18 1 9.202e+00 3.896e+00 2.125e+00 -8.407e-03 -9.393e-03 -1.749e-02
19 1 3.509e-01 3.511e-01 3.894e+00 1.167e-03 2.066e-04 1.457e-03
20 1 2.124e+00 2.125e+00 3.892e+00 -3.319e-04 -4.398e-04 -2.537e-03
21 1 3.898e+00 3.508e-01 3.894e+00 -6.050e-04 -4.418e-04 3.860e-05
22 1 5.660e+00 2.125e+00 3.895e+00 4.004e-03 -1.423e-02 -1.964e-02
23 1 7.435e+00 3.641e-01 3.895e+00 -3.780e-04 -2.556e-02 -1.396e-02
24 1 9.207e+00 2.124e+00 3.892e+00 -2.783e-03 -1.468e-02 -1.867e-02
25 1 3.526e-01 3.896e+00 3.893e+00 8.048e-04 -1.696e-02 -1.864e-02
26 1 3.898e+00 3.899e+00 3.894e+00 1.488e-04 -1.774e-02 -1.838e-02
27 1 7.436e+00 3.887e+00 3.893e+00 -7.843e-04 3.244e-03 -2.490e-02
28 1 2.124e+00 3.526e-01 5.663e+00 3.950e-04 -1.691e-03 7.901e-04
29 1 3.525e-01 2.123e+00 5.664e+00 2.058e-03 -8.308e-04 -2.986e-03
30 1 5.665e+00 3.506e-01 5.664e+00 -7.331e-04 -3.497e-04 6.595e-04
31 1 3.894e+00 2.123e+00 5.660e+00 1.106e-03 -1.358e-03 6.679e-04
32 1 9.202e+00 3.505e-01 5.663e+00 6.139e-04 8.685e-05 1.286e-03
33 1 7.433e+00 2.123e+00 5.666e+00 -3.931e-04 -1.291e-02 -2.121e-02
34 1 2.122e+00 3.893e+00 5.663e+00 4.795e-04 1.227e-03 -5.987e-04
35 1 5.666e+00 3.896e+00 5.664e+00 -3.782e-04 -1.734e-02 -1.756e-02
36 1 9.202e+00 3.896e+00 5.661e+00 1.707e-03 -1.735e-02 -1.884e-02
37 1 3.531e-01 3.525e-01 7.432e+00 1.058e-04 -8.664e-04 4.112e-04
38 1 2.124e+00 2.124e+00 7.436e+00 1.564e-03 -5.768e-04 -2.858e-04
39 1 2.124e+00 3.519e-01 9.204e+00 1.185e-05 1.693e-03 8.118e-04
40 1 3.538e-01 2.122e+00 9.204e+00 -2.747e-04 8.454e-04 4.331e-04
41 1 3.896e+00 3.543e-01 7.433e+00 3.095e-04 -1.224e-03 -1.498e-03
42 1 5.664e+00 2.123e+00 7.434e+00 9.905e-06 -1.599e-03 8.330e-04
43 1 5.664e+00 3.534e-01 9.205e+00 8.035e-04 5.748e-04 1.823e-04
44 1 3.896e+00 2.123e+00 9.204e+00 3.285e-04 -2.699e-04 -6.438e-04
45 1 7.434e+00 3.508e-01 7.431e+00 9.923e-04 -2.300e-03 -1.967e-03
46 1 9.204e+00 2.123e+00 7.432e+00 7.690e-04 -3.646e-04 -7.030e-04
47 1 9.202e+00 3.537e-01 9.204e+00 4.146e-04 -7.643e-04 -1.292e-03
48 1 7.436e+00 2.124e+00 9.204e+00 1.174e-03 -1.292e-02 -1.568e-02
49 1 3.531e-01 3.894e+00 7.433e+00 7.157e-04 3.105e-04 9.346e-04
50 1 2.123e+00 3.895e+00 9.204e+00 1.567e-04 -1.377e-03 7.294e-04
51 1 3.896e+00 3.894e+00 7.432e+00 1.049e-03 -1.137e-03 -1.279e-03
52 1 5.665e+00 3.894e+00 9.203e+00 2.978e-03 -1.672e-02 -1.400e-02
53 1 7.433e+00 3.895e+00 7.432e+00 -2.557e-03 -2.223e-02 -1.287e-02
54 1 9.202e+00 3.894e+00 9.202e+00 -9.446e-04 -1.645e-02 -1.633e-02
55 1 2.125e+00 5.665e+00 3.551e-01 1.280e-03 -1.773e-02 -1.814e-02
56 1 3.504e-01 5.667e+00 2.126e+00 1.165e-02 -1.906e-02 -1.685e-02
57 1 5.665e+00 5.664e+00 3.551e-01 8.896e-03 -1.963e-02 -1.098e-02
58 1 3.895e+00 5.665e+00 2.126e+00 -1.086e-02 -1.810e-02 -1.841e-02
59 1 9.202e+00 5.665e+00 3.561e-01 -7.203e-03 -1.866e-02 -9.299e-03
60 1 7.434e+00 5.674e+00 2.133e+00 1.257e-04 1.735e+00 1.736e+00
61 1 3.504e-01 7.434e+00 3.578e-01 1.899e-04 -1.781e-02 -1.849e-02
62 1 2.124e+00 9.203e+00 3.556e-01 1.023e-04 -1.294e-03 -7.837e-04
63 1 2.124e+00 7.434e+00 2.120e+00 1.404e-03 -1.511e-02 -1.519e-02
64 1 3.523e-01 9.201e+00 2.126e+00 -1.265e-03 -1.702e-02 -1.888e-02
65 1 3.898e+00 7.435e+00 3.579e-01 3.999e-04 -1.807e-02 -1.822e-02
66 1 5.666e+00 9.204e+00 3.558e-01 3.360e-04 -1.728e-02 -1.746e-02
67 1 5.674e+00 7.434e+00 2.133e+00 1.668e-03 -2.509e-02 -2.417e-02
68 1 3.896e+00 9.201e+00 2.127e+00 2.158e-03 -1.795e-02 -1.760e-02
69 1 7.433e+00 7.432e+00 3.452e-01 2.383e-04 -2.539e-02 7.825e-04
70 1 9.203e+00 9.202e+00 3.551e-01 4.858e-04 -1.774e-02 -1.522e-02
71 1 9.195e+00 7.434e+00 2.134e+00 2.867e-04 -2.485e-02 -2.572e-02
72 1 7.434e+00 9.196e+00 2.133e+00 -7.945e-05 3.283e-03 -2.498e-02
73 1 2.123e+00 5.663e+00 3.893e+00 1.609e-03 -1.535e-02 -1.463e-02
74 1 5.674e+00 5.674e+00 3.893e+00 6.052e-04 -2.531e-02 -2.693e-02
75 1 9.194e+00 5.674e+00 3.892e+00 -1.403e-03 -2.548e-02 -2.520e-02
76 1 3.638e-01 7.433e+00 3.895e+00 -1.059e-02 -1.946e-02 -1.932e-02
77 1 2.123e+00 9.206e+00 3.894e+00 8.693e-05 -6.629e-04 -1.193e-03
78 1 3.885e+00 7.435e+00 3.894e+00 1.251e-02 -1.864e-02 -1.873e-02
79 1 5.675e+00 9.197e+00 3.893e+00 -6.818e-03 -9.285e-03 -1.804e-02
80 1 9.195e+00 9.196e+00 3.895e+00 8.374e-03 -9.511e-03 -1.867e-02
81 1 3.520e-01 5.667e+00 5.662e+00 -1.475e-03 -1.890e-02 -1.573e-02
82 1 3.896e+00 5.666e+00 5.663e+00 4.779e-04 -1.646e-02 -1.844e-02
83 1 7.435e+00 5.674e+00 5.656e+00 -1.663e-04 -2.422e-02 1.823e-03
84 1 2.125e+00 7.432e+00 5.665e+00 2.049e-03 -1.598e-03 8.440e-04
85 1 3.513e-01 9.203e+00 5.662e+00 -3.200e-04 -8.071e-04 -2.521e-04
86 1 5.673e+00 7.434e+00 5.654e+00 -6.040e-03 -1.792e-02 -9.940e-03
87 1 3.898e+00 9.204e+00 5.663e+00 -1.311e-03 6.351e-04 -2.279e-03
88 1 9.194e+00 7.435e+00 5.656e+00 6.437e-03 -1.989e-02 -9.650e-03
89 1 7.433e+00 9.195e+00 5.655e+00 3.777e-04 -1.062e-02 -1.084e-02
90 1 2.124e+00 5.664e+00 7.433e+00 -2.259e-03 9.147e-04 -1.326e-03
91 1 3.542e-01 5.664e+00 9.201e+00 -3.625e-03 -1.999e-02 -1.451e-02
92 1 5.666e+00 5.666e+00 7.432e+00 -3.575e-03 -1.799e-02 -1.529e-02
93 1 3.894e+00 5.665e+00 9.203e+00 2.024e-03 -1.873e-02 -1.207e-02
94 1 9.202e+00 5.667e+00 7.431e+00 3.063e-03 -2.064e-02 -1.280e-02
95 1 7.436e+00 5.662e+00 9.206e+00 9.121e-04 -1.589e-02 -2.598e-02
96 1 3.513e-01 7.436e+00 7.430e+00 -1.113e-03 5.546e-04 -7.297e-04
97 1 2.125e+00 9.203e+00 7.433e+00 3.224e-04 -9.898e-04 -1.467e-04
98 1 2.123e+00 7.433e+00 9.203e+00 1.997e-03 6.240e-04 2.466e-05
99 1 3.540e-01 9.203e+00 9.205e+00 6.837e-04 1.930e-03 1.878e-03
100 1 3.899e+00 7.434e+00 7.431e+00 9.381e-04 -2.161e-03 -1.156e-04
101 1 5.665e+00 9.203e+00 7.432e+00 5.494e-04 -2.061e-03 6.633e-04
102 1 5.663e+00 7.432e+00 9.203e+00 1.947e-03 -1.846e-02 -1.500e-02
103 1 3.895e+00 9.203e+00 9.204e+00 -6.941e-04 -4.504e-04 6.517e-04
104 1 7.433e+00 7.434e+00 7.443e+00 -9.175e-04 -1.597e-02 -2.427e-02
105 1 9.203e+00 9.202e+00 7.431e+00 6.380e-04 -1.492e-03 1.757e-03
106 1 9.204e+00 7.435e+00 9.204e+00 -1.725e-03 -1.924e-02 -1.368e-02
107 1 7.435e+00 9.205e+00 9.205e+00 -2.221e-04 -1.958e-02 -1.334e-02
ITEM: TIMESTEP
0
ITEM: NUMBER OF ATOMS
107
ITEM: BOX BOUNDS xy xz yz pp pp pp
                     0.00000000000000e+00 1.06000000000000e+01 0.00000000000000e+00
0.00000000000000e+00	1.06000000000000e+01	0.00000000000000e+00
0.00000000000000e+00	1.06000000000000e+01	0.00000000000000e+00
ITEM: ATOMS id type x y z DisplacementX DisplacementY DisplacementZ
1 1 3.516e-01 3.525e-01 3.561e-01 -6.119e-04 -7.742e-04 1.387e-03
2 1 2.126e+00 2.124e+00 3.520e-01 4.634e-05 1.044e-03 1.275e-04
3 1 2.123e+00 3.525e-01 2.124e+00 -1.492e-02 -2.828e-03 -1.852e-02
4 1 3.530e-01 2.123e+00 2.125e+00 1.921e-03 -1.101e-03 2.186e-04
5 1 3.896e+00 3.521e-01 3.562e-01 -1.525e-02 -3.741e-03 -1.530e-02
6 1 5.664e+00 2.124e+00 3.540e-01 -1.710e-02 -9.474e-04 -1.888e-02
7 1 5.667e+00 3.519e-01 2.127e+00 -1.875e-02 1.094e-02 -1.721e-02
8 1 3.897e+00 2.124e+00 2.125e+00 -1.936e-02 -5.408e-04 -1.546e-02
9 1 7.434e+00 3.516e-01 3.572e-01 -1.878e-02 5.739e-04 -1.648e-02
10 1 9.204e+00 2.124e+00 3.560e-01 9.836e-04 -9.511e-04 1.633e-03
11 1 9.202e+00 3.516e-01 2.125e+00 -1.699e-02 -1.235e-03 -1.996e-02
12 1 7.433e+00 2.123e+00 2.124e+00 -1.462e-02 4.789e-04 -1.475e-02
13 1 3.539e-01 3.896e+00 3.552e-01 3.232e-04 5.423e-04 1.896e-03
14 1 2.124e+00 3.893e+00 2.125e+00 -1.498e-02 4.759e-03 -1.647e-02
15 1 3.896e+00 3.894e+00 3.565e-01 -1.558e-02 1.955e-03 -1.428e-02
16 1 5.667e+00 3.896e+00 2.127e+00 -1.835e-02 -1.221e-02 -1.713e-02
17 1 7.433e+00 3.899e+00 3.570e-01 -1.613e-02 -4.558e-04 -1.784e-02
18 1 9.202e+00 3.896e+00 2.125e+00 -1.835e-02 -2.199e-05 -1.653e-02
19 1 3.509e-01 3.511e-01 3.894e+00 -1.446e-03 -1.456e-03 6.018e-04
20 1 2.124e+00 2.125e+00 3.892e+00 1.194e-04 -3.291e-04 1.783e-04
21 1 3.898e+00 3.508e-01 3.894e+00 -1.947e-02 1.915e-03 -1.820e-02
22 1 5.660e+00 2.125e+00 3.895e+00 -1.528e-02 5.063e-04 -1.306e-02
23 1 7.435e+00 3.641e-01 3.895e+00 -1.910e-02 -1.139e-02 -1.796e-02
24 1 9.207e+00 2.124e+00 3.892e+00 4.086e-05 -4.056e-04 -6.642e-04
25 1 3.526e-01 3.896e+00 3.893e+00 -1.239e-03 -4.243e-04 -1.336e-03
26 1 3.898e+00 3.899e+00 3.894e+00 -1.729e-02 -1.639e-03 -1.778e-02
27 1 7.436e+00 3.887e+00 3.893e+00 -1.879e-02 1.301e-02 -1.949e-02
28 1 2.124e+00 3.526e-01 5.663e+00 -2.437e-04 -2.582e-04 -1.596e-03
29 1 3.525e-01 2.123e+00 5.664e+00 -2.018e-03 7.084e-04 -1.551e-04
30 1 5.665e+00 3.506e-01 5.664e+00 -1.821e-02 -6.902e-04 -1.913e-02
31 1 3.894e+00 2.123e+00 5.660e+00 3.444e-04 -3.595e-04 5.296e-04
32 1 9.202e+00 3.505e-01 5.663e+00 -5.716e-04 9.726e-04 1.215e-03
33 1 7.433e+00 2.123e+00 5.666e+00 -1.053e-03 5.361e-04 -1.222e-04
34 1 2.122e+00 3.893e+00 5.663e+00 6.070e-04 -1.223e-03 5.765e-06
35 1 5.666e+00 3.896e+00 5.664e+00 -1.781e-02 1.526e-03 -1.819e-02
36 1 9.202e+00 3.896e+00 5.661e+00 2.669e-03 7.693e-04 -1.643e-03
37 1 3.531e-01 3.525e-01 7.432e+00 -9.544e-04 -1.120e-03 -3.626e-04
38 1 2.124e+00 2.124e+00 7.436e+00 8.086e-04 4.619e-04 -6.224e-04
39 1 2.124e+00 3.519e-01 9.204e+00 -1.202e-04 -3.764e-05 1.488e-03
40 1 3.538e-01 2.122e+00 9.204e+00 -1.795e-03 1.447e-04 1.914e-04
41 1 3.896e+00 3.543e-01 7.433e+00 -1.031e-03 -6.066e-04 5.980e-04
42 1 5.664e+00 2.123e+00 7.434e+00 -1.507e-04 -3.443e-04 -9.851e-04
43 1 5.664e+00 3.534e-01 9.205e+00 -1.757e-02 -3.210e-03 -1.413e-02
44 1 3.896e+00 2.123e+00 9.204e+00 5.287e-04 1.033e-03 -1.336e-03
45 1 7.434e+00 3.508e-01 7.431e+00 -6.604e-05 -4.292e-04 -2.606e-06
46 1 9.204e+00 2.123e+00 7.432e+00 -4.972e-04 8.669e-04 -1.867e-04
47 1 9.202e+00 3.537e-01 9.204e+00 -3.469e-04 -4.704e-04 -2.333e-03
48 1 7.436e+00 2.124e+00 9.204e+00 3.781e-04 -8.655e-04 5.745e-04
49 1 3.531e-01 3.894e+00 7.433e+00 -5.991e-04 -8.131e-04 -2.213e-04
50 1 2.123e+00 3.895e+00 9.204e+00 -2.190e-04 6.394e-04 2.281e-04
51 1 3.896e+00 3.894e+00 7.432e+00 -2.317e-05 6.243e-05 -2.208e-04
52 1 5.665e+00 3.894e+00 9.203e+00 -1.499e-02 2.969e-03 -1.290e-02
53 1 7.433e+00 3.895e+00 7.432e+00 -1.387e-03 1.526e-03 -5.464e-04
54 1 9.202e+00 3.894e+00 9.202e+00 3.010e-05 -1.004e-03 1.742e-03
55 1 2.125e+00 5.665e+00 3.551e-01 -1.308e-02 6.539e-04 -1.688e-02
56 1 3.504e-01 5.667e+00 2.126e+00 -1.400e-02 -3.814e-03 -1.855e-02
57 1 5.665e+00 5.664e+00 3.551e-01 -1.694e-02 8.445e-03 -8.759e-03
58 1 3.895e+00 5.665e+00 2.126e+00 -8.247e-03 7.380e-03 -1.808e-02
59 1 9.202e+00 5.665e+00 3.561e-01 -1.688e-02 -2.527e-04 -1.642e-02
60 1 7.434e+00 5.674e+00 2.133e+00 -2.539e-02 1.232e-03 -2.562e-02
61 1 3.504e-01 7.434e+00 3.578e-01 -1.441e-02 -5.156e-04 -2.334e-02
62 1 2.124e+00 9.203e+00 3.556e-01 -1.344e-02 -7.598e-04 -1.581e-02
63 1 2.124e+00 7.434e+00 2.120e+00 -2.413e-02 1.898e-03 -1.438e-02
64 1 3.523e-01 9.201e+00 2.126e+00 -1.439e-02 5.752e-03 -1.702e-02
65 1 3.898e+00 7.435e+00 3.579e-01 -1.204e-02 1.022e-03 -1.125e-02
66 1 5.666e+00 9.204e+00 3.558e-01 -1.967e-02 -7.993e-03 -8.878e-03
67 1 5.674e+00 7.434e+00 2.133e+00 1.737e+00 1.259e-03 1.734e+00
68 1 3.896e+00 9.201e+00 2.127e+00 -1.179e-02 -7.196e-03 -1.694e-02
69 1 7.433e+00 7.432e+00 3.452e-01 -2.301e-02 1.118e-03 1.883e-03
70 1 9.203e+00 9.202e+00 3.551e-01 -1.895e-02 -6.698e-04 -1.653e-02
71 1 9.195e+00 7.434e+00 2.134e+00 1.825e-03 -6.795e-04 -2.599e-02
72 1 7.434e+00 9.196e+00 2.133e+00 -2.446e-02 -1.778e-04 -2.493e-02
73 1 2.123e+00 5.663e+00 3.893e+00 -1.656e-02 2.554e-03 -1.747e-02
74 1 5.674e+00 5.674e+00 3.893e+00 -2.607e-02 -3.660e-04 -2.675e-02
75 1 9.194e+00 5.674e+00 3.892e+00 -9.395e-03 -7.194e-03 -1.796e-02
76 1 3.638e-01 7.433e+00 3.895e+00 -2.499e-02 -6.647e-04 -1.418e-02
77 1 2.123e+00 9.206e+00 3.894e+00 -1.366e-02 -4.421e-03 -1.841e-02
78 1 3.885e+00 7.435e+00 3.894e+00 6.948e-04 3.302e-04 -2.526e-02
79 1 5.675e+00 9.197e+00 3.893e+00 -2.567e-02 -1.158e-04 -2.688e-02
80 1 9.195e+00 9.196e+00 3.895e+00 -1.091e-02 6.470e-03 -1.771e-02
81 1 3.520e-01 5.667e+00 5.662e+00 6.601e-04 -7.899e-04 2.405e-04
82 1 3.896e+00 5.666e+00 5.663e+00 -1.776e-02 -5.782e-04 -1.783e-02
83 1 7.435e+00 5.674e+00 5.656e+00 -1.844e-02 -7.707e-03 -1.140e-02
84 1 2.125e+00 7.432e+00 5.665e+00 -1.378e-02 -3.173e-04 -2.148e-02
85 1 3.513e-01 9.203e+00 5.662e+00 -1.438e-03 -8.912e-04 -1.028e-04
86 1 5.673e+00 7.434e+00 5.654e+00 -2.691e-02 -8.622e-04 1.280e-03
87 1 3.898e+00 9.204e+00 5.663e+00 -1.786e-02 2.312e-03 -1.827e-02
88 1 9.194e+00 7.435e+00 5.656e+00 -9.374e-03 4.321e-04 -1.051e-02
89 1 7.433e+00 9.195e+00 5.655e+00 -1.772e-02 6.980e-03 -9.911e-03
90 1 2.124e+00 5.664e+00 7.433e+00 3.314e-04 1.368e-03 7.078e-05
91 1 3.542e-01 5.664e+00 9.201e+00 6.396e-04 9.303e-05 1.388e-04
92 1 5.666e+00 5.666e+00 7.432e+00 -1.770e-02 -2.293e-03 -1.343e-02
93 1 3.894e+00 5.665e+00 9.203e+00 -1.590e-02 2.003e-03 -1.313e-02
94 1 9.202e+00 5.667e+00 7.431e+00 1.254e-04 -1.177e-03 5.076e-04
95 1 7.436e+00 5.662e+00 9.206e+00 -1.904e-02 3.495e-03 -1.388e-02
96 1 3.513e-01 7.436e+00 7.430e+00 4.979e-04 -4.265e-04 -5.162e-04
97 1 2.125e+00 9.203e+00 7.433e+00 1.197e-05 1.416e-03 -5.892e-04
98 1 2.123e+00 7.433e+00 9.203e+00 -1.466e-02 3.229e-05 -1.288e-02
99 1 3.540e-01 9.203e+00 9.205e+00 -2.105e-04 1.095e-03 -1.982e-04
100 1 3.899e+00 7.434e+00 7.431e+00 -2.183e-02 5.754e-04 -1.282e-02
101 1 5.665e+00 9.203e+00 7.432e+00 -1.786e-02 3.943e-03 -1.328e-02
102 1 5.663e+00 7.432e+00 9.203e+00 -1.516e-02 1.345e-03 -2.647e-02
103 1 3.895e+00 9.203e+00 9.204e+00 -1.618e-02 -1.289e-03 -1.393e-02
104 1 7.433e+00 7.434e+00 7.443e+00 -1.337e-02 -7.779e-04 -2.670e-02
105 1 9.203e+00 9.202e+00 7.431e+00 -2.771e-04 9.598e-04 7.198e-04
106 1 9.204e+00 7.435e+00 9.204e+00 -2.263e-02 6.351e-04 -1.277e-02
107 1 7.435e+00 9.205e+00 9.205e+00 -1.782e-02 -2.530e-03 -1.316e-02
ITEM: TIMESTEP
0
ITEM: NUMBER OF ATOMS
107
ITEM: BOX BOUNDS xy xz yz pp pp pp
                     0.00000000000000e+00 1.06000000000000e+01 0.00000000000000e+00
0.00000000000000e+00	1.06000000000000e+01	0.00000000000000e+00
0.00000000000000e+00	1.06000000000000e+01	0.00000000000000e+00
ITEM: ATOMS id type x y z DisplacementX DisplacementY DisplacementZ
1 1 3.516e-01 3.525e-01 3.561e-01 1.517e-02 -5.928e-04 -1.677e-02
2 1 2.126e+00 2.124e+00 3.520e-01 7.220e-04 -1.096e-03 -3.467e-05
3 1 2.123e+00 3.525e-01 2.124e+00 1.404e-02 -2.853e-03 -1.985e-02
4 1 3.530e-01 2.123e+00 2.125e+00 1.948e-02 -1.074e-03 -1.757e-02
5 1 3.896e+00 3.521e-01 3.562e-01 -4.863e-04 -8.569e-06 -8.019e-05
6 1 5.664e+00 2.124e+00 3.540e-01 -2.066e-03 -1.109e-03 -9.207e-04
7 1 5.667e+00 3.519e-01 2.127e+00 1.703e-02 -1.865e-03 -1.905e-02
8 1 3.897e+00 2.124e+00 2.125e+00 -4.662e-04 1.253e-03 2.366e-03
9 1 7.434e+00 3.516e-01 3.572e-01 1.794e-02 4.771e-04 -1.882e-02
10 1 9.204e+00 2.124e+00 3.560e-01 1.671e-02 7.756e-04 -2.052e-02
11 1 9.202e+00 3.516e-01 2.125e+00 1.780e-02 1.134e-02 -1.878e-02
12 1 7.433e+00 2.123e+00 2.124e+00 1.480e-02 -7.900e-04 -1.546e-02
13 1 3.539e-01 3.896e+00 3.552e-01 1.461e-02 2.009e-03 -1.731e-02
14 1 2.124e+00 3.893e+00 2.125e+00 1.307e-02 1.562e-03 -1.653e-02
15 1 3.896e+00 3.894e+00 3.565e-01 -3.379e-04 1.370e-03 -7.945e-05
16 1 5.667e+00 3.896e+00 2.127e+00 2.003e-02 2.172e-03 -1.534e-02
17 1 7.433e+00 3.899e+00 3.570e-01 1.748e-02 1.106e-03 -1.849e-02
18 1 9.202e+00 3.896e+00 2.125e+00 1.882e-02 -1.230e-02 -1.737e-02
19 1 3.509e-01 3.511e-01 3.894e+00 1.847e-02 -6.381e-04 -1.890e-02
20 1 2.124e+00 2.125e+00 3.892e+00 8.325e-04 -5.145e-04 -1.777e-03
21 1 3.898e+00 3.508e-01 3.894e+00 -6.904e-04 -1.340e-03 -1.553e-03
22 1 5.660e+00 2.125e+00 3.895e+00 -2.785e-05 4.948e-04 2.328e-03
23 1 7.435e+00 3.641e-01 3.895e+00 1.809e-02 -1.204e-02 -1.763e-02
24 1 9.207e+00 2.124e+00 3.892e+00 1.630e-02 -7.731e-04 -1.600e-02
25 1 3.526e-01 3.896e+00 3.893e+00 1.732e-02 -1.735e-03 -1.858e-02
26 1 3.898e+00 3.899e+00 3.894e+00 1.550e-04 -3.130e-04 -4.789e-04
27 1 7.436e+00 3.887e+00 3.893e+00 1.704e-02 9.913e-03 -1.889e-02
28 1 2.124e+00 3.526e-01 5.663e+00 -7.259e-04 1.564e-03 -1.146e-04
29 1 3.525e-01 2.123e+00 5.664e+00 -4.223e-04 -1.163e-04 6.143e-05
30 1 5.665e+00 3.506e-01 5.664e+00 1.149e-03 -8.142e-04 -9.784e-05
31 1 3.894e+00 2.123e+00 5.660e+00 1.141e-03 -3.007e-04 2.281e-04
32 1 9.202e+00 3.505e-01 5.663e+00 1.882e-02 -7.323e-04 -1.815e-02
33 1 7.433e+00 2.123e+00 5.666e+00 4.736e-04 -1.221e-03 -9.444e-05
34 1 2.122e+00 3.893e+00 5.663e+00 -1.324e-03 1.935e-03 4.931e-04
35 1 5.666e+00 3.896e+00 5.664e+00 -2.079e-04 5.915e-04 -2.078e-03
36 1 9.202e+00 3.896e+00 5.661e+00 1.682e-02 -2.842e-04 -1.773e-02
37 1 3.531e-01 3.525e-01 7.432e+00 -1.505e-03 5.571e-04 3.318e-04
38 1 2.124e+00 2.124e+00 7.436e+00 1.818e-03 -1.979e-05 -7.842e-04
39 1 2.124e+00 3.519e-01 9.204e+00 1.040e-04 -7.790e-04 -1.127e-03
40 1 3.538e-01 2.122e+00 9.204e+00 3.585e-06 6.696e-04 1.602e-03
41 1 3.896e+00 3.543e-01 7.433e+00 -3.900e-04 -2.724e-03 -1.108e-03
42 1 5.664e+00 2.123e+00 7.434e+00 1.082e-03 -1.730e-04 -8.374e-04
43 1 5.664e+00 3.534e-01 9.205e+00 4.598e-04 2.258e-03 8.665e-04
44 1 3.896e+00 2.123e+00 9.204e+00 1.780e-03 -2.239e-03 1.281e-03
45 1 7.434e+00 3.508e-01 7.431e+00 9.494e-05 -1.288e-04 1.173e-03
46 1 9.204e+00 2.123e+00 7.432e+00 9.315e-04 -7.042e-04 -9.918e-04
47 1 9.202e+00 3.537e-01 9.204e+00 1.679e-02 -3.438e-03 -1.329e-02
48 1 7.436e+00 2.124e+00 9.204e+00 -8.711e-04 7.462e-04 2.907e-04
49 1 3.531e-01 3.894e+00 7.433e+00 1.398e-03 -6.882e-04 -1.221e-03
50 1 2.123e+00 3.895e+00 9.204e+00 -6.202e-04 1.675e-03 1.919e-03
51 1 3.896e+00 3.894e+00 7.432e+00 7.283e-04 9.921e-04 -2.272e-04
52 1 5.665e+00 3.894e+00 9.203e+00 -6.111e-04 1.705e-03 -1.908e-04
53 1 7.433e+00 3.895e+00 7.432e+00 -3.081e-03 -2.726e-04 6.321e-04
54 1 9.202e+00 3.894e+00 9.202e+00 1.703e-02 1.659e-03 -1.227e-02
55 1 2.125e+00 5.665e+00 3.551e-01 1.407e-02 1.377e-03 -1.477e-02
56 1 3.504e-01 5.667e+00 2.126e+00 9.181e-03 7.791e-03 -1.826e-02
57 1 5.665e+00 5.664e+00 3.551e-01 1.757e-02 5.391e-04 -1.721e-02
58 1 3.895e+00 5.665e+00 2.126e+00 1.389e-02 -3.198e-03 -1.772e-02
59 1 9.202e+00 5.665e+00 3.561e-01 1.808e-02 7.342e-03 -1.084e-02
60 1 7.434e+00 5.674e+00 2.133e+00 2.520e-02 -3.652e-04 -2.713e-02
61 1 3.504e-01 7.434e+00 3.578e-01 1.188e-02 -1.344e-03 -1.053e-02
62 1 2.124e+00 9.203e+00 3.556e-01 1.490e-02 5.680e-04 -1.474e-02
63 1 2.124e+00 7.434e+00 2.120e+00 2.489e-02 8.852e-04 -1.458e-02
64 1 3.523e-01 9.201e+00 2.126e+00 1.252e-02 -7.857e-03 -1.876e-02
65 1 3.898e+00 7.435e+00 3.579e-01 1.365e-02 2.458e-04 -2.348e-02
66 1 5.666e+00 9.204e+00 3.558e-01 1.410e-02 2.437e-05 -1.792e-02
67 1 5.674e+00 7.434e+00 2.133e+00 -2.392e-03 -5.385e-04 -2.607e-02
68 1 3.896e+00 9.201e+00 2.127e+00 1.557e-02 2.681e-03 -1.828e-02
69 1 7.433e+00 7.432e+00 3.452e-01 2.676e-02 6.022e-05 2.102e-03
70 1 9.203e+00 9.202e+00 3.551e-01 1.950e-02 -8.309e-03 -8.806e-03
71 1 9.195e+00 7.434e+00 2.134e+00 -1.734e+00 -8.981e-04 1.735e+00
72 1 7.434e+00 9.196e+00 2.133e+00 2.609e-02 2.577e-04 -2.749e-02
73 1 2.123e+00 5.663e+00 3.893e+00 1.709e-02 4.469e-03 -1.757e-02
74 1 5.674e+00 5.674e+00 3.893e+00 9.060e-03 -7.506e-03 -1.969e-02
75 1 9.194e+00 5.674e+00 3.892e+00 2.589e-02 3.551e-04 -2.522e-02
76 1 3.638e-01 7.433e+00 3.895e+00 -3.029e-03 1.672e-04 -2.470e-02
77 1 2.123e+00 9.206e+00 3.894e+00 1.601e-02 -2.526e-03 -1.726e-02
78 1 3.885e+00 7.435e+00 3.894e+00 2.588e-02 -8.682e-04 -1.379e-02
79 1 5.675e+00 9.197e+00 3.893e+00 1.059e-02 7.323e-03 -1.888e-02
80 1 9.195e+00 9.196e+00 3.895e+00 2.618e-02 3.055e-04 -2.617e-02
81 1 3.520e-01 5.667e+00 5.662e+00 1.895e-02 -1.732e-03 -1.557e-02
82 1 3.896e+00 5.666e+00 5.663e+00 -1.792e-04 3.726e-04 2.289e-04
83 1 7.435e+00 5.674e+00 5.656e+00 1.852e-02 -6.553e-03 -1.141e-02
84 1 2.125e+00 7.432e+00 5.665e+00 1.376e-02 -1.030e-03 -2.178e-02
85 1 3.513e-01 9.203e+00 5.662e+00 1.780e-02 1.535e-03 -1.599e-02
86 1 5.673e+00 7.434e+00 5.654e+00 1.235e-02 -7.474e-04 -1.043e-02
87 1 3.898e+00 9.204e+00 5.663e+00 -1.543e-03 1.396e-04 -1.403e-03
88 1 9.194e+00 7.435e+00 5.656e+00 2.577e-02 -7.422e-04 7.080e-04
89 1 7.433e+00 9.195e+00 5.655e+00 1.680e-02 7.475e-03 -8.788e-03
90 1 2.124e+00 5.664e+00 7.433e+00 1.476e-04 -3.557e-04 -1.175e-03
91 1 3.542e-01 5.664e+00 9.201e+00 1.641e-02 2.137e-03 -1.405e-02
92 1 5.666e+00 5.666e+00 7.432e+00 8.770e-04 6.605e-04 -9.088e-05
93 1 3.894e+00 5.665e+00 9.203e+00 2.201e-03 3.470e-04 7.653e-04
94 1 9.202e+00 5.667e+00 7.431e+00 1.657e-02 -3.164e-03 -1.515e-02
95 1 7.436e+00 5.662e+00 9.206e+00 1.575e-02 3.016e-03 -1.669e-02
96 1 3.513e-01 7.436e+00 7.430e+00 2.085e-02 -4.150e-04 -1.419e-02
97 1 2.125e+00 9.203e+00 7.433e+00 -4.274e-04 1.884e-04 -5.017e-04
98 1 2.123e+00 7.433e+00 9.203e+00 1.721e-02 -1.432e-03 -1.407e-02
99 1 3.540e-01 9.203e+00 9.205e+00 1.451e-02 -4.069e-03 -1.428e-02
100 1 3.899e+00 7.434e+00 7.431e+00 1.817e-03 -1.162e-03 -6.861e-04
101 1 5.665e+00 9.203e+00 7.432e+00 1.836e-03 2.733e-03 -1.036e-03
102 1 5.663e+00 7.432e+00 9.203e+00 2.156e-02 9.783e-04 -1.370e-02
103 1 3.895e+00 9.203e+00 9.204e+00 4.609e-05 9.813e-04 -1.031e-03
104 1 7.433e+00 7.434e+00 7.443e+00 1.351e-02 2.197e-04 -2.497e-02
105 1 9.203e+00 9.202e+00 7.431e+00 1.766e-02 2.289e-03 -1.356e-02
106 1 9.204e+00 7.435e+00 9.204e+00 1.589e-02 -3.022e-04 -2.546e-02
107 1 7.435e+00 9.205e+00 9.205e+00 1.908e-02 -2.934e-03 -1.314e-02
ITEM: TIMESTEP
0
ITEM: NUMBER OF ATOMS
107
ITEM: BOX BOUNDS xy xz yz pp pp pp
                     0.00000000000000e+00 1.06000000000000e+01 0.00000000000000e+00
0.00000000000000e+00	1.06000000000000e+01	0.00000000000000e+00
0.00000000000000e+00	1.06000000000000e+01	0.00000000000000e+00
ITEM: ATOMS id type x y z DisplacementX DisplacementY DisplacementZ
1 1 3.516e-01 3.525e-01 3.561e-01 -1.314e-03 1.556e-02 -1.560e-02
2 1 2.126e+00 2.124e+00 3.520e-01 1.681e-03 2.225e-04 -2.897e-04
3 1 2.123e+00 3.525e-01 2.124e+00 5.244e-04 1.799e-02 -1.861e-02
4 1 3.530e-01 2.123e+00 2.125e+00 -3.118e-03 1.291e-02 -1.476e-02
5 1 3.896e+00 3.521e-01 3.562e-01 1.646e-03 1.661e-02 -1.429e-02
6 1 5.664e+00 2.124e+00 3.540e-01 1.404e-03 1.433e-02 -1.555e-02
7 1 5.667e+00 3.519e-01 2.127e+00 7.232e-03 1.025e-02 -1.938e-02
8 1 3.897e+00 2.124e+00 2.125e+00 3.242e-03 1.422e-02 -1.860e-02
9 1 7.434e+00 3.516e-01 3.572e-01 -5.999e-04 1.312e-02 -1.083e-02
10 1 9.204e+00 2.124e+00 3.560e-01 -2.055e-03 1.255e-02 -1.607e-02
11 1 9.202e+00 3.516e-01 2.125e+00 -7.440e-03 9.745e-03 -1.819e-02
12 1 7.433e+00 2.123e+00 2.124e+00 -2.168e-03 2.381e-02 -1.320e-02
13 1 3.539e-01 3.896e+00 3.552e-01 -4.606e-04 8.765e-04 -1.914e-04
14 1 2.124e+00 3.893e+00 2.125e+00 6.790e-04 3.381e-04 -1.488e-03
15 1 3.896e+00 3.894e+00 3.565e-01 -2.936e-04 2.157e-04 9.006e-04
16 1 5.667e+00 3.896e+00 2.127e+00 -2.906e-03 1.511e-02 -1.928e-02
17 1 7.433e+00 3.899e+00 3.570e-01 1.218e-03 1.570e-02 -2.239e-02
18 1 9.202e+00 3.896e+00 2.125e+00 2.841e-03 1.420e-02 -1.770e-02
19 1 3.509e-01 3.511e-01 3.894e+00 -1.893e-04 1.862e-02 -1.953e-02
20 1 2.124e+00 2.125e+00 3.892e+00 -1.799e-03 -1.133e-03 1.793e-03
21 1 3.898e+00 3.508e-01 3.894e+00 9.202e-04 1.723e-02 -1.863e-02
22 1 5.660e+00 2.125e+00 3.895e+00 4.046e-03 1.379e-02 -1.750e-02
23 1 7.435e+00 3.641e-01 3.895e+00 6.916e-04 -6.694e-04 -2.507e-02
24 1 9.207e+00 2.124e+00 3.892e+00 -3.164e-03 1.569e-02 -1.898e-02
25 1 3.526e-01 3.896e+00 3.893e+00 9.304e-05 5.342e-04 3.704e-04
26 1 3.898e+00 3.899e+00 3.894e+00 7.971e-04 -1.450e-04 3.468e-04
27 1 7.436e+00 3.887e+00 3.893e+00 -8.404e-04 2.422e-02 -1.367e-02
28 1 2.124e+00 3.526e-01 5.663e+00 5.728e-04 1.232e-03 -1.855e-03
29 1 3.525e-01 2.123e+00 5.664e+00 3.076e-04 3.450e-04 2.400e-04
30 1 5.665e+00 3.506e-01 5.664e+00 -1.132e-03 1.652e-02 -1.756e-02
31 1 3.894e+00 2.123e+00 5.660e+00 -1.009e-03 -2.238e-04 9.392e-04
32 1 9.202e+00 3.505e-01 5.663e+00 7.478e-04 1.688e-02 -1.794e-02
33 1 7.433e+00 2.123e+00 5.666e+00 4.027e-04 1.542e-02 -2.226e-02
34 1 2.122e+00 3.893e+00 5.663e+00 2.540e-03 -7.657e-04 7.928e-04
35 1 5.666e+00 3.896e+00 5.664e+00 -1.374e-03 -4.184e-04 3.427e-04
36 1 9.202e+00 3.896e+00 5.661e+00 3.081e-04 4.511e-04 9.187e-04
37 1 3.531e-01 3.525e-01 7.432e+00 -1.182e-03 6.135e-05 1.522e-03
38 1 2.124e+00 2.124e+00 7.436e+00 -3.790e-04 2.825e-03 1.691e-05
39 1 2.124e+00 3.519e-01 9.204e+00 1.650e-03 -5.249e-04 -2.807e-04
40 1 3.538e-01 2.122e+00 9.204e+00 1.055e-03 -1.881e-03 1.419e-03
41 1 3.896e+00 3.543e-01 7.433e+00 -9.843e-04 -3.027e-04 -1.647e-03
42 1 5.664e+00 2.123e+00 7.434e+00 2.213e-03 1.966e-04 1.503e-04
43 1 5.664e+00 3.534e-01 9.205e+00 5.880e-04 1.450e-02 -1.326e-02
44 1 3.896e+00 2.123e+00 9.204e+00 3.239e-04 1.830e-03 -6.028e-04
45 1 7.434e+00 3.508e-01 7.431e+00 1.127e-03 2.072e-02 -1.336e-02
46 1 9.204e+00 2.123e+00 7.432e+00 -2.125e-04 -4.357e-04 -2.090e-04
47 1 9.202e+00 3.537e-01 9.204e+00 -2.198e-03 1.521e-02 -1.440e-02
48 1 7.436e+00 2.124e+00 9.204e+00 -1.652e-04 1.321e-02 -1.423e-02
49 1 3.531e-01 3.894e+00 7.433e+00 2.451e-05 1.301e-03 1.515e-04
50 1 2.123e+00 3.895e+00 9.204e+00 -9.632e-04 -3.898e-04 -8.593e-04
51 1 3.896e+00 3.894e+00 7.432e+00 5.158e-04 3.549e-04 1.086e-03
52 1 5.665e+00 3.894e+00 9.203e+00 -1.662e-04 7.482e-04 5.799e-04
53 1 7.433e+00 3.895e+00 7.432e+00 4.012e-04 -1.386e-03 8.850e-04
54 1 9.202e+00 3.894e+00 9.202e+00 -2.307e-04 -9.501e-04 4.853e-04
55 1 2.125e+00 5.665e+00 3.551e-01 -1.459e-03 1.437e-03 -1.254e-03
56 1 3.504e-01 5.667e+00 2.126e+00 -1.124e-03 1.852e-02 -1.737e-02
57 1 5.665e+00 5.664e+00 3.551e-01 -3.807e-04 1.751e-02 -1.665e-02
58 1 3.895e+00 5.665e+00 2.126e+00 -2.223e-04 1.785e-02 -1.913e-02
59 1 9.202e+00 5.665e+00 3.561e-01 -1.108e-03 1.749e-02 -1.791e-02
60 1 7.434e+00 5.674e+00 2.133e+00 1.262e-03 -2.324e-03 -2.553e-02
61 1 3.504e-01 7.434e+00 3.578e-01 1.182e-03 1.758e-02 -1.975e-02
62 1 2.124e+00 9.203e+00 3.556e-01 2.883e-05 1.765e-02 -1.828e-02
63 1 2.124e+00 7.434e+00 2.120e+00 1.363e-03 1.429e-02 -1.530e-02
64 1 3.523e-01 9.201e+00 2.126e+00 1.145e-02 1.801e-02 -1.823e-02
65 1 3.898e+00 7.435e+00 3.579e-01 -2.791e-03 1.838e-02 -1.959e-02
66 1 5.666e+00 9.204e+00 3.558e-01 8.885e-03 1.729e-02 -1.133e-02
67 1 5.674e+00 7.434e+00 2.133e+00 -1.706e-03 2.457e-02 -2.603e-02
68 1 3.896e+00 9.201e+00 2.127e+00 -1.079e-02 1.841e-02 -1.832e-02
69 1 7.433e+00 7.432e+00 3.452e-01 1.219e-03 2.629e-02 2.065e-03
70 1 9.203e+00 9.202e+00 3.551e-01 -8.769e-03 2.081e-02 -8.675e-03
71 1 9.195e+00 7.434e+00 2.134e+00 -4.173e-04 2.451e-02 -2.464e-02
72 1 7.434e+00 9.196e+00 2.133e+00 2.762e-04 -1.737e+00 1.734e+00
73 1 2.123e+00 5.663e+00 3.893e+00 4.483e-04 -6.540e-04 2.343e-04
74 1 5.674e+00 5.674e+00 3.893e+00 -6.623e-03 9.865e-03 -1.801e-02
75 1 9.194e+00 5.674e+00 3.892e+00 6.505e-03 9.823e-03 -1.703e-02
76 1 3.638e-01 7.433e+00 3.895e+00 -1.302e-02 1.738e-02 -1.861e-02
77 1 2.123e+00 9.206e+00 3.894e+00 3.127e-04 1.381e-02 -1.718e-02
78 1 3.885e+00 7.435e+00 3.894e+00 1.104e-02 1.941e-02 -1.724e-02
79 1 5.675e+00 9.197e+00 3.893e+00 4.055e-04 2.644e-02 -2.649e-02
80 1 9.195e+00 9.196e+00 3.895e+00 2.647e-04 2.518e-02 -2.708e-02
81 1 3.520e-01 5.667e+00 5.662e+00 -1.090e-03 -1.985e-03 -7.887e-04
82 1 3.896e+00 5.666e+00 5.663e+00 -9.180e-04 -6.187e-04 1.146e-03
83 1 7.435e+00 5.674e+00 5.656e+00 -2.607e-03 1.103e-02 -1.179e-02
84 1 2.125e+00 7.432e+00 5.665e+00 -7.789e-04 -4.471e-04 -2.253e-04
85 1 3.513e-01 9.203e+00 5.662e+00 -2.632e-04 1.657e-02 -1.731e-02
86 1 5.673e+00 7.434e+00 5.654e+00 -7.231e-03 1.855e-02 -1.094e-02
87 1 3.898e+00 9.204e+00 5.663e+00 9.922e-04 1.928e-02 -1.784e-02
88 1 9.194e+00 7.435e+00 5.656e+00 8.057e-03 1.793e-02 -8.087e-03
89 1 7.433e+00 9.195e+00 5.655e+00 -5.124e-04 2.597e-02 1.767e-03
90 1 2.124e+00 5.664e+00 7.433e+00 -1.735e-03 7.100e-04 -1.311e-03
91 1 3.542e-01 5.664e+00 9.201e+00 1.110e-03 8.102e-04 -1.866e-03
92 1 5.666e+00 5.666e+00 7.432e+00 5.919e-05 6.231e-05 6.954e-04
93 1 3.894e+00 5.665e+00 9.203e+00 -3.015e-04 1.045e-04 -1.134e-03
94 1 9.202e+00 5.667e+00 7.431e+00 -7.426e-04 1.326e-03 -9.505e-04
95 1 7.436e+00 5.662e+00 9.206e+00 -3.916e-05 2.187e-02 -1.304e-02
96 1 3.513e-01 7.436e+00 7.430e+00 9.982e-04 2.220e-03 8.189e-04
97 1 2.125e+00 9.203e+00 7.433e+00 1.901e-03 2.266e-04 7.761e-04
98 1 2.123e+00 7.433e+00 9.203e+00 -2.885e-04 -4.365e-04 1.174e-04
99 1 3.540e-01 9.203e+00 9.205e+00 -1.349e-03 1.720e-02 -1.193e-02
100 1 3.899e+00 7.434e+00 7.431e+00 -8.717e-04 9.990e-04 3.003e-04
101 1 5.665e+00 9.203e+00 7.432e+00 -2.443e-03 1.932e-02 -1.276e-02
102 1 5.663e+00 7.432e+00 9.203e+00 3.797e-03 1.601e-02 -1.464e-02
103 1 3.895e+00 9.203e+00 9.204e+00 1.846e-03 1.751e-02 -1.298e-02
104 1 7.433e+00 7.434e+00 7.443e+00 2.706e-03 1.554e-02 -2.540e-02
105 1 9.203e+00 9.202e+00 7.431e+00 3.670e-03 1.833e-02 -1.362e-02
106 1 9.204e+00 7.435e+00 9.204e+00 -2.696e-03 1.786e-02 -1.425e-02
107 1 7.435e+00 9.205e+00 9.205e+00 -1.099e-03 1.652e-02 -2.616e-02