ITEM: TIMESTEP
0
ITEM: NUMBER OF ATOMS
6
ITEM: BOX BOUNDS xy xz yz pp pp pp
                     -5.00000000000000e-01 5.00000000000000e-01 0.00000000000000e+00
-5.00000000000000e-01	5.00000000000000e-01	0.00000000000000e+00
-5.00000000000000e-01	5.00000000000000e-01	0.00000000000000e+00
ITEM: ATOMS id type x y z DisplacementX DisplacementY DisplacementZ
1 1 2.000e-01 2.000e-01 2.000e-01 -2.340e-02 2.003e-02 3.906e-03
2 1 2.000e-01 0.000e+00 4.000e-01 3.600e-03 2.574e-03 7.073e-03
3 1 2.000e-01 2.000e-01 4.000e-01 1.767e-02 1.558e-02 1.842e-01
4 1 0.000e+00 2.000e-01 4.000e-01 7.417e-03 1.223e-02 -9.399e-03
5 1 2.000e-01 4.000e-01 4.000e-01 8.534e-03 4.445e-03 3.052e-03
6 1 4.000e-01 2.000e-01 4.000e-01 -5.750e-03 3.224e-03 -1.583e-02
ITEM: TIMESTEP
0
ITEM: NUMBER OF ATOMS
6
ITEM: BOX BOUNDS xy xz yz pp pp pp
                     -5.00000000000000e-01 5.00000000000000e-01 0.00000000000000e+00
-5.00000000000000e-01	5.00000000000000e-01	0.00000000000000e+00
-5.00000000000000e-01	5.00000000000000e-01	0.00000000000000e+00
ITEM: ATOMS id type x y z DisplacementX DisplacementY DisplacementZ
7 1 6.000e-01 2.000e-01 6.000e-01 -2.328e-03 -2.365e-02 6.888e-03
8 1 4.000e-01 2.000e-01 8.000e-01 1.343e-02 -7.378e-04 -1.397e-02
9 1 4.000e-01 2.000e-01 6.000e-01 -1.884e-01 -4.610e-03 1.078e-02
10 1 4.000e-01 4.000e-01 6.000e-01 8.776e-04 1.602e-03 -1.283e-02
11 1 4.000e-01 0.000e+00 6.000e-01 -1.878e-03 9.048e-03 -2.368e-03
12 1 4.000e-01 2.000e-01 4.000e-01 4.587e-03 -1.379e-02 1.893e-03
ITEM: TIMESTEP
0
ITEM: NUMBER OF ATOMS
6
ITEM: BOX BOUNDS xy xz yz pp pp pp
                     -5.00000000000000e-01 5.00000000000000e-01 0.00000000000000e+00
-5.00000000000000e-01	5.00000000000000e-01	0.00000000000000e+00
-5.00000000000000e-01	5.00000000000000e-01	0.00000000000000e+00
ITEM: ATOMS id type x y z DisplacementX DisplacementY DisplacementZ
13 1 2.000e-01 0.000e+00 4.000e-01 -1.031e-02 1.057e-03 1.433e-02
14 1 2.000e-01 8.000e-01 6.000e-01 -3.285e-05 1.421e-03 4.670e-03
15 1 2.000e-01 0.000e+00 8.000e-01 -1.600e-02 2.323e-03 4.136e-03
16 1 2.000e-01 0.000e+00 6.000e-01 8.614e-03 2.132e-01 1.004e-02
17 1 4.000e-01 0.000e+00 6.000e-01 -7.029e-04 2.527e-03 2.241e-03
18 1 0.000e+00 0.000e+00 6.000e-01 9.944e-03 5.682e-03 -2.759e-03
ITEM: TIMESTEP
0
ITEM: NUMBER OF ATOMS
6
ITEM: BOX BOUNDS xy xz yz pp pp pp
                     -5.00000000000000e-01 5.00000000000000e-01 0.00000000000000e+00
-5.00000000000000e-01	5.00000000000000e-01	0.00000000000000e+00
-5.00000000000000e-01	5.00000000000000e-01	0.00000000000000e+00
ITEM: ATOMS id type x y z DisplacementX DisplacementY DisplacementZ
19 1 0.000e+00 4.000e-01 6.000e-01 -3.928e-03 1.434e-02 -1.545e-02
20 1 2.000e-01 4.000e-01 4.000e-01 -1.066e-02 1.013e-05 -1.167e-02
21 1 2.000e-01 6.000e-01 6.000e-01 3.521e-03 1.004e-02 7.316e-03
22 1 4.000e-01 4.000e-01 6.000e-01 -1.507e-02 1.340e-02 6.848e-04
23 1 2.000e-01 4.000e-01 6.000e-01 -6.530e-04 -2.006e-01 -3.226e-03
24 1 2.000e-01 4.000e-01 8.000e-01 1.759e-02 -1.506e-02 1.034e-02
