ITEM: TIMESTEP
0
ITEM: NUMBER OF ATOMS
47
ITEM: BOX BOUNDS xy xz yz pp pp pp
                     0.00000000000000e+00 1.06200000000000e+01 0.00000000000000e+00
0.00000000000000e+00	1.06200000000000e+01	0.00000000000000e+00
0.00000000000000e+00	1.06200000000000e+01	0.00000000000000e+00
ITEM: ATOMS id type x y z DisplacementX DisplacementY DisplacementZ
1 1 3.520e+00 3.274e-04 -3.521e+00 -9.837e-03 -1.434e-04 1.078e-02
2 1 1.760e+00 1.770e+00 3.549e+00 -1.797e-02 -3.092e-03 1.440e-02
3 1 -3.552e+00 -1.772e+00 -1.763e+00 -1.616e-02 3.925e-03 1.714e-02
4 1 -3.547e+00 1.772e+00 -1.760e+00 -1.543e-02 -2.862e-03 1.657e-02
5 1 1.761e+00 -1.771e+00 3.549e+00 -1.955e-02 3.908e-03 1.504e-02
6 1 3.529e+00 3.538e+00 1.011e-02 -1.914e-02 -2.633e-03 1.862e-02
7 1 -8.928e-03 -3.538e+00 -3.528e+00 -1.727e-02 1.940e-03 1.783e-02
8 1 -7.643e-03 3.537e+00 -3.528e+00 -1.796e-02 1.320e-04 1.701e-02
9 1 3.529e+00 -3.537e+00 6.014e-03 -1.748e-02 1.943e-03 1.838e-02
10 1 -3.551e+00 -1.771e+00 1.778e+00 -1.409e-02 2.880e-03 1.640e-02
11 1 -3.550e+00 1.768e+00 1.779e+00 -1.373e-02 -9.402e-04 1.496e-02
12 1 -1.779e+00 -1.768e+00 3.551e+00 -1.578e-02 1.344e-03 1.464e-02
13 1 -1.778e+00 1.770e+00 3.550e+00 -1.409e-02 -4.565e-04 1.610e-02
14 1 -1.778e+00 -3.541e+00 1.778e+00 -1.317e-02 1.792e-03 1.473e-02
15 1 -1.781e+00 3.539e+00 1.777e+00 -1.487e-02 -1.561e-03 1.539e-02
16 1 1.760e+00 -1.760e+00 -3.521e+00 -1.745e-02 -8.169e-03 8.968e-03
17 1 1.761e+00 1.760e+00 -3.521e+00 -1.945e-02 7.156e-03 1.027e-02
18 1 3.524e+00 -1.762e+00 -1.760e+00 -8.396e-03 -7.530e-03 1.762e-02
19 1 3.523e+00 1.762e+00 -1.759e+00 -1.134e-02 9.817e-03 1.912e-02
20 1 1.762e+00 3.537e+00 1.775e+00 -1.715e-02 -3.377e-04 1.952e-02
21 1 -1.774e+00 -3.538e+00 -1.760e+00 -1.953e-02 -5.530e-04 1.748e-02
22 1 1.758e+00 -3.536e+00 1.776e+00 -1.797e-02 5.198e-04 1.966e-02
23 1 -1.776e+00 3.537e+00 -1.761e+00 -1.868e-02 -2.059e-04 1.844e-02
24 1 3.529e+00 1.768e+00 1.778e+00 -1.628e-02 5.415e-04 1.560e-02
25 1 -1.778e+00 -1.768e+00 -3.529e+00 -1.818e-02 -3.079e-04 1.663e-02
26 1 -1.777e+00 1.768e+00 -3.530e+00 -1.885e-02 -3.960e-04 1.756e-02
27 1 3.529e+00 -1.768e+00 1.777e+00 -1.701e-02 7.197e-05 1.715e-02
28 1 3.522e+00 9.860e-04 7.342e-04 1.819e-03 8.814e-04 2.351e-02
29 1 2.004e-03 1.319e-03 -3.520e+00 -2.467e-02 5.690e-04 -2.015e-03
30 1 1.761e+00 -3.550e+00 -1.761e+00 -2.043e-02 1.248e-02 1.939e-02
31 1 1.760e+00 3.550e+00 -1.759e+00 -2.051e-02 -1.000e-02 1.709e-02
32 1 -8.325e-03 3.538e+00 5.554e-03 -1.772e-02 9.742e-03 1.807e-02
33 1 -8.380e-03 -3.538e+00 9.116e-03 -1.809e-02 -1.144e-02 1.647e-02
34 1 -1.170e-02 1.133e-03 3.550e+00 -1.557e-02 3.861e-04 2.760e-02
35 1 -3.549e+00 -1.263e-03 9.697e-03 -2.505e-02 -1.094e-03 1.439e-02
36 1 -1.062e-03 9.954e-04 -5.247e-04 1.736e+00 2.664e-05 -1.735e+00
37 1 1.760e+00 1.761e+00 1.021e-03 -2.669e-02 2.558e-04 2.609e-02
38 1 -1.009e-03 -1.760e+00 -1.760e+00 -2.695e-02 1.025e-03 2.553e-02
39 1 -6.554e-04 1.762e+00 -1.761e+00 -2.592e-02 1.372e-03 2.554e-02
40 1 1.764e+00 -1.760e+00 8.388e-04 -2.583e-02 1.030e-03 2.539e-02
41 1 1.762e+00 7.250e-04 1.789e+00 -2.520e-02 -1.196e-04 -1.673e-04
42 1 -1.789e+00 -6.287e-04 -1.762e+00 2.358e-03 1.002e-03 2.501e-02
43 1 -6.263e-03 1.768e+00 1.777e+00 -1.848e-02 -6.998e-03 1.023e-02
44 1 -1.776e+00 -1.769e+00 7.545e-03 -8.621e-03 7.991e-03 1.713e-02
45 1 -8.448e-03 -1.768e+00 1.774e+00 -1.876e-02 6.668e-03 1.073e-02
46 1 -1.778e+00 1.768e+00 7.000e-03 -1.069e-02 -6.580e-03 2.027e-02
47 1 -1.775e+00 1.218e-03 1.776e+00 -1.060e-02 2.016e-03 9.874e-03
ITEM: TIMESTEP
0
ITEM: NUMBER OF ATOMS
47
ITEM: BOX BOUNDS xy xz yz pp pp pp
                     0.00000000000000e+00 1.06200000000000e+01 0.00000000000000e+00
0.00000000000000e+00	1.06200000000000e+01	0.00000000000000e+00
0.00000000000000e+00	1.06200000000000e+01	0.00000000000000e+00
ITEM: ATOMS id type x y z DisplacementX DisplacementY DisplacementZ
48 1 8.676e-04 3.520e+00 -3.521e+00 1.456e-03 -1.150e-02 9.726e-03
49 1 -1.772e+00 1.760e+00 3.549e+00 2.501e-03 -1.831e-02 1.395e-02
50 1 1.771e+00 -3.552e+00 -1.760e+00 -3.051e-03 -1.486e-02 1.734e-02
51 1 -1.772e+00 -3.550e+00 -1.760e+00 5.914e-03 -1.492e-02 1.700e-02
52 1 1.772e+00 1.762e+00 3.547e+00 -1.822e-03 -1.750e-02 1.541e-02
53 1 -3.537e+00 3.530e+00 6.828e-03 6.275e-04 -1.839e-02 1.620e-02
54 1 3.537e+00 -8.169e-03 -3.528e+00 -9.258e-04 -1.835e-02 1.866e-02
55 1 -3.536e+00 -7.230e-03 -3.530e+00 1.074e-03 -1.922e-02 1.738e-02
56 1 3.538e+00 3.529e+00 5.277e-03 -1.648e-03 -1.799e-02 1.727e-02
57 1 1.769e+00 -3.550e+00 1.778e+00 -6.814e-04 -1.449e-02 1.479e-02
58 1 -1.769e+00 -3.549e+00 1.778e+00 8.865e-04 -1.547e-02 1.680e-02
59 1 1.767e+00 -1.777e+00 3.550e+00 -2.544e-03 -1.738e-02 1.701e-02
60 1 -1.770e+00 -1.780e+00 3.549e+00 1.269e-03 -1.673e-02 1.485e-02
61 1 3.539e+00 -1.779e+00 1.778e+00 -2.594e-03 -1.452e-02 1.688e-02
62 1 -3.540e+00 -1.778e+00 1.778e+00 2.340e-03 -1.557e-02 1.449e-02
63 1 1.762e+00 1.759e+00 -3.521e+00 8.076e-03 -1.851e-02 8.928e-03
64 1 -1.760e+00 1.759e+00 -3.522e+00 -6.533e-03 -1.799e-02 1.055e-02
65 1 1.761e+00 3.521e+00 -1.763e+00 8.963e-03 -8.965e-03 1.764e-02
66 1 -1.760e+00 3.521e+00 -1.760e+00 -7.147e-03 -9.250e-03 1.736e-02
67 1 -3.537e+00 1.761e+00 1.776e+00 -5.974e-04 -1.753e-02 1.864e-02
68 1 3.536e+00 -1.775e+00 -1.760e+00 -8.693e-04 -1.778e-02 1.844e-02
69 1 3.538e+00 1.761e+00 1.777e+00 -3.517e-04 -1.835e-02 1.866e-02
70 1 -3.536e+00 -1.776e+00 -1.760e+00 1.392e-03 -1.895e-02 1.794e-02
71 1 -1.768e+00 3.529e+00 1.777e+00 1.167e-04 -1.704e-02 1.649e-02
72 1 1.769e+00 -1.777e+00 -3.530e+00 -7.547e-04 -1.751e-02 1.768e-02
73 1 -1.767e+00 -1.777e+00 -3.530e+00 -7.323e-04 -1.710e-02 1.704e-02
74 1 1.769e+00 3.528e+00 1.775e+00 -9.017e-04 -1.593e-02 1.711e-02
75 1 -3.752e-04 3.521e+00 4.602e-04 -1.902e-04 1.781e-03 2.566e-02
76 1 -1.109e-03 4.759e-04 -3.521e+00 -1.077e-03 -2.437e-02 -1.951e-03
77 1 3.550e+00 1.761e+00 -1.762e+00 -1.175e-02 -1.692e-02 2.083e-02
78 1 -3.550e+00 1.760e+00 -1.760e+00 1.209e-02 -1.797e-02 1.911e-02
79 1 -3.538e+00 -8.646e-03 7.883e-03 -9.303e-03 -1.799e-02 1.885e-02
80 1 3.537e+00 -8.447e-03 7.705e-03 1.183e-02 -1.801e-02 1.952e-02
81 1 1.136e-04 -9.285e-03 3.548e+00 -5.337e-04 -1.451e-02 2.557e-02
82 1 1.248e-03 -3.548e+00 1.044e-02 3.576e-04 -2.500e-02 1.481e-02
83 1 -5.940e-04 -3.665e-05 1.013e-03 1.197e-03 1.736e+00 -1.736e+00
84 1 -1.760e+00 1.762e+00 -1.235e-04 4.373e-04 -2.609e-02 2.629e-02
85 1 1.762e+00 5.799e-04 -1.761e+00 3.031e-04 -2.515e-02 2.654e-02
86 1 -1.763e+00 -9.696e-05 -1.762e+00 -4.905e-04 -2.534e-02 2.455e-02
87 1 1.760e+00 1.760e+00 -9.630e-04 -1.012e-03 -2.651e-02 2.484e-02
88 1 3.472e-04 1.761e+00 1.786e+00 -1.663e-03 -2.658e-02 -1.264e-03
89 1 3.306e-04 -1.788e+00 -1.762e+00 2.369e-05 3.179e-04 2.513e-02
90 1 -1.770e+00 -8.162e-03 1.775e+00 7.883e-03 -1.804e-02 9.549e-03
91 1 1.768e+00 -1.778e+00 8.004e-03 -8.697e-03 -9.433e-03 1.820e-02
92 1 1.767e+00 -7.741e-03 1.776e+00 -8.304e-03 -1.805e-02 1.043e-02
93 1 -1.767e+00 -1.778e+00 8.874e-03 7.782e-03 -1.056e-02 1.910e-02
94 1 -1.481e-03 -1.774e+00 1.776e+00 -7.382e-04 -9.380e-03 1.122e-02
ITEM: TIMESTEP
0
ITEM: NUMBER OF ATOMS
47
ITEM: BOX BOUNDS xy xz yz pp pp pp
                     0.00000000000000e+00 1.06200000000000e+01 0.00000000000000e+00
0.00000000000000e+00	1.06200000000000e+01	0.00000000000000e+00
0.00000000000000e+00	1.06200000000000e+01	0.00000000000000e+00
ITEM: ATOMS id type x y z DisplacementX DisplacementY DisplacementZ
95 1 -3.521e+00 1.077e-03 -3.522e+00 9.732e-03 -1.134e-03 1.165e-02
96 1 -1.760e+00 1.771e+00 3.551e+00 1.876e-02 -2.697e-03 1.418e-02
97 1 3.550e+00 -1.772e+00 -1.760e+00 1.579e-02 4.380e-03 1.966e-02
98 1 3.549e+00 1.771e+00 -1.761e+00 1.522e-02 -3.170e-03 1.649e-02
99 1 -1.761e+00 -1.771e+00 3.552e+00 1.747e-02 4.008e-03 1.496e-02
100 1 -3.528e+00 3.538e+00 8.276e-03 1.802e-02 -1.353e-03 1.907e-02
101 1 7.840e-03 -3.539e+00 -3.529e+00 1.883e-02 2.293e-03 1.717e-02
102 1 7.190e-03 3.537e+00 -3.530e+00 1.778e-02 -1.242e-03 2.074e-02
103 1 -3.530e+00 -3.538e+00 7.368e-03 2.012e-02 1.782e-03 1.897e-02
104 1 3.550e+00 -1.770e+00 1.779e+00 1.215e-02 1.378e-03 1.683e-02
105 1 3.550e+00 1.768e+00 1.778e+00 1.453e-02 -1.341e-03 1.635e-02
106 1 1.778e+00 -1.770e+00 3.547e+00 1.537e-02 1.099e-03 1.470e-02
107 1 1.780e+00 1.769e+00 3.549e+00 1.470e-02 -1.168e-03 1.388e-02
108 1 1.777e+00 -3.538e+00 1.779e+00 1.589e-02 2.498e-03 1.506e-02
109 1 1.778e+00 3.538e+00 1.779e+00 1.358e-02 -2.015e-03 1.490e-02
110 1 -1.762e+00 -1.761e+00 -3.523e+00 1.962e-02 -7.250e-03 1.065e-02
111 1 -1.760e+00 1.763e+00 -3.522e+00 1.877e-02 6.918e-03 1.040e-02
112 1 -3.522e+00 -1.762e+00 -1.759e+00 9.819e-03 -9.309e-03 1.740e-02
113 1 -3.520e+00 1.762e+00 -1.761e+00 9.005e-03 6.560e-03 1.903e-02
114 1 -1.762e+00 3.537e+00 1.774e+00 1.727e-02 -4.681e-04 2.018e-02
115 1 1.774e+00 -3.537e+00 -1.760e+00 1.912e-02 7.033e-04 1.821e-02
116 1 -1.759e+00 -3.535e+00 1.777e+00 1.866e-02 -9.311e-04 1.940e-02
117 1 1.776e+00 3.536e+00 -1.763e+00 1.810e-02 6.655e-05 1.926e-02
118 1 -3.531e+00 1.766e+00 1.776e+00 1.844e-02 1.963e-04 1.898e-02
119 1 1.777e+00 -1.768e+00 -3.529e+00 1.765e-02 -7.868e-04 1.874e-02
120 1 1.777e+00 1.767e+00 -3.527e+00 1.790e-02 3.191e-03 1.823e-02
121 1 -3.529e+00 -1.767e+00 1.777e+00 1.700e-02 -2.807e-04 1.723e-02
122 1 -3.521e+00 2.342e-03 -5.993e-04 -1.519e-03 -1.244e-03 2.550e-02
123 1 -3.383e-04 6.129e-04 -3.521e+00 2.463e-02 -8.073e-04 -1.860e-03
124 1 -1.761e+00 -3.551e+00 -1.761e+00 1.934e-02 1.167e-02 1.909e-02
125 1 -1.762e+00 3.549e+00 -1.762e+00 1.847e-02 -1.041e-02 1.917e-02
126 1 7.700e-03 3.539e+00 7.217e-03 1.675e-02 1.187e-02 1.633e-02
127 1 7.086e-03 -3.536e+00 6.906e-03 1.804e-02 -1.243e-02 1.784e-02
128 1 1.181e-02 1.067e-03 3.549e+00 1.734e-02 6.003e-04 2.596e-02
129 1 3.551e+00 8.037e-04 1.151e-02 2.603e-02 5.897e-04 1.640e-02
130 1 3.854e-04 -5.522e-06 -1.446e-03 -1.734e+00 -7.330e-04 -1.737e+00
131 1 -1.760e+00 1.760e+00 1.069e-03 2.527e-02 -1.711e-04 2.668e-02
132 1 -9.094e-04 -1.760e+00 -1.758e+00 2.648e-02 5.351e-04 2.492e-02
133 1 4.270e-04 1.758e+00 -1.761e+00 2.749e-02 -5.154e-04 2.542e-02
134 1 -1.760e+00 -1.762e+00 -9.540e-04 2.677e-02 3.027e-04 2.542e-02
135 1 -1.761e+00 -1.730e-04 1.789e+00 2.530e-02 4.273e-05 -1.850e-03
136 1 1.787e+00 -1.049e-03 -1.763e+00 -9.237e-04 4.200e-04 2.427e-02
137 1 8.917e-03 1.769e+00 1.777e+00 1.698e-02 -7.336e-03 8.585e-03
138 1 1.775e+00 -1.767e+00 7.468e-03 9.229e-03 8.501e-03 1.696e-02
139 1 6.830e-03 -1.768e+00 1.778e+00 1.843e-02 7.307e-03 1.045e-02
140 1 1.776e+00 1.767e+00 7.466e-03 9.666e-03 -6.799e-03 1.861e-02
141 1 1.777e+00 -1.898e-04 1.777e+00 1.072e-02 -2.404e-04 9.431e-03
ITEM: TIMESTEP
0
ITEM: NUMBER OF ATOMS
47
ITEM: BOX BOUNDS xy xz yz pp pp pp
                     0.00000000000000e+00 1.06200000000000e+01 0.00000000000000e+00
0.00000000000000e+00	1.06200000000000e+01	0.00000000000000e+00
0.00000000000000e+00	1.06200000000000e+01	0.00000000000000e+00
ITEM: ATOMS id type x y z DisplacementX DisplacementY DisplacementZ
142 1 -7.845e-06 -3.522e+00 -3.523e+00 1.236e-03 1.206e-02 8.398e-03
143 1 -1.773e+00 -1.763e+00 3.549e+00 3.332e-03 1.915e-02 1.481e-02
144 1 1.772e+00 3.549e+00 -1.761e+00 -3.869e-03 1.296e-02 1.811e-02
145 1 -1.771e+00 3.549e+00 -1.760e+00 4.601e-03 1.677e-02 1.903e-02
146 1 1.770e+00 -1.762e+00 3.549e+00 -4.165e-03 1.715e-02 1.531e-02
147 1 -3.539e+00 -3.530e+00 7.737e-03 -2.077e-04 1.747e-02 1.968e-02
148 1 3.537e+00 6.465e-03 -3.528e+00 -2.063e-03 1.822e-02 1.924e-02
149 1 -3.537e+00 9.003e-03 -3.531e+00 -1.152e-03 1.824e-02 1.785e-02
150 1 3.537e+00 -3.529e+00 8.501e-03 -2.322e-03 1.820e-02 1.691e-02
151 1 1.768e+00 3.550e+00 1.779e+00 -1.439e-03 1.372e-02 1.639e-02
152 1 -1.767e+00 3.548e+00 1.778e+00 1.257e-04 1.507e-02 1.565e-02
153 1 1.768e+00 1.780e+00 3.549e+00 5.138e-04 1.396e-02 1.537e-02
154 1 -1.770e+00 1.777e+00 3.548e+00 1.378e-03 1.605e-02 1.669e-02
155 1 3.539e+00 1.781e+00 1.779e+00 -1.031e-03 1.568e-02 1.607e-02
156 1 -3.538e+00 1.779e+00 1.780e+00 2.080e-03 1.401e-02 1.574e-02
157 1 1.759e+00 -1.761e+00 -3.521e+00 6.088e-03 1.915e-02 1.011e-02
158 1 -1.760e+00 -1.761e+00 -3.522e+00 -8.041e-03 1.861e-02 8.933e-03
159 1 1.763e+00 -3.520e+00 -1.760e+00 9.243e-03 1.028e-02 1.890e-02
160 1 -1.761e+00 -3.521e+00 -1.762e+00 -6.572e-03 9.657e-03 1.881e-02
161 1 -3.537e+00 -1.760e+00 1.776e+00 -1.326e-03 1.788e-02 1.864e-02
162 1 3.538e+00 1.775e+00 -1.761e+00 4.321e-04 1.915e-02 1.721e-02
163 1 3.538e+00 -1.760e+00 1.776e+00 1.186e-04 1.847e-02 1.806e-02
164 1 -3.537e+00 1.777e+00 -1.762e+00 -7.198e-04 1.843e-02 1.772e-02
165 1 -1.767e+00 -3.529e+00 1.774e+00 1.461e-03 1.739e-02 1.734e-02
166 1 1.769e+00 1.775e+00 -3.530e+00 1.608e-03 1.744e-02 1.819e-02
167 1 -1.769e+00 1.776e+00 -3.528e+00 -7.984e-04 1.802e-02 1.846e-02
168 1 1.768e+00 -3.529e+00 1.778e+00 -6.294e-04 1.774e-02 1.791e-02
169 1 -1.046e-03 -3.521e+00 6.037e-04 1.532e-04 -2.084e-03 2.513e-02
170 1 -1.131e-03 -5.752e-04 -3.522e+00 1.499e-03 2.679e-02 -1.152e-03
171 1 3.549e+00 -1.760e+00 -1.762e+00 -9.834e-03 1.929e-02 1.978e-02
172 1 -3.550e+00 -1.760e+00 -1.761e+00 1.085e-02 1.848e-02 1.801e-02
173 1 -3.537e+00 6.012e-03 6.751e-03 -1.173e-02 1.894e-02 1.957e-02
174 1 3.535e+00 8.321e-03 8.149e-03 1.287e-02 1.878e-02 1.840e-02
175 1 -6.599e-04 1.132e-02 3.548e+00 2.838e-03 1.595e-02 2.586e-02
176 1 -1.959e-04 3.550e+00 1.231e-02 -1.986e-03 2.575e-02 1.378e-02
177 1 -6.603e-04 -7.073e-04 4.098e-05 1.343e-03 -1.736e+00 -1.736e+00
178 1 -1.760e+00 -1.762e+00 -5.884e-05 -1.325e-03 2.675e-02 2.607e-02
179 1 1.760e+00 -2.568e-04 -1.760e+00 2.390e-04 2.677e-02 2.612e-02
180 1 -1.759e+00 -3.446e-07 -1.761e+00 -6.054e-04 2.608e-02 2.421e-02
181 1 1.762e+00 -1.760e+00 -5.556e-04 3.499e-04 2.666e-02 2.492e-02
182 1 -1.454e-03 -1.760e+00 1.789e+00 -1.227e-04 2.463e-02 -8.274e-04
183 1 -1.333e-03 1.787e+00 -1.763e+00 1.806e-03 2.448e-05 2.665e-02
184 1 -1.767e+00 6.663e-03 1.777e+00 8.769e-03 1.798e-02 9.075e-03
185 1 1.768e+00 1.776e+00 7.080e-03 -8.358e-03 1.122e-02 1.735e-02
186 1 1.768e+00 7.659e-03 1.777e+00 -8.514e-03 1.713e-02 1.192e-02
187 1 -1.768e+00 1.776e+00 7.520e-03 6.340e-03 1.046e-02 1.769e-02
188 1 -5.735e-04 1.777e+00 1.777e+00 -8.350e-04 1.027e-02 1.074e-02
ITEM: TIMESTEP
0
ITEM: NUMBER OF ATOMS
47
ITEM: BOX BOUNDS xy xz yz pp pp pp
                     0.00000000000000e+00 1.06200000000000e+01 0.00000000000000e+00
0.00000000000000e+00	1.06200000000000e+01	0.00000000000000e+00
0.00000000000000e+00	1.06200000000000e+01	0.00000000000000e+00
ITEM: ATOMS id type x y z DisplacementX DisplacementY DisplacementZ
189 1 3.522e+00 4.317e-05 3.520e+00 -8.933e-03 -7.618e-05 -1.116e-02
190 1 -3.549e+00 1.773e+00 1.760e+00 -1.619e-02 -4.767e-03 -1.889e-02
191 1 1.761e+00 -1.772e+00 -3.548e+00 -1.791e-02 3.173e-03 -1.423e-02
192 1 1.763e+00 1.772e+00 -3.546e+00 -1.625e-02 -3.089e-03 -1.482e-02
193 1 -3.549e+00 -1.771e+00 1.760e+00 -1.554e-02 3.276e-03 -2.003e-02
194 1 -8.016e-03 3.539e+00 3.529e+00 -1.738e-02 5.000e-05 -1.855e-02
195 1 3.530e+00 -3.539e+00 -9.103e-03 -1.756e-02 -1.788e-04 -1.833e-02
196 1 3.526e+00 3.537e+00 -8.260e-03 -1.807e-02 -1.618e-03 -1.859e-02
197 1 -8.026e-03 -3.536e+00 3.529e+00 -1.946e-02 -1.227e-03 -1.890e-02
198 1 -1.778e+00 -1.771e+00 -3.548e+00 -1.730e-02 1.640e-03 -1.266e-02
199 1 -1.780e+00 1.772e+00 -3.550e+00 -1.607e-02 -9.185e-04 -1.534e-02
200 1 -3.549e+00 -1.768e+00 -1.777e+00 -1.434e-02 5.360e-04 -1.514e-02
201 1 -3.550e+00 1.769e+00 -1.780e+00 -1.544e-02 -4.682e-04 -1.683e-02
202 1 -1.778e+00 -3.540e+00 -1.778e+00 -1.578e-02 1.334e-03 -1.371e-02
203 1 -1.777e+00 3.539e+00 -1.780e+00 -1.438e-02 -5.126e-04 -1.413e-02
204 1 3.523e+00 -1.761e+00 1.760e+00 -1.180e-02 -8.351e-03 -1.681e-02
205 1 3.521e+00 1.761e+00 1.761e+00 -1.212e-02 7.916e-03 -1.766e-02
206 1 1.761e+00 -1.760e+00 3.521e+00 -1.633e-02 -7.297e-03 -1.021e-02
207 1 1.762e+00 1.759e+00 3.521e+00 -1.927e-02 6.383e-03 -9.155e-03
208 1 -1.776e+00 3.536e+00 1.760e+00 -1.804e-02 1.282e-03 -1.720e-02
209 1 1.760e+00 -3.538e+00 -1.777e+00 -1.703e-02 -2.453e-04 -1.780e-02
210 1 -1.775e+00 -3.537e+00 1.762e+00 -1.886e-02 4.619e-04 -1.735e-02
211 1 1.762e+00 3.535e+00 -1.779e+00 -1.693e-02 1.879e-03 -1.943e-02
212 1 -1.777e+00 1.769e+00 3.529e+00 -1.785e-02 6.500e-04 -1.557e-02
213 1 3.530e+00 -1.768e+00 -1.777e+00 -1.822e-02 -9.964e-04 -1.746e-02
214 1 3.529e+00 1.768e+00 -1.776e+00 -1.742e-02 2.376e-03 -1.758e-02
215 1 -1.775e+00 -1.766e+00 3.527e+00 -1.765e-02 -2.282e-03 -1.688e-02
216 1 -2.746e-04 -3.204e-04 3.523e+00 -2.752e-02 -9.735e-04 -1.246e-04
217 1 3.520e+00 1.203e-03 -1.377e-04 3.492e-03 -1.628e-04 -2.657e-02
218 1 1.761e+00 -3.548e+00 1.761e+00 -1.834e-02 1.101e-02 -1.895e-02
219 1 1.763e+00 3.549e+00 1.762e+00 -1.623e-02 -1.425e-02 -1.822e-02
220 1 -7.614e-03 3.535e+00 -7.115e-03 -1.913e-02 1.250e-02 -1.932e-02
221 1 -8.029e-03 -3.539e+00 -8.452e-03 -1.862e-02 -1.131e-02 -1.873e-02
222 1 -3.550e+00 -3.503e-04 -1.020e-02 -2.536e-02 1.097e-03 -1.336e-02
223 1 -9.258e-03 -2.006e-04 -3.549e+00 -1.544e-02 -1.238e-04 -2.671e-02
224 1 -9.906e-04 1.125e-03 5.942e-05 1.735e+00 -2.681e-04 1.735e+00
225 1 -1.385e-04 1.761e+00 1.761e+00 -2.730e-02 -2.691e-04 -2.624e-02
226 1 1.759e+00 -1.761e+00 4.408e-05 -2.713e-02 1.056e-03 -2.638e-02
227 1 1.762e+00 1.760e+00 -2.678e-04 -2.469e-02 -1.088e-03 -2.439e-02
228 1 -9.775e-05 -1.762e+00 1.761e+00 -2.640e-02 5.436e-04 -2.614e-02
229 1 -1.788e+00 -1.462e-03 1.761e+00 6.627e-04 -6.611e-04 -2.649e-02
230 1 1.762e+00 -1.293e-04 -1.789e+00 -2.479e-02 4.553e-04 1.602e-03
231 1 -1.777e+00 1.769e+00 -6.347e-03 -9.639e-03 -9.226e-03 -1.695e-02
232 1 -6.563e-03 -1.768e+00 -1.776e+00 -1.730e-02 8.929e-03 -1.047e-02
233 1 -1.779e+00 -1.768e+00 -8.634e-03 -1.024e-02 6.840e-03 -1.926e-02
234 1 -7.967e-03 1.768e+00 -1.776e+00 -1.852e-02 -6.881e-03 -1.049e-02
235 1 -1.776e+00 2.068e-04 -1.776e+00 -1.044e-02 5.172e-04 -1.149e-02
ITEM: TIMESTEP
0
ITEM: NUMBER OF ATOMS
47
ITEM: BOX BOUNDS xy xz yz pp pp pp
                     0.00000000000000e+00 1.06200000000000e+01 0.00000000000000e+00
0.00000000000000e+00	1.06200000000000e+01	0.00000000000000e+00
0.00000000000000e+00	1.06200000000000e+01	0.00000000000000e+00
ITEM: ATOMS id type x y z DisplacementX DisplacementY DisplacementZ
236 1 3.522e+00 3.520e+00 1.332e-03 -1.160e-02 -9.722e-03 -2.431e-04
237 1 -3.550e+00 1.762e+00 1.771e+00 -1.612e-02 -1.608e-02 -2.860e-03
238 1 1.760e+00 -3.550e+00 -1.770e+00 -1.778e-02 -1.425e-02 4.286e-03
239 1 1.762e+00 -3.549e+00 1.771e+00 -1.877e-02 -1.449e-02 -4.461e-03
240 1 -3.550e+00 1.761e+00 -1.772e+00 -1.532e-02 -1.878e-02 2.599e-03
241 1 -7.314e-03 3.527e+00 3.537e+00 -1.775e-02 -1.773e-02 -2.647e-04
242 1 3.529e+00 -7.766e-03 -3.537e+00 -1.794e-02 -1.730e-02 1.220e-03
243 1 3.530e+00 -5.341e-03 3.537e+00 -1.715e-02 -1.742e-02 -1.269e-03
244 1 -6.793e-03 3.528e+00 -3.537e+00 -1.881e-02 -1.794e-02 1.521e-03
245 1 -1.778e+00 -3.551e+00 -1.769e+00 -1.479e-02 -1.362e-02 2.342e-04
246 1 -1.781e+00 -3.549e+00 1.771e+00 -1.624e-02 -1.531e-02 -1.316e-03
247 1 -3.550e+00 -1.777e+00 -1.770e+00 -1.331e-02 -1.478e-02 -6.012e-04
248 1 -3.551e+00 -1.779e+00 1.768e+00 -1.497e-02 -1.566e-02 1.679e-04
249 1 -1.779e+00 -1.778e+00 -3.540e+00 -1.648e-02 -1.649e-02 2.204e-03
250 1 -1.780e+00 -1.779e+00 3.539e+00 -1.492e-02 -1.492e-02 -1.815e-03
251 1 3.521e+00 1.761e+00 -1.761e+00 -1.048e-02 -1.722e-02 -5.401e-03
252 1 3.522e+00 1.760e+00 1.764e+00 -1.105e-02 -1.629e-02 6.913e-03
253 1 1.759e+00 3.522e+00 -1.761e+00 -1.726e-02 -1.085e-02 -5.656e-03
254 1 1.759e+00 3.521e+00 1.762e+00 -1.854e-02 -8.887e-03 7.490e-03
255 1 -1.777e+00 1.760e+00 3.538e+00 -1.777e-02 -1.866e-02 1.580e-03
256 1 1.760e+00 -1.776e+00 -3.537e+00 -1.889e-02 -1.852e-02 -1.409e-03
257 1 -1.775e+00 1.760e+00 -3.538e+00 -1.919e-02 -1.799e-02 -1.564e-03
258 1 1.760e+00 -1.774e+00 3.538e+00 -1.672e-02 -1.769e-02 -7.128e-04
259 1 -1.777e+00 3.530e+00 1.768e+00 -1.675e-02 -1.846e-02 1.362e-03
260 1 3.530e+00 -1.778e+00 -1.767e+00 -1.818e-02 -1.702e-02 3.573e-04
261 1 3.529e+00 -1.777e+00 1.769e+00 -1.662e-02 -1.664e-02 5.528e-04
262 1 -1.777e+00 3.530e+00 -1.769e+00 -1.888e-02 -1.646e-02 -1.070e-03
263 1 -2.580e-03 3.521e+00 -6.984e-04 -2.452e-02 8.005e-04 -8.611e-04
264 1 3.523e+00 -8.610e-04 2.971e-04 1.935e-03 -2.623e-02 -2.628e-03
265 1 1.762e+00 1.762e+00 -3.548e+00 -1.823e-02 -1.831e-02 1.155e-02
266 1 1.761e+00 1.761e+00 3.548e+00 -1.956e-02 -1.753e-02 -1.116e-02
267 1 -8.027e-03 -6.354e-03 3.537e+00 -1.821e-02 -1.765e-02 1.139e-02
268 1 -7.955e-03 -8.870e-03 -3.537e+00 -2.007e-02 -1.927e-02 -1.305e-02
269 1 -3.549e+00 -1.067e-02 2.057e-03 -2.641e-02 -1.596e-02 -1.229e-03
270 1 -1.257e-02 -3.550e+00 -1.516e-03 -1.351e-02 -2.637e-02 1.162e-03
271 1 1.727e-04 -2.416e-06 -1.889e-04 1.735e+00 1.734e+00 -5.583e-04
272 1 -7.590e-04 1.761e+00 1.763e+00 -2.538e-02 -2.433e-02 -6.764e-04
273 1 1.761e+00 -7.416e-04 -1.759e+00 -2.601e-02 -2.669e-02 1.125e-05
274 1 1.762e+00 1.769e-04 1.762e+00 -2.523e-02 -2.622e-02 -1.490e-03
275 1 -1.890e-04 1.760e+00 -1.760e+00 -2.691e-02 -2.681e-02 -2.899e-04
276 1 -1.789e+00 1.760e+00 -1.162e-03 7.327e-04 -2.635e-02 -2.382e-04
277 1 1.760e+00 -1.789e+00 1.725e-03 -2.634e-02 3.255e-04 -9.337e-04
278 1 -1.777e+00 -7.470e-03 1.769e+00 -1.199e-02 -1.888e-02 -7.422e-03
279 1 -7.339e-03 -1.776e+00 -1.767e+00 -1.719e-02 -8.198e-03 6.409e-03
280 1 -1.777e+00 -8.124e-03 -1.768e+00 -9.705e-03 -1.989e-02 7.009e-03
281 1 -7.429e-03 -1.777e+00 1.769e+00 -1.826e-02 -1.161e-02 -6.660e-03
282 1 -1.777e+00 -1.776e+00 1.511e-03 -1.004e-02 -1.116e-02 3.404e-04
ITEM: TIMESTEP
0
ITEM: NUMBER OF ATOMS
47
ITEM: BOX BOUNDS xy xz yz pp pp pp
                     0.00000000000000e+00 1.06200000000000e+01 0.00000000000000e+00
0.00000000000000e+00	1.06200000000000e+01	0.00000000000000e+00
0.00000000000000e+00	1.06200000000000e+01	0.00000000000000e+00
ITEM: ATOMS id type x y z DisplacementX DisplacementY DisplacementZ
283 1 6.783e-04 3.521e+00 3.521e+00 1.560e-03 -1.018e-02 -1.133e-02
284 1 1.770e+00 -3.552e+00 1.761e+00 -2.899e-03 -1.598e-02 -1.794e-02
285 1 -1.773e+00 1.761e+00 -3.548e+00 2.328e-03 -1.802e-02 -1.416e-02
286 1 1.773e+00 1.763e+00 -3.549e+00 -4.062e-03 -1.741e-02 -1.399e-02
287 1 -1.772e+00 -3.550e+00 1.761e+00 1.342e-03 -1.444e-02 -1.940e-02
288 1 3.537e+00 -6.193e-03 3.528e+00 -6.171e-04 -1.953e-02 -1.834e-02
289 1 -3.538e+00 3.529e+00 -5.903e-03 1.053e-03 -1.745e-02 -1.712e-02
290 1 3.538e+00 3.528e+00 -7.976e-03 -9.698e-04 -1.785e-02 -1.701e-02
291 1 -3.538e+00 -6.299e-03 3.529e+00 1.074e-03 -1.857e-02 -1.761e-02
292 1 -1.769e+00 -1.778e+00 -3.549e+00 1.900e-03 -1.555e-02 -1.453e-02
293 1 1.769e+00 -1.779e+00 -3.546e+00 -2.021e-03 -1.754e-02 -1.492e-02
294 1 -1.770e+00 -3.550e+00 -1.780e+00 -3.958e-04 -1.224e-02 -1.639e-02
295 1 1.768e+00 -3.550e+00 -1.778e+00 -2.511e-03 -1.269e-02 -1.723e-02
296 1 -3.538e+00 -1.777e+00 -1.781e+00 2.062e-03 -1.545e-02 -1.597e-02
297 1 3.539e+00 -1.778e+00 -1.779e+00 -1.607e-03 -1.559e-02 -1.405e-02
298 1 -1.759e+00 3.521e+00 1.759e+00 -8.903e-03 -9.923e-03 -1.892e-02
299 1 1.762e+00 3.521e+00 1.761e+00 7.768e-03 -1.082e-02 -1.985e-02
300 1 -1.759e+00 1.760e+00 3.522e+00 -7.225e-03 -1.867e-02 -9.283e-03
301 1 1.762e+00 1.761e+00 3.521e+00 8.625e-03 -1.781e-02 -8.318e-03
302 1 3.537e+00 -1.775e+00 1.761e+00 8.934e-04 -1.918e-02 -1.785e-02
303 1 -3.536e+00 1.761e+00 -1.775e+00 -1.253e-03 -1.735e-02 -1.877e-02
304 1 -3.538e+00 -1.776e+00 1.760e+00 -8.769e-04 -1.840e-02 -1.704e-02
305 1 3.538e+00 1.760e+00 -1.776e+00 1.909e-05 -2.064e-02 -1.783e-02
306 1 1.767e+00 -1.776e+00 3.528e+00 1.203e-03 -1.792e-02 -1.699e-02
307 1 -1.769e+00 3.529e+00 -1.776e+00 -9.044e-04 -1.697e-02 -1.778e-02
308 1 1.769e+00 3.528e+00 -1.776e+00 4.095e-05 -1.732e-02 -1.786e-02
309 1 -1.767e+00 -1.778e+00 3.528e+00 -9.371e-04 -1.886e-02 -1.819e-02
310 1 1.335e-03 1.045e-03 3.521e+00 -6.386e-05 -2.565e-02 1.458e-03
311 1 6.724e-04 3.521e+00 1.867e-04 1.281e-03 3.633e-03 -2.498e-02
312 1 -3.549e+00 1.763e+00 1.763e+00 1.330e-02 -1.906e-02 -1.923e-02
313 1 3.549e+00 1.759e+00 1.759e+00 -9.846e-03 -1.830e-02 -1.823e-02
314 1 3.537e+00 -7.474e-03 -9.806e-03 1.126e-02 -1.833e-02 -1.848e-02
315 1 -3.537e+00 -8.611e-03 -7.328e-03 -1.106e-02 -1.692e-02 -2.005e-02
316 1 8.008e-04 -3.549e+00 -1.009e-02 6.439e-04 -2.681e-02 -1.573e-02
317 1 -9.530e-04 -1.027e-02 -3.550e+00 -1.096e-03 -1.497e-02 -2.458e-02
318 1 1.935e-04 1.503e-03 1.235e-03 4.847e-04 1.735e+00 1.737e+00
319 1 1.761e+00 -8.105e-04 1.760e+00 6.182e-04 -2.566e-02 -2.601e-02
320 1 -1.761e+00 1.761e+00 -2.670e-04 -1.310e-03 -2.576e-02 -2.634e-02
321 1 1.759e+00 1.762e+00 -2.836e-05 -4.935e-04 -2.653e-02 -2.530e-02
322 1 -1.761e+00 2.772e-03 1.760e+00 -7.804e-04 -2.674e-02 -2.609e-02
323 1 1.231e-03 -1.790e+00 1.763e+00 4.099e-04 3.332e-03 -2.515e-02
324 1 5.510e-04 1.760e+00 -1.790e+00 1.606e-05 -2.538e-02 3.039e-04
325 1 1.768e+00 -1.776e+00 -8.993e-03 -5.883e-03 -8.985e-03 -1.804e-02
326 1 -1.768e+00 -8.370e-03 -1.776e+00 6.517e-03 -1.860e-02 -9.015e-03
327 1 -1.769e+00 -1.775e+00 -8.559e-03 8.246e-03 -1.230e-02 -1.865e-02
328 1 1.768e+00 -7.171e-03 -1.775e+00 -7.096e-03 -1.997e-02 -1.129e-02
329 1 1.713e-03 -1.777e+00 -1.775e+00 1.865e-03 -1.055e-02 -1.295e-02
ITEM: TIMESTEP
0
ITEM: NUMBER OF ATOMS
47
ITEM: BOX BOUNDS xy xz yz pp pp pp
                     0.00000000000000e+00 1.06200000000000e+01 0.00000000000000e+00
0.00000000000000e+00	1.06200000000000e+01	0.00000000000000e+00
0.00000000000000e+00	1.06200000000000e+01	0.00000000000000e+00
ITEM: ATOMS id type x y z DisplacementX DisplacementY DisplacementZ
330 1 -3.520e+00 2.471e-04 3.522e+00 1.099e-02 -5.990e-04 -8.756e-03
331 1 3.549e+00 1.772e+00 1.760e+00 1.363e-02 -3.511e-03 -1.806e-02
332 1 -1.761e+00 -1.772e+00 -3.551e+00 1.808e-02 4.529e-03 -1.242e-02
333 1 -1.762e+00 1.772e+00 -3.551e+00 1.935e-02 -4.541e-03 -1.370e-02
334 1 3.549e+00 -1.771e+00 1.761e+00 1.503e-02 2.113e-03 -1.781e-02
335 1 7.611e-03 3.538e+00 3.530e+00 1.799e-02 -3.206e-04 -1.730e-02
336 1 -3.529e+00 -3.539e+00 -8.798e-03 1.924e-02 3.158e-04 -1.977e-02
337 1 -3.530e+00 3.538e+00 -9.752e-03 1.790e-02 -2.165e-03 -1.813e-02
338 1 7.915e-03 -3.538e+00 3.530e+00 1.890e-02 7.896e-04 -1.814e-02
339 1 1.780e+00 -1.769e+00 -3.549e+00 1.721e-02 1.637e-03 -1.548e-02
340 1 1.778e+00 1.768e+00 -3.548e+00 1.726e-02 -1.449e-03 -1.259e-02
341 1 3.550e+00 -1.769e+00 -1.779e+00 1.672e-02 2.494e-03 -1.636e-02
342 1 3.550e+00 1.768e+00 -1.778e+00 1.427e-02 1.249e-04 -1.725e-02
343 1 1.777e+00 -3.538e+00 -1.780e+00 1.455e-02 1.630e-03 -1.652e-02
344 1 1.778e+00 3.538e+00 -1.778e+00 1.628e-02 -2.541e-03 -1.529e-02
345 1 -3.521e+00 -1.761e+00 1.760e+00 8.856e-03 -7.970e-03 -1.956e-02
346 1 -3.522e+00 1.759e+00 1.760e+00 1.074e-02 7.107e-03 -1.919e-02
347 1 -1.759e+00 -1.761e+00 3.523e+00 1.609e-02 -6.190e-03 -1.096e-02
348 1 -1.762e+00 1.761e+00 3.521e+00 1.819e-02 8.976e-03 -9.799e-03
349 1 1.778e+00 3.540e+00 1.759e+00 1.861e-02 1.394e-03 -1.503e-02
350 1 -1.761e+00 -3.536e+00 -1.777e+00 1.628e-02 2.257e-03 -1.789e-02
351 1 1.775e+00 -3.537e+00 1.760e+00 1.870e-02 -4.476e-04 -1.826e-02
352 1 -1.760e+00 3.537e+00 -1.776e+00 1.913e-02 -1.039e-04 -1.746e-02
353 1 1.776e+00 1.766e+00 3.529e+00 1.793e-02 -5.249e-04 -1.703e-02
354 1 -3.529e+00 -1.770e+00 -1.778e+00 1.834e-02 -4.632e-04 -1.692e-02
355 1 -3.528e+00 1.768e+00 -1.775e+00 1.825e-02 -3.199e-04 -1.725e-02
356 1 1.777e+00 -1.768e+00 3.528e+00 1.762e-02 4.683e-04 -1.602e-02
357 1 6.701e-04 3.401e-04 3.522e+00 2.389e-02 7.500e-04 1.662e-03
358 1 -3.522e+00 -1.081e-03 -4.612e-04 -8.110e-04 -9.590e-05 -2.683e-02
359 1 -1.761e+00 -3.549e+00 1.761e+00 1.534e-02 1.062e-02 -1.998e-02
360 1 -1.761e+00 3.550e+00 1.761e+00 1.942e-02 -9.961e-03 -1.774e-02
361 1 7.439e-03 3.536e+00 -7.770e-03 1.873e-02 1.197e-02 -1.897e-02
362 1 9.101e-03 -3.538e+00 -6.280e-03 1.806e-02 -1.015e-02 -1.782e-02
363 1 3.548e+00 4.742e-04 -1.197e-02 2.454e-02 5.379e-04 -1.401e-02
364 1 1.215e-02 -4.723e-04 -3.549e+00 1.452e-02 -2.443e-04 -2.706e-02
365 1 -3.158e-04 -5.241e-04 1.984e-03 -1.735e+00 -2.013e-05 1.736e+00
366 1 1.818e-04 1.761e+00 1.760e+00 2.577e-02 9.283e-04 -2.396e-02
367 1 -1.762e+00 -1.762e+00 -3.165e-04 2.617e-02 1.672e-04 -2.452e-02
368 1 -1.763e+00 1.761e+00 1.599e-03 2.552e-02 -8.220e-04 -2.452e-02
369 1 -1.897e-04 -1.760e+00 1.761e+00 2.424e-02 -1.218e-03 -2.507e-02
370 1 1.789e+00 -1.270e-03 1.761e+00 -1.723e-03 1.210e-03 -2.360e-02
371 1 -1.760e+00 1.144e-03 -1.787e+00 2.281e-02 -8.828e-05 8.221e-04
372 1 1.777e+00 1.767e+00 -6.991e-03 1.066e-02 -8.783e-03 -1.924e-02
373 1 6.822e-03 -1.768e+00 -1.775e+00 1.739e-02 7.299e-03 -9.487e-03
374 1 1.777e+00 -1.769e+00 -7.025e-03 1.059e-02 8.075e-03 -1.882e-02
375 1 8.147e-03 1.768e+00 -1.777e+00 1.904e-02 -7.554e-03 -9.014e-03
376 1 1.777e+00 7.688e-04 -1.777e+00 9.218e-03 -6.979e-04 -1.217e-02
ITEM: TIMESTEP
0
ITEM: NUMBER OF ATOMS
47
ITEM: BOX BOUNDS xy xz yz pp pp pp
                     0.00000000000000e+00 1.06200000000000e+01 0.00000000000000e+00
0.00000000000000e+00	1.06200000000000e+01	0.00000000000000e+00
0.00000000000000e+00	1.06200000000000e+01	0.00000000000000e+00
ITEM: ATOMS id type x y z DisplacementX DisplacementY DisplacementZ
377 1 -3.521e+00 3.520e+00 7.027e-04 1.045e-02 -1.111e-02 -1.715e-03
378 1 3.549e+00 1.758e+00 -1.772e+00 1.468e-02 -1.811e-02 2.333e-03
379 1 -1.762e+00 -3.548e+00 1.772e+00 1.900e-02 -1.424e-02 -3.809e-03
380 1 -1.760e+00 -3.551e+00 -1.773e+00 1.827e-02 -1.527e-02 3.209e-03
381 1 3.550e+00 1.761e+00 1.772e+00 1.272e-02 -1.612e-02 -4.879e-03
382 1 8.436e-03 3.528e+00 -3.535e+00 1.830e-02 -1.740e-02 1.272e-03
383 1 -3.528e+00 -8.729e-03 3.538e+00 1.765e-02 -1.746e-02 -1.578e-03
384 1 -3.530e+00 -7.755e-03 -3.539e+00 1.864e-02 -1.662e-02 8.331e-04
385 1 6.070e-03 3.529e+00 3.539e+00 1.867e-02 -1.788e-02 -5.154e-04
386 1 1.779e+00 -3.548e+00 1.770e+00 1.548e-02 -1.422e-02 -1.172e-03
387 1 1.778e+00 -3.550e+00 -1.769e+00 1.600e-02 -1.278e-02 1.444e-03
388 1 3.550e+00 -1.776e+00 1.770e+00 1.453e-02 -1.440e-02 -7.840e-04
389 1 3.549e+00 -1.779e+00 -1.769e+00 1.427e-02 -1.498e-02 2.480e-03