ITEM: TIMESTEP
0
ITEM: NUMBER OF ATOMS
32
ITEM: BOX BOUNDS xy xz yz pp pp pp
                     -5.00000000000000e-01 5.00000000000000e-01 0.00000000000000e+00
-5.00000000000000e-01	5.00000000000000e-01	0.00000000000000e+00
-5.00000000000000e-01	5.00000000000000e-01	0.00000000000000e+00
ITEM: ATOMS id type x y z DisplacementX DisplacementY DisplacementZ
1 1 0.000e+00 0.000e+00 0.000e+00 -2.005e-01 -1.129e-03 3.509e-04
2 1 -2.000e-01 0.000e+00 2.000e-01 -7.083e-04 2.633e-04 -2.485e-04
3 1 2.000e-01 -2.000e-01 -2.000e-01 -1.001e-03 1.367e-03 1.113e-03
4 1 -2.000e-01 2.000e-01 2.000e-01 -2.762e-04 -8.848e-04 -7.950e-04
5 1 0.000e+00 -2.000e-01 2.000e-01 -8.586e-04 -3.343e-04 6.332e-04
6 1 -2.000e-01 2.000e-01 -2.000e-01 -2.300e-04 -5.954e-04 2.296e-04
7 1 0.000e+00 0.000e+00 2.000e-01 -2.553e-04 2.290e-03 -3.582e-04
8 1 -2.000e-01 -2.000e-01 0.000e+00 -7.945e-04 -6.270e-04 -7.880e-04
9 1 2.000e-01 2.000e-01 0.000e+00 -5.830e-04 -2.439e-04 2.170e-03
10 1 2.000e-01 0.000e+00 -2.000e-01 3.959e-04 6.395e-04 -1.120e-03
11 1 -2.000e-01 -2.000e-01 2.000e-01 3.036e-04 4.403e-04 -1.116e-03
12 1 0.000e+00 -2.000e-01 0.000e+00 2.562e-04 -7.286e-04 1.714e-03
13 1 -2.000e-01 2.000e-01 0.000e+00 -3.162e-04 2.585e-04 -1.011e-03
14 1 2.000e-01 -2.000e-01 2.000e-01 -2.081e-03 -1.264e-04 -1.598e-03
15 1 4.000e-01 0.000e+00 0.000e+00 8.516e-04 1.313e-03 2.905e-03
16 1 0.000e+00 2.000e-01 0.000e+00 -8.599e-04 -1.970e-03 6.434e-04
17 1 0.000e+00 -2.000e-01 -2.000e-01 8.972e-04 4.969e-04 2.168e-03
18 1 0.000e+00 0.000e+00 4.000e-01 4.838e-04 2.193e-04 -1.511e-03
19 1 0.000e+00 4.000e-01 0.000e+00 -6.182e-04 5.375e-04 -1.393e-03
20 1 -2.000e-01 0.000e+00 -2.000e-01 -8.491e-04 2.184e-04 4.163e-04
21 1 -4.000e-01 0.000e+00 0.000e+00 3.711e-04 8.781e-04 2.601e-04
22 1 0.000e+00 0.000e+00 -2.000e-01 1.508e-03 -1.008e-03 1.212e-03
23 1 0.000e+00 2.000e-01 2.000e-01 1.399e-03 -2.693e-04 3.080e-04
24 1 2.000e-01 -2.000e-01 0.000e+00 6.775e-05 -9.445e-04 1.894e-04
25 1 0.000e+00 2.000e-01 -2.000e-01 -2.086e-05 9.960e-04 -8.298e-04
26 1 2.000e-01 2.000e-01 2.000e-01 -2.232e-03 5.184e-04 -2.876e-04
27 1 2.000e-01 0.000e+00 0.000e+00 -6.774e-04 7.044e-04 -3.091e-04
28 1 0.000e+00 0.000e+00 -4.000e-01 9.478e-04 8.483e-04 -4.395e-04
29 1 -2.000e-01 -2.000e-01 -2.000e-01 -1.329e-03 -4.543e-04 1.556e-03
30 1 2.000e-01 0.000e+00 2.000e-01 2.192e-03 -4.988e-04 4.539e-04
31 1 2.000e-01 2.000e-01 -2.000e-01 -1.532e-04 9.113e-04 -1.095e-04
32 1 0.000e+00 -4.000e-01 0.000e+00 1.892e-04 9.306e-04 -2.038e-03
ITEM: TIMESTEP
0
ITEM: NUMBER OF ATOMS
32
ITEM: BOX BOUNDS xy xz yz pp pp pp
                     -5.00000000000000e-01 5.00000000000000e-01 0.00000000000000e+00
-5.00000000000000e-01	5.00000000000000e-01	0.00000000000000e+00
-5.00000000000000e-01	5.00000000000000e-01	0.00000000000000e+00
ITEM: ATOMS id type x y z DisplacementX DisplacementY DisplacementZ
33 1 -2.000e-01 -2.000e-01 -2.000e-01 -8.588e-04 -9.695e-04 2.867e-04
34 1 2.000e-01 0.000e+00 -2.000e-01 -8.998e-04 1.131e-03 6.335e-04
35 1 0.000e+00 0.000e+00 0.000e+00 1.938e-04 -1.986e-04 -1.998e-01
36 1 -2.000e-01 0.000e+00 2.000e-01 6.891e-04 6.453e-04 -9.784e-04
37 1 0.000e+00 2.000e-01 0.000e+00 1.152e-04 5.437e-04 -8.105e-04
38 1 2.000e-01 -2.000e-01 0.000e+00 2.352e-04 -6.627e-04 8.939e-04
39 1 2.000e-01 0.000e+00 0.000e+00 -3.005e-04 1.099e-03 -1.813e-03
40 1 0.000e+00 -2.000e-01 -2.000e-01 -8.234e-04 -5.898e-04 -4.224e-04
41 1 0.000e+00 -4.000e-01 0.000e+00 1.033e-06 1.335e-04 -9.545e-04
42 1 -2.000e-01 -2.000e-01 0.000e+00 5.593e-04 -4.986e-04 -4.147e-04
43 1 -2.000e-01 2.000e-01 0.000e+00 4.407e-04 4.836e-05 -1.104e-03
44 1 0.000e+00 4.000e-01 0.000e+00 1.197e-03 -1.284e-04 1.355e-03
45 1 0.000e+00 -2.000e-01 0.000e+00 1.440e-03 -1.452e-03 4.100e-04
46 1 -2.000e-01 -2.000e-01 2.000e-01 2.885e-04 1.300e-03 5.087e-04
47 1 2.000e-01 -2.000e-01 -2.000e-01 -1.670e-03 1.990e-04 2.484e-04
48 1 0.000e+00 2.000e-01 -2.000e-01 -1.194e-04 5.938e-04 -2.138e-03
49 1 2.000e-01 2.000e-01 2.000e-01 5.045e-04 -4.119e-05 -7.026e-04
50 1 2.000e-01 2.000e-01 -2.000e-01 -9.232e-04 1.167e-03 -2.478e-04
51 1 -2.000e-01 0.000e+00 0.000e+00 -2.285e-03 -1.123e-03 9.305e-04
52 1 2.000e-01 0.000e+00 2.000e-01 1.575e-06 1.499e-03 -3.602e-04
53 1 0.000e+00 2.000e-01 2.000e-01 -3.809e-04 9.153e-04 1.040e-03
54 1 0.000e+00 0.000e+00 -4.000e-01 6.359e-04 -5.161e-04 4.112e-04
55 1 2.000e-01 -2.000e-01 2.000e-01 1.339e-03 -4.966e-04 1.763e-04
56 1 -2.000e-01 0.000e+00 -2.000e-01 -4.371e-04 -1.185e-03 1.343e-04
57 1 2.000e-01 2.000e-01 0.000e+00 -3.538e-04 -4.596e-04 -5.730e-04
58 1 -4.000e-01 0.000e+00 0.000e+00 -1.403e-03 -9.070e-04 6.116e-04
59 1 -2.000e-01 2.000e-01 -2.000e-01 8.073e-06 -9.526e-05 -8.317e-04
60 1 -2.000e-01 2.000e-01 2.000e-01 -1.540e-03 4.114e-04 1.386e-04
61 1 0.000e+00 0.000e+00 4.000e-01 -2.342e-04 -3.412e-04 -1.349e-03
62 1 0.000e+00 0.000e+00 2.000e-01 1.001e-03 1.013e-04 -1.003e-03
63 1 0.000e+00 -2.000e-01 2.000e-01 -8.072e-05 -1.148e-03 3.673e-04
64 1 4.000e-01 0.000e+00 0.000e+00 1.077e-03 -6.722e-04 -1.674e-03
ITEM: TIMESTEP
0
ITEM: NUMBER OF ATOMS
32
ITEM: BOX BOUNDS xy xz yz pp pp pp
                     -5.00000000000000e-01 5.00000000000000e-01 0.00000000000000e+00
-5.00000000000000e-01	5.00000000000000e-01	0.00000000000000e+00
-5.00000000000000e-01	5.00000000000000e-01	0.00000000000000e+00
ITEM: ATOMS id type x y z DisplacementX DisplacementY DisplacementZ
65 1 -4.000e-01 0.000e+00 0.000e+00 2.296e-03 -1.428e-03 1.738e-03
66 1 0.000e+00 -2.000e-01 0.000e+00 -7.426e-04 -6.730e-04 -9.160e-04
67 1 0.000e+00 -2.000e-01 -2.000e-01 1.584e-03 9.925e-05 1.865e-03
68 1 -2.000e-01 0.000e+00 0.000e+00 -1.095e-03 -8.999e-04 -1.282e-03
69 1 2.000e-01 2.000e-01 0.000e+00 -2.990e-04 -5.587e-04 -9.767e-04
70 1 0.000e+00 2.000e-01 2.000e-01 3.470e-04 4.291e-04 7.141e-04
71 1 2.000e-01 0.000e+00 2.000e-01 7.999e-04 1.471e-03 -6.302e-04
72 1 2.000e-01 2.000e-01 2.000e-01 5.335e-04 -1.081e-03 -1.347e-04
73 1 0.000e+00 0.000e+00 0.000e+00 -1.481e-03 1.980e-01 -5.671e-04
74 1 0.000e+00 -2.000e-01 2.000e-01 2.209e-03 -2.231e-04 1.084e-03
75 1 -2.000e-01 0.000e+00 2.000e-01 3.991e-04 6.119e-04 2.573e-04
76 1 -2.000e-01 -2.000e-01 -2.000e-01 1.059e-03 3.038e-04 1.900e-04
77 1 0.000e+00 0.000e+00 2.000e-01 -1.781e-04 -4.728e-04 -1.361e-03
78 1 2.000e-01 0.000e+00 0.000e+00 -7.658e-04 -3.855e-04 3.692e-04
79 1 -2.000e-01 2.000e-01 -2.000e-01 -1.919e-03 -3.125e-04 4.911e-04
80 1 0.000e+00 4.000e-01 0.000e+00 1.794e-03 8.968e-06 -6.462e-05
81 1 -2.000e-01 -2.000e-01 2.000e-01 4.854e-04 7.299e-04 6.431e-04
82 1 -2.000e-01 2.000e-01 2.000e-01 -5.535e-04 5.183e-04 -3.694e-04
83 1 2.000e-01 0.000e+00 -2.000e-01 4.964e-04 2.089e-03 -6.774e-04
84 1 0.000e+00 2.000e-01 -2.000e-01 -9.956e-04 -4.710e-06 7.562e-04
85 1 0.000e+00 0.000e+00 -4.000e-01 7.037e-04 -9.960e-04 -2.908e-04
86 1 2.000e-01 -2.000e-01 2.000e-01 -2.726e-05 7.041e-04 -1.005e-03
87 1 -2.000e-01 2.000e-01 0.000e+00 4.885e-04 -1.867e-04 -1.020e-03
88 1 2.000e-01 2.000e-01 -2.000e-01 -2.472e-05 -4.064e-04 -4.227e-04
89 1 4.000e-01 0.000e+00 0.000e+00 9.693e-04 -9.251e-04 -9.781e-04
90 1 -2.000e-01 0.000e+00 -2.000e-01 7.970e-04 -3.813e-04 2.997e-04
91 1 -2.000e-01 -2.000e-01 0.000e+00 6.700e-04 4.081e-04 5.289e-04
92 1 0.000e+00 0.000e+00 -2.000e-01 6.238e-04 1.134e-03 -1.812e-03
93 1 0.000e+00 0.000e+00 4.000e-01 9.089e-04 1.624e-04 -1.573e-04
94 1 0.000e+00 -4.000e-01 0.000e+00 -4.347e-04 -9.362e-04 -4.553e-04
95 1 2.000e-01 -2.000e-01 0.000e+00 4.507e-04 3.410e-04 -2.734e-04
96 1 2.000e-01 -2.000e-01 -2.000e-01 8.730e-04 1.233e-03 1.123e-03
ITEM: TIMESTEP
0
ITEM: NUMBER OF ATOMS
32
ITEM: BOX BOUNDS xy xz yz pp pp pp
                     -5.00000000000000e-01 5.00000000000000e-01 0.00000000000000e+00
-5.00000000000000e-01	5.00000000000000e-01	0.00000000000000e+00
-5.00000000000000e-01	5.00000000000000e-01	0.00000000000000e+00
ITEM: ATOMS id type x y z DisplacementX DisplacementY DisplacementZ
97 1 0.000e+00 4.000e-01 0.000e+00 -2.644e-04 8.165e-04 8.412e-04
98 1 2.000e-01 -2.000e-01 0.000e+00 1.138e-03 -1.419e-03 6.787e-04
99 1 0.000e+00 -2.000e-01 2.000e-01 -3.398e-04 1.088e-03 7.323e-04
100 1 -2.000e-01 0.000e+00 -2.000e-01 -3.512e-04 1.235e-04 -1.161e-03
101 1 0.000e+00 0.000e+00 2.000e-01 1.087e-03 -1.014e-03 8.870e-04
102 1 0.000e+00 0.000e+00 -2.000e-01 2.030e-03 1.008e-04 -7.630e-04
103 1 0.000e+00 0.000e+00 -4.000e-01 -5.276e-04 6.228e-04 -1.770e-03
104 1 2.000e-01 -2.000e-01 2.000e-01 2.751e-05 8.054e-04 -6.485e-04
105 1 0.000e+00 -4.000e-01 0.000e+00 8.379e-04 -1.711e-03 2.440e-03
106 1 4.000e-01 0.000e+00 0.000e+00 5.678e-04 5.740e-04 1.649e-03
107 1 2.000e-01 2.000e-01 -2.000e-01 -3.394e-05 -5.244e-04 9.596e-05
108 1 -2.000e-01 2.000e-01 0.000e+00 1.321e-03 -7.085e-05 -1.469e-03
109 1 -2.000e-01 0.000e+00 2.000e-01 4.469e-04 1.917e-03 4.184e-04
110 1 0.000e+00 2.000e-01 2.000e-01 2.112e-03 -3.796e-04 4.104e-04
111 1 -2.000e-01 -2.000e-01 -2.000e-01 -1.079e-04 -6.350e-04 3.120e-04
112 1 0.000e+00 0.000e+00 0.000e+00 -2.757e-03 -2.000e-01 -6.062e-04
113 1 -4.000e-01 0.000e+00 0.000e+00 -1.317e-03 2.781e-04 6.842e-04
114 1 2.000e-01 0.000e+00 0.000e+00 3.570e-04 1.950e-03 1.568e-03
115 1 -2.000e-01 -2.000e-01 2.000e-01 -3.700e-04 6.625e-04 -3.248e-04
116 1 0.000e+00 0.000e+00 4.000e-01 -1.701e-03 -4.834e-04 -1.457e-03
117 1 2.000e-01 2.000e-01 0.000e+00 1.472e-03 5.400e-04 -1.034e-04
118 1 0.000e+00 -2.000e-01 -2.000e-01 -8.815e-04 -7.320e-04 5.973e-04
119 1 -2.000e-01 -2.000e-01 0.000e+00 -1.984e-03 -8.127e-04 -6.816e-04
120 1 2.000e-01 -2.000e-01 -2.000e-01 1.780e-04 -6.725e-04 -9.266e-04
121 1 2.000e-01 0.000e+00 2.000e-01 -2.198e-04 -1.006e-03 2.400e-05
122 1 2.000e-01 0.000e+00 -2.000e-01 -1.196e-03 1.580e-03 -9.137e-04
123 1 -2.000e-01 2.000e-01 -2.000e-01 9.896e-04 -2.591e-04 -1.396e-03
124 1 -2.000e-01 0.000e+00 0.000e+00 -5.005e-04 9.589e-04 8.834e-04
125 1 0.000e+00 2.000e-01 -2.000e-01 -7.275e-04 4.574e-04 6.426e-04
126 1 2.000e-01 2.000e-01 2.000e-01 1.505e-03 -2.843e-04 -1.649e-03
127 1 0.000e+00 2.000e-01 0.000e+00 9.272e-04 -5.422e-04 -2.973e-04
128 1 -2.000e-01 2.000e-01 2.000e-01 -3.241e-04 -5.603e-04 -4.257e-04
ITEM: TIMESTEP
0
ITEM: NUMBER OF ATOMS
32
ITEM: BOX BOUNDS xy xz yz pp pp pp
                     -5.00000000000000e-01 5.00000000000000e-01 0.00000000000000e+00
-5.00000000000000e-01	5.00000000000000e-01	0.00000000000000e+00
-5.00000000000000e-01	5.00000000000000e-01	0.00000000000000e+00
ITEM: ATOMS id type x y z DisplacementX DisplacementY DisplacementZ
129 1 0.000e+00 -4.000e-01 0.000e+00 7.380e-04 -1.735e-03 1.512e-03
130 1 -2.000e-01 -2.000e-01 2.000e-01 7.020e-04 -1.142e-03 1.322e-03
131 1 2.000e-01 0.000e+00 2.000e-01 5.375e-04 2.417e-04 9.362e-04
132 1 0.000e+00 0.000e+00 4.000e-01 5.871e-04 -7.558e-04 9.474e-04
133 1 -2.000e-01 -2.000e-01 -2.000e-01 5.260e-04 -6.981e-04 -3.206e-04
134 1 -2.000e-01 2.000e-01 0.000e+00 1.296e-03 3.301e-04 -1.586e-03
135 1 0.000e+00 2.000e-01 0.000e+00 -1.295e-04 8.948e-04 -6.262e-04
136 1 0.000e+00 2.000e-01 -2.000e-01 -2.011e-03 1.284e-03 -6.345e-05
137 1 0.000e+00 -2.000e-01 2.000e-01 -7.371e-04 -1.302e-03 -1.829e-04
138 1 4.000e-01 0.000e+00 0.000e+00 1.921e-04 -2.719e-04 6.877e-04
139 1 2.000e-01 -2.000e-01 2.000e-01 1.277e-04 -4.420e-04 -6.471e-04
140 1 -2.000e-01 0.000e+00 0.000e+00 8.344e-05 4.796e-04 2.247e-03
141 1 0.000e+00 2.000e-01 2.000e-01 -1.827e-03 -1.425e-03 -1.003e-03
142 1 -4.000e-01 0.000e+00 0.000e+00 -2.322e-03 -1.021e-04 -3.034e-04
143 1 2.000e-01 2.000e-01 2.000e-01 -3.498e-03 -1.249e-03 8.512e-04
144 1 2.000e-01 2.000e-01 -2.000e-01 -3.285e-04 -7.947e-05 1.357e-03
145 1 -2.000e-01 0.000e+00 -2.000e-01 3.894e-04 -2.244e-04 2.654e-04
146 1 2.000e-01 -2.000e-01 0.000e+00 -5.599e-04 -5.833e-05 -2.016e-03
147 1 0.000e+00 0.000e+00 0.000e+00 -1.836e-04 -1.504e-03 2.004e-01
148 1 0.000e+00 -2.000e-01 -2.000e-01 -2.107e-03 -2.577e-04 5.084e-04
149 1 -2.000e-01 2.000e-01 -2.000e-01 -3.588e-04 6.698e-04 1.931e-03
150 1 -2.000e-01 0.000e+00 2.000e-01 3.670e-04 -1.365e-03 -1.679e-04
151 1 2.000e-01 0.000e+00 0.000e+00 -4.070e-04 -4.348e-04 -7.941e-04
152 1 2.000e-01 2.000e-01 0.000e+00 -1.141e-03 9.975e-04 -1.201e-03
153 1 -2.000e-01 -2.000e-01 0.000e+00 -1.083e-03 6.185e-04 4.395e-04
154 1 -2.000e-01 2.000e-01 2.000e-01 2.089e-03 -3.296e-04 -1.916e-03
155 1 2.000e-01 -2.000e-01 -2.000e-01 5.580e-04 3.367e-04 1.382e-03
156 1 2.000e-01 0.000e+00 -2.000e-01 1.676e-04 -1.879e-04 9.737e-04
157 1 0.000e+00 4.000e-01 0.000e+00 -1.285e-03 1.185e-03 4.185e-04
158 1 0.000e+00 0.000e+00 -2.000e-01 -1.723e-03 -4.653e-04 -1.438e-03
159 1 0.000e+00 -2.000e-01 0.000e+00 5.561e-04 6.801e-04 -4.618e-04
160 1 0.000e+00 0.000e+00 -4.000e-01 4.855e-05 -2.184e-04 -3.929e-04
ITEM: TIMESTEP
0
ITEM: NUMBER OF ATOMS
32
ITEM: BOX BOUNDS xy xz yz pp pp pp
                     -5.00000000000000e-01 5.00000000000000e-01 0.00000000000000e+00
-5.00000000000000e-01	5.00000000000000e-01	0.00000000000000e+00
-5.00000000000000e-01	5.00000000000000e-01	0.00000000000000e+00
ITEM: ATOMS id type x y z DisplacementX DisplacementY DisplacementZ
161 1 -2.000e-01 -2.000e-01 0.000e+00 -2.060e-03 1.337e-03 1.708e-03
162 1 0.000e+00 -2.000e-01 0.000e+00 -8.462e-04 1.622e-04 9.923e-04
163 1 4.000e-01 0.000e+00 0.000e+00 -7.015e-04 4.582e-04 -8.742e-05
164 1 2.000e-01 0.000e+00 2.000e-01 -1.053e-03 -1.404e-03 -2.069e-04
165 1 0.000e+00 0.000e+00 4.000e-01 -2.417e-03 -1.232e-04 -8.471e-04
166 1 0.000e+00 2.000e-01 -2.000e-01 -5.314e-04 1.224e-03 -6.835e-04
167 1 2.000e-01 2.000e-01 2.000e-01 -4.674e-04 -8.251e-04 -1.131e-03
168 1 -2.000e-01 2.000e-01 2.000e-01 -4.122e-04 1.845e-04 1.624e-03
169 1 2.000e-01 2.000e-01 -2.000e-01 1.431e-03 -5.429e-04 -1.015e-03
170 1 2.000e-01 -2.000e-01 0.000e+00 -7.767e-04 -6.378e-04 -1.819e-03
171 1 0.000e+00 4.000e-01 0.000e+00 -7.910e-04 1.104e-04 1.435e-03
172 1 0.000e+00 -2.000e-01 2.000e-01 -7.366e-04 8.246e-05 -1.820e-03
173 1 0.000e+00 2.000e-01 2.000e-01 1.923e-03 -4.686e-04 -4.327e-04
174 1 2.000e-01 -2.000e-01 2.000e-01 7.168e-04 -2.354e-04 5.161e-04
175 1 0.000e+00 0.000e+00 -2.000e-01 8.315e-04 1.422e-03 9.249e-05
176 1 2.000e-01 2.000e-01 0.000e+00 6.959e-04 1.908e-03 -8.540e-04
177 1 -2.000e-01 2.000e-01 0.000e+00 5.012e-05 5.471e-04 -6.625e-05
178 1 -2.000e-01 0.000e+00 -2.000e-01 -1.312e-03 1.555e-03 6.052e-04
179 1 -2.000e-01 0.000e+00 0.000e+00 2.911e-04 -2.014e-03 7.387e-05
180 1 0.000e+00 0.000e+00 2.000e-01 7.326e-04 3.129e-04 -8.032e-04
181 1 0.000e+00 0.000e+00 -4.000e-01 -6.278e-04 4.908e-04 -4.844e-04
182 1 2.000e-01 0.000e+00 -2.000e-01 1.014e-03 8.981e-04 -1.254e-03
183 1 0.000e+00 0.000e+00 0.000e+00 1.998e-01 7.176e-04 1.219e-03
184 1 -2.000e-01 -2.000e-01 2.000e-01 -1.334e-03 3.215e-04 2.141e-04
185 1 0.000e+00 -2.000e-01 -2.000e-01 -1.593e-03 2.688e-04 -6.099e-04
186 1 -4.000e-01 0.000e+00 0.000e+00 -9.350e-04 8.107e-04 1.089e-04
187 1 -2.000e-01 0.000e+00 2.000e-01 1.322e-04 -1.572e-06 -4.204e-04
188 1 0.000e+00 2.000e-01 0.000e+00 -1.000e-03 3.207e-04 1.787e-03
189 1 0.000e+00 -4.000e-01 0.000e+00 -1.548e-03 9.439e-04 -5.566e-04
190 1 2.000e-01 -2.000e-01 -2.000e-01 1.497e-04 -5.678e-04 -1.381e-03
191 1 -2.000e-01 -2.000e-01 -2.000e-01 8.760e-04 -4.170e-04 -2.705e-05
192 1 -2.000e-01 2.000e-01 -2.000e-01 -2.899e-04 -4.918e-04 2.958e-03
ITEM: TIMESTEP
0
ITEM: NUMBER OF ATOMS
32
ITEM: BOX BOUNDS xy xz yz pp pp pp
                     -5.00000000000000e-01 5.00000000000000e-01 0.00000000000000e+00
-5.00000000000000e-01	5.00000000000000e-01	0.00000000000000e+00
-5.00000000000000e-01	5.00000000000000e-01	0.00000000000000e+00
ITEM: ATOMS id type x y z DisplacementX DisplacementY DisplacementZ
193 1 2.000e-01 2.000e-01 2.000e-01 3.208e-04 4.548e-04 4.907e-04
194 1 -2.000e-01 0.000e+00 2.000e-01 1.762e-03 -2.020e-04 -1.757e-03
195 1 2.000e-01 0.000e+00 2.000e-01 -2.768e-04 1.257e-03 -5.713e-04
196 1 0.000e+00 0.000e+00 0.000e+00 4.286e-04 -2.015e-01 1.510e-03
197 1 2.000e-01 2.000e-01 -2.000e-01 -9.428e-04 5.153e-04 -1.260e-04
198 1 0.000e+00 0.000e+00 -4.000e-01 3.665e-05 1.187e-03 -1.048e-03
199 1 -2.000e-01 0.000e+00 -2.000e-01 -4.063e-04 4.698e-07 1.053e-03
200 1 -4.000e-01 0.000e+00 0.000e+00 -1.899e-03 1.424e-04 -8.096e-04
201 1 0.000e+00 4.000e-01 0.000e+00 9.794e-04 2.660e-03 7.371e-04
202 1 0.000e+00 0.000e+00 -2.000e-01 7.260e-04 4.623e-04 1.293e-03
203 1 2.000e-01 0.000e+00 0.000e+00 8.459e-04 -6.992e-04 9.164e-04
204 1 0.000e+00 0.000e+00 4.000e-01 1.121e-04 4.274e-04 -2.860e-04
205 1 0.000e+00 -4.000e-01 0.000e+00 4.913e-04 9.209e-04 3.023e-04
206 1 -2.000e-01 -2.000e-01 2.000e-01 -6.454e-04 -4.327e-05 1.032e-03
207 1 2.000e-01 -2.000e-01 -2.000e-01 4.478e-04 -4.173e-04 -8.394e-04
208 1 2.000e-01 0.000e+00 -2.000e-01 -1.031e-03 9.889e-04 -9.295e-04
209 1 2.000e-01 -2.000e-01 2.000e-01 -1.043e-03 -6.053e-04 -5.405e-04
210 1 2.000e-01 -2.000e-01 0.000e+00 -9.120e-04 8.095e-04 1.181e-03
211 1 -2.000e-01 2.000e-01 0.000e+00 1.304e-04 1.072e-03 8.800e-04
212 1 0.000e+00 2.000e-01 2.000e-01 -3.705e-04 -1.625e-03 3.235e-03
213 1 0.000e+00 -2.000e-01 -2.000e-01 1.421e-04 -3.196e-04 1.407e-03
214 1 2.000e-01 2.000e-01 0.000e+00 -7.988e-04 -6.429e-04 -1.818e-04
215 1 0.000e+00 0.000e+00 2.000e-01 1.119e-03 -1.776e-03 7.807e-05
216 1 -2.000e-01 -2.000e-01 -2.000e-01 1.119e-03 6.230e-04 1.120e-03
217 1 -2.000e-01 0.000e+00 0.000e+00 1.100e-03 5.046e-04 -6.153e-04
218 1 -2.000e-01 -2.000e-01 0.000e+00 1.154e-03 -1.607e-04 -1.339e-03
219 1 -2.000e-01 2.000e-01 -2.000e-01 -1.384e-03 7.922e-04 5.810e-04
220 1 0.000e+00 -2.000e-01 2.000e-01 -7.032e-04 -8.949e-04 1.299e-03
221 1 -2.000e-01 2.000e-01 2.000e-01 -4.769e-04 1.432e-03 7.776e-06
222 1 4.000e-01 0.000e+00 0.000e+00 1.232e-03 -1.221e-03 -8.011e-04
223 1 0.000e+00 2.000e-01 -2.000e-01 2.661e-03 6.967e-04 4.328e-05
224 1 0.000e+00 2.000e-01 0.000e+00 -1.327e-05 -1.557e-03 -5.556e-04
ITEM: TIMESTEP
0
ITEM: NUMBER OF ATOMS
32
ITEM: BOX BOUNDS xy xz yz pp pp pp
                     -5.00000000000000e-01 5.00000000000000e-01 0.00000000000000e+00
-5.00000000000000e-01	5.00000000000000e-01	0.00000000000000e+00
-5.00000000000000e-01	5.00000000000000e-01	0.00000000000000e+00
ITEM: ATOMS id type x y z DisplacementX DisplacementY DisplacementZ
225 1 0.000e+00 4.000e-01 0.000e+00 9.637e-04 2.024e-03 1.945e-03
226 1 0.000e+00 -2.000e-01 0.000e+00 -3.052e-04 1.383e-03 1.025e-06
227 1 0.000e+00 0.000e+00 0.000e+00 -9.426e-04 2.006e-01 9.341e-04
228 1 2.000e-01 -2.000e-01 -2.000e-01 1.356e-04 1.807e-03 -1.029e-04
229 1 0.000e+00 0.000e+00 2.000e-01 2.206e-04 -1.955e-03 7.982e-05
230 1 -2.000e-01 0.000e+00 -2.000e-01 2.887e-05 7.160e-05 8.083e-05
231 1 -2.000e-01 -2.000e-01 -2.000e-01 5.314e-04 4.304e-04 7.064e-04
232 1 -2.000e-01 2.000e-01 2.000e-01 -9.622e-04 -3.980e-04 -8.340e-04
233 1 0.000e+00 -2.000e-01 2.000e-01 1.586e-03 5.220e-04 -2.008e-05
234 1 2.000e-01 2.000e-01 -2.000e-01 3.871e-05 1.297e-03 1.026e-04
235 1 -2.000e-01 0.000e+00 0.000e+00 5.446e-04 6.160e-04 1.289e-03
236 1 0.000e+00 0.000e+00 -4.000e-01 1.502e-03 5.210e-04 -3.665e-04
237 1 0.000e+00 0.000e+00 4.000e-01 -5.400e-04 2.417e-04 -6.123e-04
238 1 0.000e+00 -2.000e-01 -2.000e-01 -3.563e-04 -1.561e-04 -2.801e-04
239 1 -2.000e-01 -2.000e-01 2.000e-01 1.542e-03 -6.609e-05 1.251e-03
240 1 2.000e-01 2.000e-01 2.000e-01 -1.121e-03 -1.657e-03 -2.274e-04
241 1 2.000e-01 0.000e+00 0.000e+00 -1.026e-03 -5.702e-04 -1.487e-03
242 1 2.000e-01 2.000e-01 0.000e+00 1.185e-03 -1.363e-03 1.231e-05
243 1 -4.000e-01 0.000e+00 0.000e+00 -9.903e-04 -3.120e-04 1.569e-03
244 1 0.000e+00 0.000e+00 -2.000e-01 -3.429e-04 6.745e-04 -1.131e-03
245 1 -2.000e-01 0.000e+00 2.000e-01 -3.193e-04 -9.014e-04 -5.684e-04
246 1 2.000e-01 0.000e+00 -2.000e-01 -2.564e-04 -9.141e-04 -9.614e-04
247 1 4.000e-01 0.000e+00 0.000e+00 7.539e-06 -1.832e-04 4.281e-04
248 1 0.000e+00 2.000e-01 -2.000e-01 1.418e-03 -1.021e-03 -3.820e-04
249 1 -2.000e-01 2.000e-01 -2.000e-01 -4.484e-04 9.430e-05 6.210e-04
250 1 -2.000e-01 2.000e-01 0.000e+00 3.698e-04 -4.571e-05 1.403e-03
251 1 -2.000e-01 -2.000e-01 0.000e+00 -1.137e-03 3.565e-04 1.054e-04
252 1 2.000e-01 -2.000e-01 2.000e-01 -5.095e-04 1.594e-04 -9.425e-04
253 1 0.000e+00 2.000e-01 2.000e-01 7.520e-04 -1.966e-03 5.368e-04
254 1 2.000e-01 0.000e+00 2.000e-01 -2.011e-03 -3.698e-04 2.982e-04
255 1 2.000e-01 -2.000e-01 0.000e+00 9.583e-04 4.162e-04 -8.466e-04
256 1 0.000e+00 -4.000e-01 0.000e+00 1.264e-03 -1.109e-03 -1.174e-03
ITEM: TIMESTEP
0
ITEM: NUMBER OF ATOMS
32
ITEM: BOX BOUNDS xy xz yz pp pp pp
                     -5.00000000000000e-01 5.00000000000000e-01 0.00000000000000e+00
-5.00000000000000e-01	5.00000000000000e-01	0.00000000000000e+00
-5.00000000000000e-01	5.00000000000000e-01	0.00000000000000e+00
ITEM: ATOMS id type x y z DisplacementX DisplacementY DisplacementZ
257 1 0.000e+00 2.000e-01 2.000e-01 4.719e-05 -1.162e-03 5.699e-04
258 1 -2.000e-01 2.000e-01 0.000e+00 -8.284e-04 5.081e-04 1.626e-03
259 1 2.000e-01 2.000e-01 2.000e-01 1.681e-04 2.249e-04 1.802e-03
260 1 0.000e+00 0.000e+00 -4.000e-01 -1.293e-03 1.514e-03 7.880e-04
261 1 -2.000e-01 2.000e-01 -2.000e-01 3.956e-04 -2.240e-04 9.239e-04
262 1 0.000e+00 2.000e-01 0.000e+00 6.801e-04 -9.856e-04 1.006e-03
263 1 -2.000e-01 -2.000e-01 0.000e+00 9.698e-04 1.441e-03 1.713e-04
264 1 -2.000e-01 -2.000e-01 2.000e-01 -1.651e-03 -1.263e-03 -6.739e-04
265 1 4.000e-01 0.000e+00 0.000e+00 -1.935e-03 1.609e-03 1.459e-03
266 1 0.000e+00 0.000e+00 -2.000e-01 1.638e-03 -3.075e-04 1.893e-03
267 1 0.000e+00 0.000e+00 4.000e-01 2.201e-03 2.935e-04 -8.764e-04
268 1 2.000e-01 -2.000e-01 -2.000e-01 8.404e-04 1.212e-03 -3.614e-04
269 1 0.000e+00 2.000e-01 -2.000e-01 -4.663e-04 -1.053e-03 -2.425e-04
270 1 0.000e+00 0.000e+00 2.000e-01 2.780e-03 -3.827e-04 -1.753e-03
271 1 0.000e+00 -2.000e-01 0.000e+00 -2.718e-04 1.380e-03 2.611e-04
272 1 0.000e+00 0.000e+00 0.000e+00 -2.000e-01 -1.136e-03 1.742e-03
273 1 -2.000e-01 -2.000e-01 -2.000e-01 -9.467e-04 -3.957e-04 -1.266e-03
274 1 2.000e-01 -2.000e-01 2.000e-01 -4.804e-04 4.565e-04 -9.378e-04
275 1 0.000e+00 -2.000e-01 -2.000e-01 -1.173e-04 -1.021e-03 -3.405e-04
276 1 2.000e-01 -2.000e-01 0.000e+00 -1.120e-03 -1.384e-03 4.846e-04
277 1 2.000e-01 0.000e+00 -2.000e-01 -2.075e-03 1.410e-03 -1.259e-03
278 1 -2.000e-01 0.000e+00 -2.000e-01 -7.053e-05 -8.316e-04 2.018e-03
279 1 0.000e+00 4.000e-01 0.000e+00 -1.036e-03 1.568e-03 -4.309e-04
280 1 2.000e-01 0.000e+00 2.000e-01 -2.885e-04 -4.709e-06 -9.217e-04
281 1 -2.000e-01 2.000e-01 2.000e-01 5.379e-04 4.836e-04 1.633e-03
282 1 2.000e-01 0.000e+00 0.000e+00 -6.755e-04 -1.092e-03 -1.369e-03
283 1 -4.000e-01 0.000e+00 0.000e+00 -1.535e-03 4.999e-06 -4.948e-04
284 1 2.000e-01 2.000e-01 -2.000e-01 -2.199e-03 -4.544e-04 -1.023e-04
285 1 -2.000e-01 0.000e+00 2.000e-01 9.277e-05 -9.760e-05 1.222e-03
286 1 0.000e+00 -2.000e-01 2.000e-01 -1.110e-03 1.162e-03 -6.350e-04
287 1 2.000e-01 2.000e-01 0.000e+00 1.477e-03 -7.905e-04 -7.914e-04
288 1 0.000e+00 -4.000e-01 0.000e+00 1.592e-04 4.654e-04 2.184e-04
ITEM: TIMESTEP
0
ITEM: NUMBER OF ATOMS
32
ITEM: BOX BOUNDS xy xz yz pp pp pp
                     -5.00000000000000e-01 5.00000000000000e-01 0.00000000000000e+00
-5.00000000000000e-01	5.00000000000000e-01	0.00000000000000e+00
-5.00000000000000e-01	5.00000000000000e-01	0.00000000000000e+00
ITEM: ATOMS id type x y z DisplacementX DisplacementY DisplacementZ
289 1 0.000e+00 2.000e-01 2.000e-01 3.524e-04 1.760e-03 -3.617e-04
290 1 2.000e-01 0.000e+00 -2.000e-01 -3.328e-04 -8.058e-04 7.990e-04
291 1 0.000e+00 2.000e-01 -2.000e-01 4.179e-04 2.408e-04 -5.349e-04
292 1 -2.000e-01 2.000e-01 0.000e+00 9.670e-04 6.876e-04 -9.732e-04
293 1 0.000e+00 2.000e-01 0.000e+00 1.152e-03 1.010e-03 7.597e-04
294 1 2.000e-01 2.000e-01 2.000e-01 7.229e-04 9.856e-04 1.332e-03
295 1 0.000e+00 -2.000e-01 2.000e-01 -6.897e-04 -1.149e-03 -5.692e-04
296 1 -2.000e-01 0.000e+00 -2.000e-01 1.597e-03 2.617e-04 -2.732e-04
297 1 0.000e+00 0.000e+00 -2.000e-01 2.192e-04 1.816e-03 -3.277e-04
298 1 -2.000e-01 -2.000e-01 0.000e+00 -3.546e-04 -7.359e-04 -6.692e-04
299 1 -2.000e-01 -2.000e-01 -2.000e-01 -4.810e-05 -1.405e-03 7.601e-04
300 1 2.000e-01 0.000e+00 0.000e+00 -3.729e-03 -3.636e-04 -4.741e-04
301 1 -2.000e-01 -2.000e-01 2.000e-01 1.012e-03 4.235e-04 -1.523e-03
302 1 0.000e+00 -2.000e-01 -2.000e-01 -1.723e-03 3.556e-04 2.247e-05
303 1 -4.000e-01 0.000e+00 0.000e+00 -4.713e-04 -4.444e-04 -1.348e-03
304 1 0.000e+00 -4.000e-01 0.000e+00 1.151e-03 8.481e-04 1.970e-04
305 1 2.000e-01 2.000e-01 0.000e+00 -2.201e-04 9.330e-04 8.608e-04
306 1 2.000e-01 -2.000e-01 2.000e-01 -1.313e-03 7.121e-04 8.814e-04
307 1 2.000e-01 0.000e+00 2.000e-01 2.493e-03 1.162e-03 -8.859e-04
308 1 0.000e+00 0.000e+00 -4.000e-01 -1.474e-03 6.503e-04 -2.362e-04
309 1 0.000e+00 -2.000e-01 0.000e+00 -9.876e-05 1.314e-03 -2.022e-03
310 1 2.000e-01 -2.000e-01 0.000e+00 -2.778e-04 -5.879e-04 2.140e-03
311 1 4.000e-01 0.000e+00 0.000e+00 -2.898e-04 3.027e-05 1.897e-05
312 1 0.000e+00 0.000e+00 0.000e+00 -2.738e-05 -8.678e-04 2.004e-01
313 1 -2.000e-01 0.000e+00 0.000e+00 2.753e-04 -1.824e-03 1.137e-03
314 1 -2.000e-01 2.000e-01 2.000e-01 9.402e-04 1.636e-03 -8.805e-04
315 1 -2.000e-01 0.000e+00 2.000e-01 5.816e-04 -6.425e-04 -1.393e-03
316 1 -2.000e-01 2.000e-01 -2.000e-01 -4.901e-04 2.831e-04 -8.107e-04
317 1 0.000e+00 0.000e+00 4.000e-01 -2.532e-03 -4.396e-04 1.269e-03
318 1 2.000e-01 2.000e-01 -2.000e-01 -1.015e-03 -1.113e-03 9.638e-04
319 1 2.000e-01 -2.000e-01 -2.000e-01 -1.728e-05 -1.323e-03 1.026e-03
320 1 0.000e+00 4.000e-01 0.000e+00 6.964e-04 1.124e-04 -1.775e-03
ITEM: TIMESTEP
0
ITEM: NUMBER OF ATOMS
32
ITEM: BOX BOUNDS xy xz yz pp pp pp
                     -5.00000000000000e-01 5.00000000000000e-01 0.00000000000000e+00
-5.00000000000000e-01	5.00000000000000e-01	0.00000000000000e+00
-5.00000000000000e-01	5.00000000000000e-01	0.00000000000000e+00
ITEM: ATOMS id type x y z DisplacementX DisplacementY DisplacementZ
321 1 -2.000e-01 -2.000e-01 -2.000e-01 5.528e-04 -7.334e-04 -6.053e-04
322 1 0.000e+00 2.000e-01 2.000e-01 2.374e-03 -1.027e-03 1.540e-03
323 1 2.000e-01 2.000e-01 0.000e+00 5.508e-04 -9.887e-04 -3.358e-04
324 1 0.000e+00 2.000e-01 -2.000e-01 -1.391e-03 6.849e-04 -2.174e-05
325 1 -2.000e-01 2.000e-01 0.000e+00 -9.356e-05 5.981e-04 -1.565e-03
326 1 2.000e-01 2.000e-01 -2.000e-01 3.857e-04 -1.249e-04 -1.228e-04
327 1 2.000e-01 -2.000e-01 0.000e+00 -3.749e-05 -5.209e-04 1.387e-03
328 1 0.000e+00 0.000e+00 4.000e-01 9.705e-04 5.796e-04 1.364e-03
329 1 0.000e+00 0.000e+00 -4.000e-01 1.313e-03 7.741e-04 1.168e-03
330 1 -2.000e-01 -2.000e-01 2.000e-01 -1.261e-03 -8.017e-04 -9.836e-04
331 1 2.000e-01 -2.000e-01 2.000e-01 -2.611e-03 -2.224e-03 -4.566e-04
332 1 0.000e+00 -2.000e-01 -2.000e-01 9.753e-04 5.304e-04 2.619e-04
333 1 -2.000e-01 0.000e+00 0.000e+00 -3.910e-04 3.029e-04 -8.042e-04
334 1 0.000e+00 0.000e+00 2.000e-01 -6.898e-04 5.080e-04 6.844e-04
335 1 0.000e+00 -2.000e-01 0.000e+00 -6.156e-04 -1.455e-04 5.725e-04
336 1 -2.000e-01 2.000e-01 -2.000e-01 -6.533e-04 -9.311e-05 9.531e-05
337 1 -2.000e-01 0.000e+00 2.000e-01 -1.172e-03 -3.885e-04 -3.695e-04
338 1 -2.000e-01 0.000e+00 -2.000e-01 -8.295e-04 4.605e-05 4.332e-04
339 1 4.000e-01 0.000e+00 0.000e+00 3.504e-04 -1.219e-03 6.384e-04
340 1 -2.000e-01 -2.000e-01 0.000e+00 2.057e-03 1.323e-03 -6.799e-04
341 1 2.000e-01 -2.000e-01 -2.000e-01 -5.956e-04 2.264e-04 -5.254e-04
342 1 0.000e+00 -2.000e-01 2.000e-01 5.463e-04 2.138e-03 -6.320e-04
343 1 0.000e+00 4.000e-01 0.000e+00 3.010e-04 -8.654e-05 2.404e-03
344 1 2.000e-01 0.000e+00 -2.000e-01 8.015e-04 -3.452e-04 -3.801e-05
345 1 2.000e-01 2.000e-01 2.000e-01 1.162e-03 -9.334e-04 -1.668e-03
346 1 0.000e+00 0.000e+00 -2.000e-01 -1.334e-04 -4.586e-04 -7.592e-04
347 1 0.000e+00 2.000e-01 0.000e+00 -3.839e-04 2.999e-04 1.413e-03
348 1 -4.000e-01 0.000e+00 0.000e+00 1.323e-03 -6.824e-04 -6.989e-04
349 1 0.000e+00 0.000e+00 0.000e+00 2.009e-01 8.266e-04 3.017e-04
350 1 0.000e+00 -4.000e-01 0.000e+00 4.848e-05 8.425e-04 2.309e-04
351 1 2.000e-01 0.000e+00 2.000e-01 6.870e-04 2.773e-04 2.025e-04
352 1 -2.000e-01 2.000e-01 2.000e-01 1.872e-03 7.449e-04 -5.774e-04
ITEM: TIMESTEP
0
ITEM: NUMBER OF ATOMS
32
ITEM: BOX BOUNDS xy xz yz pp pp pp
                     -5.00000000000000e-01 5.00000000000000e-01 0.00000000000000e+00
-5.00000000000000e-01	5.00000000000000e-01	0.00000000000000e+00
-5.00000000000000e-01	5.00000000000000e-01	0.00000000000000e+00
ITEM: ATOMS id type x y z DisplacementX DisplacementY DisplacementZ
353 1 -2.000e-01 2.000e-01 0.000e+00 -5.606e-04 -7.278e-04 -1.068e-03
354 1 2.000e-01 2.000e-01 0.000e+00 -8.687e-04 1.407e-03 6.910e-04
355 1 0.000e+00 2.000e-01 -2.000e-01 -1.113e-04 9.088e-04 -3.034e-04
356 1 -2.000e-01 -2.000e-01 2.000e-01 -3.060e-04 5.663e-04 -8.802e-04
357 1 2.000e-01 2.000e-01 2.000e-01 -1.884e-03 1.776e-03 5.031e-04
358 1 2.000e-01 2.000e-01 -2.000e-01 4.406e-04 1.002e-03 1.470e-03
359 1 0.000e+00 2.000e-01 2.000e-01 7.672e-04 -2.447e-04 1.017e-03
360 1 0.000e+00 -2.000e-01 -2.000e-01 1.058e-04 -2.797e-05 2.173e-03
361 1 -2.000e-01 0.000e+00 2.000e-01 7.871e-04 -1.467e-04 1.435e-04
362 1 0.000e+00 0.000e+00 4.000e-01 2.794e-04 2.935e-04 2.238e-04
363 1 0.000e+00 -2.000e-01 0.000e+00 2.926e-04 6.575e-04 -5.306e-04
364 1 -2.000e-01 0.000e+00 0.000e+00 6.130e-04 1.967e-03 9.062e-04
365 1 0.000e+00 -4.000e-01 0.000e+00 7.874e-04 -9.551e-04 3.425e-04
366 1 2.000e-01 -2.000e-01 2.000e-01 -1.622e-03 8.531e-04 5.101e-04
367 1 -2.000e-01 -2.000e-01 -2.000e-01 -9.103e-04 -2.743e-04 7.426e-05
368 1 2.000e-01 0.000e+00 2.000e-01 4.141e-04 6.626e-04 -1.699e-03
369 1 0.000e+00 -2.000e-01 2.000e-01 1.380e-03 -4.444e-04 -1.476e-04
370 1 -4.000e-01 0.000e+00 0.000e+00 1.529e-03 8.790e-05 -1.188e-03
371 1 2.000e-01 0.000e+00 0.000e+00 8.871e-04 -9.899e-05 5.943e-04
372 1 2.000e-01 -2.000e-01 -2.000e-01 1.577e-03 3.523e-04 4.920e-05
373 1 2.000e-01 0.000e+00 -2.000e-01 -5.644e-04 2.664e-04 8.924e-04
374 1 0.000e+00 0.000e+00 2.000e-01 1.181e-03 6.519e-05 3.181e-04
375 1 -2.000e-01 -2.000e-01 0.000e+00 1.599e-05 5.458e-04 9.491e-04
376 1 0.000e+00 4.000e-01 0.000e+00 -5.409e-04 3.235e-05 6.043e-05
377 1 0.000e+00 0.000e+00 -4.000e-01 -1.081e-03 -5.657e-04 -4.575e-04