ITEM: TIMESTEP
0
ITEM: NUMBER OF ATOMS
107
ITEM: BOX BOUNDS xy xz yz pp pp pp
                     0.00000000000000e+00 1.06000000000000e+01 0.00000000000000e+00
0.00000000000000e+00	1.06000000000000e+01	0.00000000000000e+00
0.00000000000000e+00	1.06000000000000e+01	0.00000000000000e+00
ITEM: ATOMS id type x y z DisplacementX DisplacementY DisplacementZ
1 1 3.541e-01 3.523e-01 3.542e-01 6.276e-04 1.531e-03 8.234e-04
2 1 2.122e+00 2.123e+00 3.545e-01 -8.958e-04 7.980e-04 -1.054e-03
3 1 2.123e+00 3.521e-01 2.126e+00 -4.020e-06 -1.831e-03 2.287e-04
4 1 3.533e-01 2.122e+00 2.124e+00 -2.787e-03 -1.298e-02 -1.693e-02
5 1 3.895e+00 3.540e-01 3.553e-01 -3.389e-04 9.551e-04 3.461e-04
6 1 5.664e+00 2.124e+00 3.542e-01 1.561e-03 -1.525e-02 -1.549e-02
7 1 5.667e+00 3.516e-01 2.127e+00 -5.077e-03 -1.412e-02 -1.870e-02
8 1 3.897e+00 2.123e+00 2.125e+00 3.242e-03 -1.283e-02 -1.963e-02
9 1 7.434e+00 3.492e-01 3.561e-01 -1.530e-03 -1.151e-02 -2.248e-02
10 1 9.203e+00 2.124e+00 3.555e-01 -2.765e-03 -1.300e-02 -1.455e-02
11 1 9.202e+00 3.526e-01 2.127e+00 4.072e-03 -1.313e-02 -1.975e-02
12 1 7.433e+00 2.122e+00 2.121e+00 4.183e-04 -2.587e-02 -1.473e-02
13 1 3.511e-01 3.894e+00 3.547e-01 -1.883e-03 -1.497e-02 -1.496e-02
14 1 2.122e+00 3.895e+00 2.125e+00 -9.635e-04 -1.891e-02 -1.723e-02
15 1 3.894e+00 3.894e+00 3.543e-01 2.230e-03 -1.645e-02 -1.645e-02
16 1 5.666e+00 3.897e+00 2.127e+00 8.013e-03 -1.024e-02 -1.844e-02
17 1 7.433e+00 3.898e+00 3.564e-01 -5.065e-05 -1.096e-02 -1.172e-02
18 1 9.200e+00 3.898e+00 2.127e+00 -7.494e-03 -1.028e-02 -1.624e-02
19 1 3.504e-01 3.505e-01 3.894e+00 3.246e-04 1.338e-03 5.382e-04
20 1 2.124e+00 2.125e+00 3.894e+00 -7.984e-05 -4.184e-04 4.633e-04
21 1 3.898e+00 3.512e-01 3.893e+00 2.196e-04 -7.013e-04 1.382e-03
22 1 5.662e+00 2.125e+00 3.894e+00 2.718e-03 -1.614e-02 -1.865e-02
23 1 7.435e+00 3.619e-01 3.896e+00 -8.848e-05 -2.703e-02 -1.413e-02
24 1 9.206e+00 2.124e+00 3.893e+00 -3.900e-03 -1.526e-02 -1.887e-02
25 1 3.513e-01 3.898e+00 3.896e+00 -3.193e-04 -1.719e-02 -1.891e-02
26 1 3.897e+00 3.898e+00 3.896e+00 -2.574e-04 -1.895e-02 -1.825e-02
27 1 7.433e+00 3.883e+00 3.893e+00 1.169e-03 5.435e-05 -2.427e-02
28 1 2.124e+00 3.538e-01 5.664e+00 -6.155e-04 9.968e-05 -1.525e-03
29 1 3.527e-01 2.124e+00 5.662e+00 3.641e-04 -5.079e-04 -2.410e-04
30 1 5.665e+00 3.518e-01 5.663e+00 1.121e-03 -1.082e-03 7.999e-04
31 1 3.896e+00 2.125e+00 5.662e+00 5.565e-04 1.600e-04 4.768e-04
32 1 9.202e+00 3.521e-01 5.661e+00 5.963e-05 -1.034e-04 2.356e-04
33 1 7.435e+00 2.124e+00 5.666e+00 -1.123e-04 -1.234e-02 -1.981e-02
34 1 2.125e+00 3.897e+00 5.664e+00 -4.128e-05 1.328e-04 -9.110e-04
35 1 5.665e+00 3.898e+00 5.661e+00 1.101e-03 -1.796e-02 -1.513e-02
36 1 9.201e+00 3.896e+00 5.664e+00 -1.553e-04 -1.878e-02 -1.710e-02
37 1 3.522e-01 3.519e-01 7.432e+00 9.831e-05 -6.789e-04 7.832e-04
38 1 2.125e+00 2.124e+00 7.435e+00 -3.578e-04 -4.963e-04 1.132e-03
39 1 2.124e+00 3.524e-01 9.205e+00 -1.197e-03 -1.548e-03 9.609e-04
40 1 3.538e-01 2.126e+00 9.204e+00 1.809e-03 9.453e-04 -2.896e-04
41 1 3.896e+00 3.531e-01 7.432e+00 -1.167e-03 -5.843e-04 2.013e-03
42 1 5.665e+00 2.123e+00 7.434e+00 -1.539e-03 2.907e-05 1.273e-03
43 1 5.665e+00 3.517e-01 9.204e+00 -2.011e-03 1.470e-03 -1.777e-03
44 1 3.896e+00 2.123e+00 9.204e+00 1.244e-03 1.068e-04 1.031e-03
45 1 7.434e+00 3.515e-01 7.429e+00 2.731e-03 -6.810e-04 -1.005e-03
46 1 9.203e+00 2.124e+00 7.432e+00 2.916e-04 -2.693e-04 -7.141e-04
47 1 9.204e+00 3.544e-01 9.205e+00 1.638e-04 3.088e-04 -1.239e-03
48 1 7.433e+00 2.124e+00 9.205e+00 2.474e-05 -1.604e-02 -1.429e-02
49 1 3.517e-01 3.895e+00 7.433e+00 4.485e-04 -1.141e-04 1.360e-03
50 1 2.125e+00 3.893e+00 9.203e+00 7.953e-04 -9.743e-04 2.794e-04
51 1 3.895e+00 3.892e+00 7.433e+00 5.033e-04 -9.744e-04 -1.716e-03
52 1 5.662e+00 3.895e+00 9.204e+00 1.545e-03 -1.611e-02 -1.192e-02
53 1 7.434e+00 3.896e+00 7.431e+00 -3.462e-04 -2.099e-02 -1.451e-02
54 1 9.203e+00 3.894e+00 9.205e+00 -7.664e-04 -1.748e-02 -1.294e-02
55 1 2.125e+00 5.664e+00 3.551e-01 6.739e-04 -1.640e-02 -1.757e-02
56 1 3.510e-01 5.665e+00 2.125e+00 1.234e-02 -1.965e-02 -1.707e-02
57 1 5.667e+00 5.666e+00 3.545e-01 7.505e-03 -1.709e-02 -9.581e-03
58 1 3.897e+00 5.666e+00 2.126e+00 -1.304e-02 -1.757e-02 -1.721e-02
59 1 9.202e+00 5.664e+00 3.561e-01 -7.935e-03 -1.842e-02 -9.002e-03
60 1 7.433e+00 5.674e+00 2.136e+00 8.026e-04 1.735e+00 1.735e+00
61 1 3.493e-01 7.433e+00 3.567e-01 1.239e-03 -1.829e-02 -1.818e-02
62 1 2.124e+00 9.203e+00 3.555e-01 1.582e-03 -1.267e-03 7.205e-04
63 1 2.122e+00 7.434e+00 2.123e+00 2.824e-04 -1.579e-02 -1.462e-02
64 1 3.506e-01 9.203e+00 2.126e+00 -1.016e-03 -1.998e-02 -1.848e-02
65 1 3.899e+00 7.433e+00 3.572e-01 5.179e-05 -1.953e-02 -1.920e-02
66 1 5.666e+00 9.201e+00 3.566e-01 2.165e-04 -1.701e-02 -1.598e-02
67 1 5.673e+00 7.434e+00 2.133e+00 4.675e-04 -2.581e-02 -2.589e-02
68 1 3.896e+00 9.202e+00 2.124e+00 5.694e-04 -1.836e-02 -1.806e-02
69 1 7.434e+00 7.434e+00 3.460e-01 1.986e-03 -2.660e-02 -9.754e-04
70 1 9.201e+00 9.203e+00 3.564e-01 1.416e-04 -1.874e-02 -1.702e-02
71 1 9.195e+00 7.435e+00 2.134e+00 -2.162e-03 -2.422e-02 -2.607e-02
72 1 7.436e+00 9.196e+00 2.133e+00 3.787e-04 2.430e-04 -2.669e-02
73 1 2.123e+00 5.661e+00 3.893e+00 1.753e-03 -1.435e-02 -1.556e-02
74 1 5.672e+00 5.673e+00 3.894e+00 1.035e-03 -2.567e-02 -2.594e-02
75 1 9.195e+00 5.673e+00 3.893e+00 -1.256e-03 -2.581e-02 -2.419e-02
76 1 3.631e-01 7.434e+00 3.895e+00 -1.336e-02 -1.828e-02 -1.770e-02
77 1 2.125e+00 9.205e+00 3.894e+00 3.677e-04 8.461e-04 -9.852e-04
78 1 3.885e+00 7.434e+00 3.894e+00 1.221e-02 -1.671e-02 -1.789e-02
79 1 5.673e+00 9.193e+00 3.895e+00 -5.035e-03 -9.729e-03 -1.755e-02
80 1 9.196e+00 9.195e+00 3.893e+00 9.231e-03 -8.166e-03 -1.969e-02
81 1 3.512e-01 5.664e+00 5.662e+00 3.909e-04 -1.836e-02 -1.910e-02
82 1 3.897e+00 5.665e+00 5.663e+00 8.857e-04 -1.911e-02 -1.777e-02
83 1 7.435e+00 5.674e+00 5.653e+00 -2.619e-04 -2.544e-02 3.042e-03
84 1 2.125e+00 7.435e+00 5.666e+00 3.227e-03 -9.801e-05 5.702e-04
85 1 3.515e-01 9.203e+00 5.662e+00 -2.699e-04 -4.729e-04 6.855e-04
86 1 5.674e+00 7.434e+00 5.654e+00 -5.602e-03 -1.865e-02 -9.510e-03
87 1 3.896e+00 9.202e+00 5.662e+00 -6.566e-04 -1.308e-03 -1.634e-03
88 1 9.195e+00 7.434e+00 5.654e+00 7.665e-03 -1.666e-02 -1.007e-02
89 1 7.433e+00 9.194e+00 5.655e+00 -1.507e-03 -1.053e-02 -1.033e-02
90 1 2.124e+00 5.667e+00 7.434e+00 -1.119e-03 -1.348e-04 -1.350e-03
91 1 3.533e-01 5.664e+00 9.202e+00 -1.456e-03 -1.662e-02 -1.595e-02
92 1 5.665e+00 5.666e+00 7.432e+00 -2.110e-03 -1.878e-02 -1.619e-02
93 1 3.894e+00 5.664e+00 9.206e+00 4.744e-03 -1.599e-02 -1.388e-02
94 1 9.202e+00 5.666e+00 7.430e+00 5.274e-03 -1.806e-02 -1.371e-02
95 1 7.434e+00 5.663e+00 9.205e+00 -3.438e-04 -1.476e-02 -2.623e-02
96 1 3.515e-01 7.434e+00 7.431e+00 3.946e-04 3.036e-04 1.366e-04
97 1 2.124e+00 9.204e+00 7.434e+00 -1.538e-04 -5.415e-04 -1.072e-03
98 1 2.124e+00 7.434e+00 9.204e+00 -1.255e-03 -4.459e-04 7.113e-04
99 1 3.531e-01 9.203e+00 9.203e+00 2.026e-04 7.406e-04 -9.717e-04
100 1 3.897e+00 7.433e+00 7.430e+00 -1.898e-05 7.298e-04 1.875e-03
101 1 5.666e+00 9.202e+00 7.431e+00 1.719e-03 3.479e-04 5.659e-04
102 1 5.662e+00 7.435e+00 9.206e+00 2.246e-03 -1.774e-02 -1.449e-02
103 1 3.893e+00 9.204e+00 9.205e+00 -2.860e-04 -1.018e-03 -9.926e-04
104 1 7.434e+00 7.434e+00 7.443e+00 6.974e-05 -1.457e-02 -2.748e-02
105 1 9.202e+00 9.203e+00 7.432e+00 -2.616e-04 2.072e-04 1.696e-03
106 1 9.207e+00 7.434e+00 9.205e+00 -2.767e-03 -1.679e-02 -1.394e-02
107 1 7.433e+00 9.206e+00 9.205e+00 6.534e-04 -2.134e-02 -1.328e-02
ITEM: TIMESTEP
0
ITEM: NUMBER OF ATOMS
107
ITEM: BOX BOUNDS xy xz yz pp pp pp
                     0.00000000000000e+00 1.06000000000000e+01 0.00000000000000e+00
0.00000000000000e+00	1.06000000000000e+01	0.00000000000000e+00
0.00000000000000e+00	1.06000000000000e+01	0.00000000000000e+00
ITEM: ATOMS id type x y z DisplacementX DisplacementY DisplacementZ
1 1 3.541e-01 3.523e-01 3.542e-01 8.415e-04 -1.114e-03 -1.432e-03
2 1 2.122e+00 2.123e+00 3.545e-01 -1.549e-03 -7.546e-04 1.056e-03
3 1 2.123e+00 3.521e-01 2.126e+00 -1.230e-02 -2.990e-03 -1.798e-02
4 1 3.533e-01 2.122e+00 2.124e+00 -1.413e-03 3.181e-04 5.774e-04
5 1 3.895e+00 3.540e-01 3.553e-01 -1.775e-02 -3.431e-03 -1.727e-02
6 1 5.664e+00 2.124e+00 3.542e-01 -1.725e-02 -6.739e-04 -1.935e-02
7 1 5.667e+00 3.516e-01 2.127e+00 -1.845e-02 1.253e-02 -1.954e-02
8 1 3.897e+00 2.123e+00 2.125e+00 -1.741e-02 9.910e-04 -1.585e-02
9 1 7.434e+00 3.492e-01 3.561e-01 -1.730e-02 -9.923e-04 -1.770e-02
10 1 9.203e+00 2.124e+00 3.555e-01 -1.426e-04 -7.623e-04 1.199e-03
11 1 9.202e+00 3.526e-01 2.127e+00 -1.963e-02 5.741e-04 -1.900e-02
12 1 7.433e+00 2.122e+00 2.121e+00 -1.494e-02 -3.143e-04 -1.745e-02
13 1 3.511e-01 3.894e+00 3.547e-01 1.500e-03 7.796e-04 -2.127e-04
14 1 2.122e+00 3.895e+00 2.125e+00 -1.375e-02 3.789e-03 -1.835e-02
15 1 3.894e+00 3.894e+00 3.543e-01 -1.538e-02 2.467e-03 -1.528e-02
16 1 5.666e+00 3.897e+00 2.127e+00 -1.839e-02 -1.150e-02 -1.890e-02
17 1 7.433e+00 3.898e+00 3.564e-01 -1.907e-02 -3.833e-04 -1.856e-02
18 1 9.200e+00 3.898e+00 2.127e+00 -1.923e-02 1.335e-03 -1.853e-02
19 1 3.504e-01 3.505e-01 3.894e+00 1.590e-03 -1.182e-04 2.213e-04
20 1 2.124e+00 2.125e+00 3.894e+00 -1.010e-03 4.352e-04 1.018e-03
21 1 3.898e+00 3.512e-01 3.893e+00 -1.765e-02 6.782e-04 -1.820e-02
22 1 5.662e+00 2.125e+00 3.894e+00 -1.715e-02 -1.298e-04 -1.381e-02
23 1 7.435e+00 3.619e-01 3.896e+00 -1.879e-02 -1.239e-02 -1.753e-02
24 1 9.206e+00 2.124e+00 3.893e+00 -2.544e-05 -2.031e-04 -1.275e-04
25 1 3.513e-01 3.898e+00 3.896e+00 4.578e-04 9.019e-04 3.401e-04
26 1 3.897e+00 3.898e+00 3.896e+00 -1.806e-02 -6.957e-04 -1.765e-02
27 1 7.433e+00 3.883e+00 3.893e+00 -1.753e-02 1.282e-02 -1.837e-02
28 1 2.124e+00 3.538e-01 5.664e+00 -3.463e-04 -9.909e-04 -1.486e-03
29 1 3.527e-01 2.124e+00 5.662e+00 -2.266e-04 1.405e-03 -5.601e-04
30 1 5.665e+00 3.518e-01 5.663e+00 -1.912e-02 1.311e-03 -1.700e-02
31 1 3.896e+00 2.125e+00 5.662e+00 9.111e-04 -6.509e-04 8.621e-04
32 1 9.202e+00 3.521e-01 5.661e+00 8.120e-04 -4.946e-04 -8.110e-04
33 1 7.435e+00 2.124e+00 5.666e+00 1.566e-03 -1.016e-03 -2.333e-04
34 1 2.125e+00 3.897e+00 5.664e+00 -4.938e-04 -8.899e-05 -1.821e-04
35 1 5.665e+00 3.898e+00 5.661e+00 -1.931e-02 1.104e-03 -1.862e-02
36 1 9.201e+00 3.896e+00 5.664e+00 -5.937e-04 9.486e-04 2.658e-03
37 1 3.522e-01 3.519e-01 7.432e+00 1.296e-03 -1.091e-03 -1.462e-03
38 1 2.125e+00 2.124e+00 7.435e+00 1.114e-03 -1.126e-03 -1.053e-03
39 1 2.124e+00 3.524e-01 9.205e+00 -7.718e-04 -3.543e-04 -5.831e-04
40 1 3.538e-01 2.126e+00 9.204e+00 -6.626e-04 -4.275e-04 -1.032e-03
41 1 3.896e+00 3.531e-01 7.432e+00 1.916e-04 1.126e-03 -3.904e-04
42 1 5.665e+00 2.123e+00 7.434e+00 3.226e-04 2.595e-04 1.189e-04
43 1 5.665e+00 3.517e-01 9.204e+00 -1.536e-02 -2.909e-03 -1.355e-02
44 1 3.896e+00 2.123e+00 9.204e+00 1.102e-03 9.862e-04 -1.064e-03
45 1 7.434e+00 3.515e-01 7.429e+00 -5.301e-04 6.723e-04 -2.416e-05
46 1 9.203e+00 2.124e+00 7.432e+00 -1.358e-04 5.012e-05 -6.163e-04
47 1 9.204e+00 3.544e-01 9.205e+00 -5.608e-04 -1.428e-04 -1.258e-03
48 1 7.433e+00 2.124e+00 9.205e+00 -1.259e-03 1.514e-03 3.778e-04
49 1 3.517e-01 3.895e+00 7.433e+00 -1.378e-04 -5.026e-04 -1.337e-03
50 1 2.125e+00 3.893e+00 9.203e+00 7.315e-04 9.663e-04 8.304e-04
51 1 3.895e+00 3.892e+00 7.433e+00 4.460e-04 9.292e-04 -1.790e-04
52 1 5.662e+00 3.895e+00 9.204e+00 -1.692e-02 3.367e-03 -1.168e-02
53 1 7.434e+00 3.896e+00 7.431e+00 -9.043e-04 -4.841e-04 -1.160e-03
54 1 9.203e+00 3.894e+00 9.205e+00 5.728e-04 -1.729e-03 9.148e-04
55 1 2.125e+00 5.664e+00 3.551e-01 -1.279e-02 7.115e-04 -1.517e-02
56 1 3.510e-01 5.665e+00 2.125e+00 -1.350e-02 -3.040e-03 -1.770e-02
57 1 5.667e+00 5.666e+00 3.545e-01 -1.723e-02 7.486e-03 -1.110e-02
58 1 3.897e+00 5.666e+00 2.126e+00 -8.449e-03 6.522e-03 -1.650e-02
59 1 9.202e+00 5.664e+00 3.561e-01 -1.834e-02 -1.698e-03 -1.823e-02
60 1 7.433e+00 5.674e+00 2.136e+00 -2.559e-02 -1.654e-03 -2.623e-02
61 1 3.493e-01 7.433e+00 3.567e-01 -1.423e-02 2.819e-03 -2.043e-02
62 1 2.124e+00 9.203e+00 3.555e-01 -1.365e-02 -1.830e-03 -1.568e-02
63 1 2.122e+00 7.434e+00 2.123e+00 -2.614e-02 -4.139e-04 -1.565e-02
64 1 3.506e-01 9.203e+00 2.126e+00 -1.495e-02 2.286e-03 -2.022e-02
65 1 3.899e+00 7.433e+00 3.572e-01 -1.083e-02 -1.475e-03 -1.258e-02
66 1 5.666e+00 9.201e+00 3.566e-01 -1.956e-02 -7.314e-03 -9.291e-03
67 1 5.673e+00 7.434e+00 2.133e+00 1.733e+00 -1.815e-05 1.736e+00
68 1 3.896e+00 9.202e+00 2.124e+00 -1.041e-02 -8.838e-03 -1.838e-02
69 1 7.434e+00 7.434e+00 3.460e-01 -2.591e-02 1.254e-03 -2.319e-04
70 1 9.201e+00 9.203e+00 3.564e-01 -1.872e-02 -4.090e-04 -1.620e-02
71 1 9.195e+00 7.435e+00 2.134e+00 3.333e-03 1.393e-04 -2.706e-02
72 1 7.436e+00 9.196e+00 2.133e+00 -2.508e-02 -4.514e-04 -2.702e-02
73 1 2.123e+00 5.661e+00 3.893e+00 -1.460e-02 3.543e-03 -1.850e-02
74 1 5.672e+00 5.673e+00 3.894e+00 -2.575e-02 1.685e-04 -2.684e-02
75 1 9.195e+00 5.673e+00 3.893e+00 -1.165e-02 -6.018e-03 -1.813e-02
76 1 3.631e-01 7.434e+00 3.895e+00 -2.632e-02 5.031e-05 -1.431e-02
77 1 2.125e+00 9.205e+00 3.894e+00 -1.439e-02 -2.310e-03 -1.692e-02
78 1 3.885e+00 7.434e+00 3.894e+00 1.215e-03 2.380e-04 -2.509e-02
79 1 5.673e+00 9.193e+00 3.895e+00 -2.428e-02 1.609e-03 -2.530e-02
80 1 9.196e+00 9.195e+00 3.893e+00 -1.016e-02 6.147e-03 -1.869e-02
81 1 3.512e-01 5.664e+00 5.662e+00 -8.432e-05 -7.180e-04 -1.148e-03
82 1 3.897e+00 5.665e+00 5.663e+00 -1.804e-02 2.942e-04 -1.652e-02
83 1 7.435e+00 5.674e+00 5.653e+00 -1.771e-02 -5.972e-03 -1.056e-02
84 1 2.125e+00 7.435e+00 5.666e+00 -1.405e-02 1.524e-04 -2.105e-02
85 1 3.515e-01 9.203e+00 5.662e+00 3.914e-04 2.180e-04 3.124e-04
86 1 5.674e+00 7.434e+00 5.654e+00 -2.576e-02 4.385e-04 4.262e-04
87 1 3.896e+00 9.202e+00 5.662e+00 -1.945e-02 3.177e-04 -1.793e-02
88 1 9.195e+00 7.434e+00 5.654e+00 -9.759e-03 -1.617e-03 -7.772e-03
89 1 7.433e+00 9.194e+00 5.655e+00 -1.779e-02 7.383e-03 -8.626e-03
90 1 2.124e+00 5.667e+00 7.434e+00 4.348e-04 7.710e-05 -4.504e-04
91 1 3.533e-01 5.664e+00 9.202e+00 3.637e-04 2.921e-04 1.701e-04
92 1 5.665e+00 5.666e+00 7.432e+00 -1.923e-02 -3.547e-03 -1.419e-02
93 1 3.894e+00 5.664e+00 9.206e+00 -1.636e-02 1.757e-03 -1.503e-02
94 1 9.202e+00 5.666e+00 7.430e+00 3.967e-04 3.750e-04 2.785e-04
95 1 7.434e+00 5.663e+00 9.205e+00 -1.775e-02 3.415e-03 -1.450e-02
96 1 3.515e-01 7.434e+00 7.431e+00 6.125e-04 7.722e-04 -7.256e-04
97 1 2.124e+00 9.204e+00 7.434e+00 -1.134e-03 -7.114e-04 1.203e-03
98 1 2.124e+00 7.434e+00 9.204e+00 -1.444e-02 1.043e-03 -1.416e-02
99 1 3.531e-01 9.203e+00 9.203e+00 -1.385e-04 5.247e-04 7.712e-04
100 1 3.897e+00 7.433e+00 7.430e+00 -2.129e-02 3.029e-04 -1.280e-02
101 1 5.666e+00 9.202e+00 7.431e+00 -1.925e-02 2.720e-03 -1.174e-02
102 1 5.662e+00 7.435e+00 9.206e+00 -1.599e-02 9.295e-04 -2.317e-02
103 1 3.893e+00 9.204e+00 9.205e+00 -1.616e-02 -2.084e-03 -1.333e-02
104 1 7.434e+00 7.434e+00 7.443e+00 -1.438e-02 7.205e-04 -2.706e-02
105 1 9.202e+00 9.203e+00 7.432e+00 -4.053e-04 -1.425e-03 1.437e-03
106 1 9.207e+00 7.434e+00 9.205e+00 -2.055e-02 1.005e-03 -1.192e-02
107 1 7.433e+00 9.206e+00 9.205e+00 -1.844e-02 -3.724e-03 -1.417e-02
ITEM: TIMESTEP
0
ITEM: NUMBER OF ATOMS
107
ITEM: BOX BOUNDS xy xz yz pp pp pp
                     0.00000000000000e+00 1.06000000000000e+01 0.00000000000000e+00
0.00000000000000e+00	1.06000000000000e+01	0.00000000000000e+00
0.00000000000000e+00	1.06000000000000e+01	0.00000000000000e+00
ITEM: ATOMS id type x y z DisplacementX DisplacementY DisplacementZ
1 1 3.541e-01 3.523e-01 3.542e-01 1.522e-02 4.334e-05 -1.590e-02
2 1 2.122e+00 2.123e+00 3.545e-01 -4.581e-04 -7.543e-04 -4.780e-04
3 1 2.123e+00 3.521e-01 2.126e+00 1.429e-02 -3.949e-03 -1.748e-02
4 1 3.533e-01 2.122e+00 2.124e+00 1.955e-02 -2.121e-04 -1.778e-02
5 1 3.895e+00 3.540e-01 3.553e-01 2.773e-04 6.341e-04 1.444e-03
6 1 5.664e+00 2.124e+00 3.542e-01 4.854e-04 -5.136e-06 2.985e-04
7 1 5.667e+00 3.516e-01 2.127e+00 1.710e-02 2.858e-04 -1.848e-02
8 1 3.897e+00 2.123e+00 2.125e+00 8.481e-04 -1.756e-03 -6.941e-04
9 1 7.434e+00 3.492e-01 3.561e-01 1.971e-02 1.435e-03 -1.755e-02
10 1 9.203e+00 2.124e+00 3.555e-01 1.706e-02 -2.100e-04 -2.041e-02
11 1 9.202e+00 3.526e-01 2.127e+00 1.875e-02 1.224e-02 -1.777e-02
12 1 7.433e+00 2.122e+00 2.121e+00 1.479e-02 4.165e-04 -1.473e-02
13 1 3.511e-01 3.894e+00 3.547e-01 1.712e-02 2.040e-03 -1.466e-02
14 1 2.122e+00 3.895e+00 2.125e+00 1.162e-02 3.484e-03 -1.668e-02
15 1 3.894e+00 3.894e+00 3.543e-01 -1.397e-03 -4.224e-04 1.420e-04
16 1 5.666e+00 3.897e+00 2.127e+00 1.721e-02 3.124e-04 -1.879e-02
17 1 7.433e+00 3.898e+00 3.564e-01 1.879e-02 4.640e-04 -1.861e-02
18 1 9.200e+00 3.898e+00 2.127e+00 1.943e-02 -1.089e-02 -1.869e-02
19 1 3.504e-01 3.505e-01 3.894e+00 1.744e-02 -3.882e-04 -1.691e-02
20 1 2.124e+00 2.125e+00 3.894e+00 -2.844e-05 -1.184e-03 3.475e-04
21 1 3.898e+00 3.512e-01 3.893e+00 1.188e-03 2.206e-04 -1.644e-03
22 1 5.662e+00 2.125e+00 3.894e+00 6.332e-04 1.128e-03 1.106e-03
23 1 7.435e+00 3.619e-01 3.896e+00 1.848e-02 -1.220e-02 -1.881e-02
24 1 9.206e+00 2.124e+00 3.893e+00 1.552e-02 -6.405e-04 -1.502e-02
25 1 3.513e-01 3.898e+00 3.896e+00 1.744e-02 2.531e-04 -1.780e-02
26 1 3.897e+00 3.898e+00 3.896e+00 -7.934e-04 3.825e-04 1.412e-03
27 1 7.433e+00 3.883e+00 3.893e+00 1.947e-02 1.040e-02 -1.847e-02
28 1 2.124e+00 3.538e-01 5.664e+00 7.120e-04 6.070e-05 7.513e-04
29 1 3.527e-01 2.124e+00 5.662e+00 9.829e-04 1.271e-03 3.855e-04
30 1 5.665e+00 3.518e-01 5.663e+00 -3.026e-04 -1.298e-04 2.042e-04
31 1 3.896e+00 2.125e+00 5.662e+00 -6.755e-04 -1.429e-03 2.785e-04
32 1 9.202e+00 3.521e-01 5.661e+00 1.793e-02 2.186e-04 -1.569e-02
33 1 7.435e+00 2.124e+00 5.666e+00 -2.796e-04 3.796e-04 2.262e-03
34 1 2.125e+00 3.897e+00 5.664e+00 1.491e-03 1.433e-03 6.642e-04
35 1 5.665e+00 3.898e+00 5.661e+00 2.609e-04 -2.567e-04 1.667e-03
36 1 9.201e+00 3.896e+00 5.664e+00 1.886e-02 1.831e-03 -1.756e-02
37 1 3.522e-01 3.519e-01 7.432e+00 1.207e-03 1.261e-03 -1.048e-03
38 1 2.125e+00 2.124e+00 7.435e+00 8.372e-04 -4.935e-04 1.008e-03
39 1 2.124e+00 3.524e-01 9.205e+00 -1.313e-04 5.734e-04 7.911e-04
40 1 3.538e-01 2.126e+00 9.204e+00 2.271e-04 -1.730e-03 4.375e-04
41 1 3.896e+00 3.531e-01 7.432e+00 5.170e-04 -1.978e-03 -1.257e-04
42 1 5.665e+00 2.123e+00 7.434e+00 -4.095e-05 -1.431e-03 3.938e-04
43 1 5.665e+00 3.517e-01 9.204e+00 1.633e-03 -4.971e-04 3.517e-04
44 1 3.896e+00 2.123e+00 9.204e+00 -1.512e-03 6.130e-04 -3.958e-04
45 1 7.434e+00 3.515e-01 7.429e+00 1.278e-04 3.433e-04 3.604e-04
46 1 9.203e+00 2.124e+00 7.432e+00 2.354e-04 -2.271e-03 -8.960e-04
47 1 9.204e+00 3.544e-01 9.205e+00 1.708e-02 -2.424e-03 -1.219e-02
48 1 7.433e+00 2.124e+00 9.205e+00 1.520e-03 1.807e-04 2.111e-04
49 1 3.517e-01 3.895e+00 7.433e+00 -5.020e-04 3.381e-04 2.174e-04
50 1 2.125e+00 3.893e+00 9.203e+00 -6.374e-04 -5.493e-04 6.240e-04
51 1 3.895e+00 3.892e+00 7.433e+00 -1.072e-03 -2.422e-04 1.876e-05
52 1 5.662e+00 3.895e+00 9.204e+00 -2.725e-04 9.149e-04 3.775e-04
53 1 7.434e+00 3.896e+00 7.431e+00 1.487e-03 8.715e-04 1.064e-04
54 1 9.203e+00 3.894e+00 9.205e+00 1.657e-02 3.623e-03 -1.220e-02
55 1 2.125e+00 5.664e+00 3.551e-01 1.450e-02 2.230e-03 -1.593e-02
56 1 3.510e-01 5.665e+00 2.125e+00 9.770e-03 5.251e-03 -1.787e-02
57 1 5.667e+00 5.666e+00 3.545e-01 1.647e-02 -1.672e-03 -1.753e-02
58 1 3.897e+00 5.666e+00 2.126e+00 1.515e-02 -3.171e-03 -1.836e-02
59 1 9.202e+00 5.664e+00 3.561e-01 1.764e-02 7.739e-03 -1.206e-02
60 1 7.433e+00 5.674e+00 2.136e+00 2.683e-02 -3.933e-04 -2.500e-02
61 1 3.493e-01 7.433e+00 3.567e-01 1.327e-02 1.654e-03 -8.152e-03
62 1 2.124e+00 9.203e+00 3.555e-01 1.410e-02 -4.542e-04 -1.644e-02
63 1 2.122e+00 7.434e+00 2.123e+00 2.620e-02 5.909e-04 -1.443e-02
64 1 3.506e-01 9.203e+00 2.126e+00 8.885e-03 -9.101e-03 -1.848e-02
65 1 3.899e+00 7.433e+00 3.572e-01 1.447e-02 -6.017e-04 -2.195e-02
66 1 5.666e+00 9.201e+00 3.566e-01 1.631e-02 4.751e-05 -1.746e-02
67 1 5.673e+00 7.434e+00 2.133e+00 -1.824e-03 -1.128e-03 -2.552e-02
68 1 3.896e+00 9.202e+00 2.124e+00 1.317e-02 3.683e-03 -1.684e-02
69 1 7.434e+00 7.434e+00 3.460e-01 2.468e-02 8.147e-04 7.431e-04
70 1 9.201e+00 9.203e+00 3.564e-01 1.817e-02 -8.238e-03 -9.707e-03
71 1 9.195e+00 7.435e+00 2.134e+00 -1.735e+00 2.030e-03 1.733e+00
72 1 7.436e+00 9.196e+00 2.133e+00 2.569e-02 -1.027e-03 -2.611e-02
73 1 2.123e+00 5.661e+00 3.893e+00 1.496e-02 2.975e-03 -1.855e-02
74 1 5.672e+00 5.673e+00 3.894e+00 9.893e-03 -5.987e-03 -1.917e-02
75 1 9.195e+00 5.673e+00 3.893e+00 2.572e-02 -4.848e-04 -2.634e-02
76 1 3.631e-01 7.434e+00 3.895e+00 -1.572e-03 -9.785e-04 -2.439e-02
77 1 2.125e+00 9.205e+00 3.894e+00 1.587e-02 -2.853e-03 -1.825e-02
78 1 3.885e+00 7.434e+00 3.894e+00 2.693e-02 1.402e-07 -1.698e-02
79 1 5.673e+00 9.193e+00 3.895e+00 9.552e-03 8.089e-03 -1.918e-02
80 1 9.196e+00 9.195e+00 3.893e+00 2.544e-02 -1.949e-03 -2.734e-02
81 1 3.512e-01 5.664e+00 5.662e+00 1.845e-02 4.622e-04 -1.569e-02
82 1 3.897e+00 5.665e+00 5.663e+00 1.625e-04 8.621e-04 2.596e-04
83 1 7.435e+00 5.674e+00 5.653e+00 1.780e-02 -7.307e-03 -9.311e-03
84 1 2.125e+00 7.435e+00 5.666e+00 1.498e-02 6.336e-04 -2.096e-02
85 1 3.515e-01 9.203e+00 5.662e+00 1.710e-02 -5.468e-04 -1.732e-02
86 1 5.674e+00 7.434e+00 5.654e+00 9.683e-03 4.596e-04 -1.195e-02
87 1 3.896e+00 9.202e+00 5.662e+00 4.463e-04 1.418e-03 2.630e-03
88 1 9.195e+00 7.434e+00 5.654e+00 2.558e-02 -1.300e-04 1.534e-03
89 1 7.433e+00 9.194e+00 5.655e+00 1.852e-02 6.645e-03 -9.235e-03
90 1 2.124e+00 5.667e+00 7.434e+00 -7.679e-04 7.970e-04 7.794e-04
91 1 3.533e-01 5.664e+00 9.202e+00 1.686e-02 1.529e-03 -1.409e-02
92 1 5.665e+00 5.666e+00 7.432e+00 -6.984e-05 2.181e-03 -4.739e-04
93 1 3.894e+00 5.664e+00 9.206e+00 -3.464e-04 4.283e-04 1.118e-03
94 1 9.202e+00 5.666e+00 7.430e+00 1.770e-02 -3.068e-03 -1.345e-02
95 1 7.434e+00 5.663e+00 9.205e+00 1.717e-02 5.600e-03 -1.214e-02
96 1 3.515e-01 7.434e+00 7.431e+00 2.207e-02 -9.692e-04 -1.401e-02
97 1 2.124e+00 9.204e+00 7.434e+00 -3.909e-04 1.721e-03 -3.209e-04
98 1 2.124e+00 7.434e+00 9.204e+00 1.389e-02 -1.991e-04 -1.292e-02
99 1 3.531e-01 9.203e+00 9.203e+00 1.530e-02 -1.920e-03 -1.481e-02
100 1 3.897e+00 7.433e+00 7.430e+00 7.487e-04 -6.457e-04 -9.582e-04
101 1 5.666e+00 9.202e+00 7.431e+00 -4.571e-04 1.190e-03 -6.002e-04
102 1 5.662e+00 7.435e+00 9.206e+00 2.045e-02 -2.802e-04 -1.038e-02
103 1 3.893e+00 9.204e+00 9.205e+00 4.375e-04 -4.487e-04 -1.092e-03
104 1 7.434e+00 7.434e+00 7.443e+00 1.459e-02 -2.328e-04 -2.572e-02
105 1 9.202e+00 9.203e+00 7.432e+00 1.846e-02 3.138e-03 -1.477e-02
106 1 9.207e+00 7.434e+00 9.205e+00 1.365e-02 1.218e-03 -2.596e-02
107 1 7.433e+00 9.206e+00 9.205e+00 1.926e-02 -2.909e-03 -1.334e-02
ITEM: TIMESTEP
0
ITEM: NUMBER OF ATOMS
107
ITEM: BOX BOUNDS xy xz yz pp pp pp
                     0.00000000000000e+00 1.06000000000000e+01 0.00000000000000e+00
0.00000000000000e+00	1.06000000000000e+01	0.00000000000000e+00
0.00000000000000e+00	1.06000000000000e+01	0.00000000000000e+00
ITEM: ATOMS id type x y z DisplacementX DisplacementY DisplacementZ
1 1 3.541e-01 3.523e-01 3.542e-01 -3.629e-03 1.523e-02 -1.513e-02
2 1 2.122e+00 2.123e+00 3.545e-01 -1.405e-03 -5.703e-04 4.901e-05
3 1 2.123e+00 3.521e-01 2.126e+00 6.443e-04 1.985e-02 -1.726e-02
4 1 3.533e-01 2.122e+00 2.124e+00 -1.739e-03 1.350e-02 -1.655e-02
5 1 3.895e+00 3.540e-01 3.553e-01 1.292e-03 1.525e-02 -1.584e-02
6 1 5.664e+00 2.124e+00 3.542e-01 3.265e-03 1.592e-02 -1.594e-02
7 1 5.667e+00 3.516e-01 2.127e+00 9.225e-03 1.019e-02 -1.970e-02
8 1 3.897e+00 2.123e+00 2.125e+00 4.820e-03 1.445e-02 -1.930e-02
9 1 7.434e+00 3.492e-01 3.561e-01 1.146e-03 1.124e-02 -1.069e-02
10 1 9.203e+00 2.124e+00 3.555e-01 -2.531e-03 1.323e-02 -1.522e-02
11 1 9.202e+00 3.526e-01 2.127e+00 -7.996e-03 9.257e-03 -1.949e-02
12 1 7.433e+00 2.122e+00 2.121e+00 -2.649e-05 2.581e-02 -1.380e-02
13 1 3.511e-01 3.894e+00 3.547e-01 1.390e-03 6.029e-04 2.945e-04
14 1 2.122e+00 3.895e+00 2.125e+00 5.903e-04 -1.996e-04 1.143e-03
15 1 3.894e+00 3.894e+00 3.543e-01 1.338e-03 -2.838e-04 2.296e-03
16 1 5.666e+00 3.897e+00 2.127e+00 -4.822e-03 1.529e-02 -1.831e-02
17 1 7.433e+00 3.898e+00 3.564e-01 -4.929e-04 1.388e-02 -2.291e-02
18 1 9.200e+00 3.898e+00 2.127e+00 2.618e-03 1.494e-02 -1.681e-02
19 1 3.504e-01 3.505e-01 3.894e+00 -6.625e-04 1.843e-02 -1.769e-02
20 1 2.124e+00 2.125e+00 3.894e+00 -8.349e-05 5.255e-04 -2.027e-04
21 1 3.898e+00 3.512e-01 3.893e+00 -4.578e-04 1.787e-02 -1.735e-02
22 1 5.662e+00 2.125e+00 3.894e+00 4.161e-03 1.594e-02 -1.851e-02
23 1 7.435e+00 3.619e-01 3.896e+00 -1.573e-03 -3.673e-04 -2.655e-02
24 1 9.206e+00 2.124e+00 3.893e+00 -4.149e-03 1.423e-02 -1.755e-02
25 1 3.513e-01 3.898e+00 3.896e+00 9.182e-04 6.330e-04 -2.081e-04
26 1 3.897e+00 3.898e+00 3.896e+00 3.364e-04 1.657e-04 -8.288e-05
27 1 7.433e+00 3.883e+00 3.893e+00 -1.393e-03 2.673e-02 -1.473e-02
28 1 2.124e+00 3.538e-01 5.664e+00 2.031e-04 -2.777e-03 -1.059e-03
29 1 3.527e-01 2.124e+00 5.662e+00 -1.814e-03 5.473e-04 -2.821e-03
30 1 5.665e+00 3.518e-01 5.663e+00 1.372e-03 1.664e-02 -1.773e-02
31 1 3.896e+00 2.125e+00 5.662e+00 2.748e-03 -1.265e-03 -1.380e-03
32 1 9.202e+00 3.521e-01 5.661e+00 -4.504e-04 1.812e-02 -1.854e-02
33 1 7.435e+00 2.124e+00 5.666e+00 4.418e-04 1.217e-02 -2.269e-02
34 1 2.125e+00 3.897e+00 5.664e+00 -2.552e-04 -7.637e-04 4.744e-05
35 1 5.665e+00 3.898e+00 5.661e+00 1.986e-03 6.316e-04 -8.326e-04
36 1 9.201e+00 3.896e+00 5.664e+00 -7.647e-04 -4.491e-04 4.666e-04
37 1 3.522e-01 3.519e-01 7.432e+00 -5.481e-04 2.194e-03 7.502e-04
38 1 2.125e+00 2.124e+00 7.435e+00 7.391e-04 9.139e-04 -4.683e-04
39 1 2.124e+00 3.524e-01 9.205e+00 1.818e-03 -9.297e-04 -6.265e-04
40 1 3.538e-01 2.126e+00 9.204e+00 7.899e-04 2.581e-04 3.258e-04
41 1 3.896e+00 3.531e-01 7.432e+00 -4.831e-04 1.369e-04 6.869e-04
42 1 5.665e+00 2.123e+00 7.434e+00 -1.098e-03 -2.869e-04 -2.260e-03
43 1 5.665e+00 3.517e-01 9.204e+00 1.585e-03 1.453e-02 -1.373e-02
44 1 3.896e+00 2.123e+00 9.204e+00 1.405e-03 5.144e-04 -8.367e-04
45 1 7.434e+00 3.515e-01 7.429e+00 -1.619e-03 2.331e-02 -1.124e-02
46 1 9.203e+00 2.124e+00 7.432e+00 -2.539e-03 7.336e-04 -9.848e-04
47 1 9.204e+00 3.544e-01 9.205e+00 -2.340e-03 1.598e-02 -1.506e-02
48 1 7.433e+00 2.124e+00 9.205e+00 -1.817e-03 1.471e-02 -1.332e-02
49 1 3.517e-01 3.895e+00 7.433e+00 -7.397e-04 1.028e-03 -4.959e-05
50 1 2.125e+00 3.893e+00 9.203e+00 -1.119e-03 -1.019e-04 7.620e-04
51 1 3.895e+00 3.892e+00 7.433e+00 9.621e-04 -9.921e-04 -1.280e-03
52 1 5.662e+00 3.895e+00 9.204e+00 7.688e-04 1.243e-03 5.773e-04
53 1 7.434e+00 3.896e+00 7.431e+00 -9.239e-04 -1.481e-03 -5.445e-04
54 1 9.203e+00 3.894e+00 9.205e+00 1.161e-03 -1.935e-03 -2.765e-04
55 1 2.125e+00 5.664e+00 3.551e-01 -5.861e-04 -7.510e-04 -9.149e-04
56 1 3.510e-01 5.665e+00 2.125e+00 -9.214e-04 1.840e-02 -1.812e-02
57 1 5.667e+00 5.666e+00 3.545e-01 -6.410e-04 1.707e-02 -1.562e-02
58 1 3.897e+00 5.666e+00 2.126e+00 5.362e-05 1.783e-02 -1.817e-02
59 1 9.202e+00 5.664e+00 3.561e-01 -1.144e-03 1.533e-02 -1.576e-02
60 1 7.433e+00 5.674e+00 2.136e+00 4.783e-04 -1.752e-03 -2.532e-02
61 1 3.493e-01 7.433e+00 3.567e-01 4.699e-04 1.754e-02 -1.825e-02
62 1 2.124e+00 9.203e+00 3.555e-01 3.463e-04 1.758e-02 -1.835e-02
63 1 2.122e+00 7.434e+00 2.123e+00 -1.183e-03 1.546e-02 -1.492e-02
64 1 3.506e-01 9.203e+00 2.126e+00 1.169e-02 1.917e-02 -1.828e-02
65 1 3.899e+00 7.433e+00 3.572e-01 -6.214e-04 1.685e-02 -1.723e-02
66 1 5.666e+00 9.201e+00 3.566e-01 8.535e-03 1.709e-02 -1.019e-02
67 1 5.673e+00 7.434e+00 2.133e+00 -6.307e-04 2.630e-02 -2.559e-02
68 1 3.896e+00 9.202e+00 2.124e+00 -1.265e-02 1.802e-02 -1.872e-02
69 1 7.434e+00 7.434e+00 3.460e-01 -5.219e-04 2.494e-02 2.932e-03
70 1 9.201e+00 9.203e+00 3.564e-01 -7.659e-03 1.814e-02 -8.913e-03
71 1 9.195e+00 7.435e+00 2.134e+00 3.080e-04 2.367e-02 -2.562e-02
72 1 7.436e+00 9.196e+00 2.133e+00 1.306e-03 -1.735e+00 1.735e+00
73 1 2.123e+00 5.661e+00 3.893e+00 -2.834e-04 1.077e-04 1.160e-03
74 1 5.672e+00 5.673e+00 3.894e+00 -6.179e-03 1.212e-02 -1.883e-02
75 1 9.195e+00 5.673e+00 3.893e+00 8.373e-03 1.007e-02 -1.801e-02
76 1 3.631e-01 7.434e+00 3.895e+00 -1.207e-02 1.883e-02 -1.820e-02
77 1 2.125e+00 9.205e+00 3.894e+00 -3.770e-04 1.637e-02 -1.386e-02
78 1 3.885e+00 7.434e+00 3.894e+00 1.190e-02 1.870e-02 -1.652e-02
79 1 5.673e+00 9.193e+00 3.895e+00 1.357e-03 2.463e-02 -2.804e-02
80 1 9.196e+00 9.195e+00 3.893e+00 1.832e-03 2.657e-02 -2.676e-02
81 1 3.512e-01 5.664e+00 5.662e+00 2.616e-03 5.278e-04 -1.544e-03
82 1 3.897e+00 5.665e+00 5.663e+00 1.055e-03 5.128e-04 -1.378e-03
83 1 7.435e+00 5.674e+00 5.653e+00 -9.183e-04 9.495e-03 -1.126e-02
84 1 2.125e+00 7.435e+00 5.666e+00 -1.398e-03 -6.461e-05 5.056e-04
85 1 3.515e-01 9.203e+00 5.662e+00 -9.261e-04 1.738e-02 -1.735e-02
86 1 5.674e+00 7.434e+00 5.654e+00 -7.477e-03 1.841e-02 -9.405e-03
87 1 3.896e+00 9.202e+00 5.662e+00 1.941e-03 1.948e-02 -1.963e-02
88 1 9.195e+00 7.434e+00 5.654e+00 7.565e-03 1.667e-02 -9.835e-03
89 1 7.433e+00 9.194e+00 5.655e+00 3.469e-03 2.607e-02 6.109e-04
90 1 2.124e+00 5.667e+00 7.434e+00 -2.558e-04 4.992e-05 -7.436e-04
91 1 3.533e-01 5.664e+00 9.202e+00 1.753e-04 -1.346e-03 -1.249e-03
92 1 5.665e+00 5.666e+00 7.432e+00 -9.668e-04 1.433e-03 5.499e-04
93 1 3.894e+00 5.664e+00 9.206e+00 1.318e-03 -2.977e-04 9.885e-05
94 1 9.202e+00 5.666e+00 7.430e+00 -2.262e-04 -5.039e-04 3.051e-04
95 1 7.434e+00 5.663e+00 9.205e+00 1.242e-04 2.213e-02 -1.544e-02
96 1 3.515e-01 7.434e+00 7.431e+00 -1.045e-03 9.749e-05 3.367e-04
97 1 2.124e+00 9.204e+00 7.434e+00 3.429e-04 1.153e-03 9.446e-04
98 1 2.124e+00 7.434e+00 9.204e+00 -9.910e-04 -1.284e-03 9.950e-04
99 1 3.531e-01 9.203e+00 9.203e+00 -3.342e-03 1.953e-02 -1.492e-02
100 1 3.897e+00 7.433e+00 7.430e+00 1.155e-04 7.958e-04 -9.788e-04
101 1 5.666e+00 9.202e+00 7.431e+00 -3.191e-03 1.801e-02 -1.299e-02
102 1 5.662e+00 7.435e+00 9.206e+00 4.779e-03 1.717e-02 -1.348e-02
103 1 3.893e+00 9.204e+00 9.205e+00 3.529e-03 1.619e-02 -1.339e-02
104 1 7.434e+00 7.434e+00 7.443e+00 -1.145e-03 1.453e-02 -2.578e-02
105 1 9.202e+00 9.203e+00 7.432e+00 2.812e-03 1.863e-02 -1.592e-02
106 1 9.207e+00 7.434e+00 9.205e+00 -2.847e-03 1.751e-02 -1.578e-02
107 1 7.433e+00 9.206e+00 9.205e+00 9.330e-05 1.518e-02 -2.448e-02
ITEM: TIMESTEP