ITEM: TIMESTEP
0
ITEM: NUMBER OF ATOMS
32
ITEM: BOX BOUNDS xy xz yz pp pp pp
                     -5.00000000000000e-01 5.00000000000000e-01 0.00000000000000e+00
-5.00000000000000e-01	5.00000000000000e-01	0.00000000000000e+00
-5.00000000000000e-01	5.00000000000000e-01	0.00000000000000e+00
ITEM: ATOMS id type x y z DisplacementX DisplacementY DisplacementZ
1 1 0.000e+00 0.000e+00 0.000e+00 1.150e-03 -1.996e-01 6.273e-04
2 1 0.000e+00 -4.000e-01 0.000e+00 -4.948e-04 1.537e-03 -9.351e-04
3 1 0.000e+00 -2.000e-01 -2.000e-01 -1.419e-03 -1.216e-03 1.013e-03
4 1 -2.000e-01 2.000e-01 -2.000e-01 1.020e-03 -6.277e-04 -1.249e-03
5 1 0.000e+00 0.000e+00 4.000e-01 -1.108e-03 7.462e-04 2.952e-04
6 1 2.000e-01 2.000e-01 -2.000e-01 -1.674e-03 -1.495e-04 -7.319e-04
7 1 0.000e+00 0.000e+00 -4.000e-01 -8.356e-04 -6.159e-05 1.300e-04
8 1 -4.000e-01 0.000e+00 0.000e+00 5.356e-04 -2.332e-03 -4.973e-04
9 1 0.000e+00 0.000e+00 -2.000e-01 9.512e-04 -1.783e-04 9.501e-05
10 1 0.000e+00 0.000e+00 2.000e-01 -4.107e-04 1.002e-03 3.177e-04
11 1 -2.000e-01 -2.000e-01 0.000e+00 6.565e-05 -7.206e-04 -2.263e-03
12 1 2.000e-01 0.000e+00 2.000e-01 -4.887e-04 1.595e-03 -4.414e-04
13 1 0.000e+00 4.000e-01 0.000e+00 -1.367e-03 8.258e-04 4.645e-04
14 1 0.000e+00 -2.000e-01 2.000e-01 5.375e-04 5.827e-05 -2.780e-04
15 1 -2.000e-01 2.000e-01 0.000e+00 3.233e-04 2.295e-03 6.479e-04
16 1 4.000e-01 0.000e+00 0.000e+00 1.912e-03 -2.567e-04 -8.997e-04
17 1 2.000e-01 0.000e+00 0.000e+00 -1.881e-03 1.767e-04 -5.332e-04
18 1 2.000e-01 -2.000e-01 -2.000e-01 -8.018e-04 -2.699e-04 7.553e-05
19 1 2.000e-01 2.000e-01 0.000e+00 1.791e-03 -5.122e-04 1.241e-04
20 1 -2.000e-01 -2.000e-01 -2.000e-01 -1.908e-05 -9.413e-04 -8.911e-04
21 1 -2.000e-01 2.000e-01 2.000e-01 -3.754e-04 -4.616e-04 -1.188e-04
22 1 -2.000e-01 0.000e+00 0.000e+00 -9.993e-04 -2.165e-03 9.365e-04
23 1 2.000e-01 -2.000e-01 2.000e-01 1.975e-03 2.499e-03 -1.087e-03
24 1 0.000e+00 2.000e-01 0.000e+00 1.135e-03 -2.277e-03 -9.406e-04
25 1 2.000e-01 -2.000e-01 0.000e+00 1.421e-03 3.468e-04 -1.209e-03
26 1 -2.000e-01 -2.000e-01 2.000e-01 -7.587e-04 2.177e-03 1.204e-03
27 1 2.000e-01 2.000e-01 2.000e-01 8.665e-04 -6.426e-05 2.412e-03
28 1 -2.000e-01 0.000e+00 2.000e-01 -8.695e-04 -2.397e-03 -1.071e-03
29 1 0.000e+00 2.000e-01 -2.000e-01 1.457e-03 -2.644e-04 2.936e-04
30 1 2.000e-01 0.000e+00 -2.000e-01 -1.272e-04 1.623e-03 1.675e-03
31 1 -2.000e-01 0.000e+00 -2.000e-01 1.345e-03 -7.838e-04 2.152e-05
32 1 0.000e+00 2.000e-01 2.000e-01 -2.112e-03 -9.178e-05 -1.589e-03
ITEM: TIMESTEP
0
ITEM: NUMBER OF ATOMS
32
ITEM: BOX BOUNDS xy xz yz pp pp pp
                     -5.00000000000000e-01 5.00000000000000e-01 0.00000000000000e+00
-5.00000000000000e-01	5.00000000000000e-01	0.00000000000000e+00
-5.00000000000000e-01	5.00000000000000e-01	0.00000000000000e+00
ITEM: ATOMS id type x y z DisplacementX DisplacementY DisplacementZ
33 1 0.000e+00 4.000e-01 0.000e+00 -1.647e-03 -2.024e-03 1.782e-03
34 1 0.000e+00 0.000e+00 2.000e-01 1.309e-03 1.150e-03 -3.333e-04
35 1 -2.000e-01 0.000e+00 -2.000e-01 -2.466e-04 -1.057e-04 1.992e-03
36 1 0.000e+00 0.000e+00 0.000e+00 -1.861e-04 1.989e-01 -4.308e-04
37 1 0.000e+00 -2.000e-01 -2.000e-01 -2.276e-04 1.102e-03 -2.972e-04
38 1 2.000e-01 -2.000e-01 -2.000e-01 -3.876e-04 4.571e-04 2.763e-04
39 1 0.000e+00 2.000e-01 -2.000e-01 2.096e-04 2.275e-04 -2.917e-04
40 1 2.000e-01 0.000e+00 2.000e-01 1.011e-03 9.394e-04 1.301e-03
41 1 2.000e-01 -2.000e-01 2.000e-01 -1.272e-04 -4.156e-04 5.099e-04
42 1 -2.000e-01 -2.000e-01 -2.000e-01 7.647e-04 -2.192e-04 -8.776e-04
43 1 -4.000e-01 0.000e+00 0.000e+00 -6.929e-04 1.160e-03 -1.101e-03
44 1 0.000e+00 0.000e+00 4.000e-01 6.822e-04 -1.094e-04 1.470e-03
45 1 -2.000e-01 -2.000e-01 2.000e-01 -2.250e-04 -5.454e-04 9.430e-04
46 1 -2.000e-01 2.000e-01 0.000e+00 -1.090e-03 6.446e-04 3.558e-04
47 1 0.000e+00 0.000e+00 -2.000e-01 1.237e-03 -3.780e-04 3.247e-06
48 1 2.000e-01 0.000e+00 0.000e+00 3.081e-04 -4.311e-04 2.103e-04
49 1 0.000e+00 -2.000e-01 0.000e+00 1.390e-03 5.480e-05 7.580e-05
50 1 0.000e+00 2.000e-01 2.000e-01 -9.749e-05 -1.098e-03 -1.305e-04
51 1 0.000e+00 -2.000e-01 2.000e-01 -1.443e-04 4.278e-04 8.833e-04
52 1 2.000e-01 -2.000e-01 0.000e+00 1.257e-03 1.511e-03 9.828e-04
53 1 2.000e-01 2.000e-01 -2.000e-01 -9.719e-04 -4.445e-04 2.366e-04
54 1 -2.000e-01 2.000e-01 -2.000e-01 1.794e-03 2.211e-04 1.289e-03
55 1 2.000e-01 2.000e-01 2.000e-01 1.231e-03 -3.897e-04 -9.129e-04
56 1 -2.000e-01 0.000e+00 2.000e-01 -8.224e-04 3.464e-04 -1.648e-04
57 1 0.000e+00 -4.000e-01 0.000e+00 -1.380e-03 -1.123e-04 3.743e-04
58 1 2.000e-01 2.000e-01 0.000e+00 -1.231e-04 5.074e-04 -3.450e-04
59 1 -2.000e-01 0.000e+00 0.000e+00 1.335e-04 1.469e-04 9.221e-04
60 1 -2.000e-01 -2.000e-01 0.000e+00 -2.670e-03 1.553e-03 1.751e-03
61 1 -2.000e-01 2.000e-01 2.000e-01 -2.606e-04 5.221e-04 -5.841e-04
62 1 4.000e-01 0.000e+00 0.000e+00 9.020e-04 -1.789e-03 -1.000e-03
63 1 0.000e+00 0.000e+00 -4.000e-01 8.098e-04 -7.809e-04 7.102e-04
64 1 2.000e-01 0.000e+00 -2.000e-01 -4.350e-04 1.162e-03 -6.537e-04
ITEM: TIMESTEP
0
ITEM: NUMBER OF ATOMS
32
ITEM: BOX BOUNDS xy xz yz pp pp pp
                     -5.00000000000000e-01 5.00000000000000e-01 0.00000000000000e+00
-5.00000000000000e-01	5.00000000000000e-01	0.00000000000000e+00
-5.00000000000000e-01	5.00000000000000e-01	0.00000000000000e+00
ITEM: ATOMS id type x y z DisplacementX DisplacementY DisplacementZ
65 1 -2.000e-01 0.000e+00 -2.000e-01 -3.719e-04 1.787e-03 -1.102e-03
66 1 0.000e+00 2.000e-01 2.000e-01 7.998e-04 -1.019e-03 2.851e-04
67 1 -2.000e-01 -2.000e-01 0.000e+00 -6.998e-04 8.855e-04 1.345e-03
68 1 -2.000e-01 2.000e-01 -2.000e-01 2.746e-04 1.377e-03 -3.441e-04
69 1 0.000e+00 -2.000e-01 2.000e-01 1.079e-03 5.907e-05 -7.013e-04
70 1 0.000e+00 -4.000e-01 0.000e+00 1.354e-03 -1.328e-03 7.766e-04
71 1 0.000e+00 0.000e+00 0.000e+00 1.676e-03 2.396e-04 1.983e-01
72 1 -2.000e-01 -2.000e-01 -2.000e-01 -3.279e-04 5.658e-04 -1.979e-03
73 1 -4.000e-01 0.000e+00 0.000e+00 1.729e-03 1.090e-03 1.129e-03
74 1 0.000e+00 2.000e-01 -2.000e-01 -1.572e-03 9.198e-04 -3.190e-04
75 1 0.000e+00 2.000e-01 0.000e+00 1.055e-03 -5.672e-04 2.265e-04
76 1 -2.000e-01 0.000e+00 2.000e-01 -5.773e-04 -1.548e-04 -1.627e-03
77 1 0.000e+00 -2.000e-01 0.000e+00 1.077e-03 -7.643e-04 5.754e-04
78 1 2.000e-01 -2.000e-01 2.000e-01 1.022e-03 5.439e-05 -3.465e-04
79 1 0.000e+00 0.000e+00 4.000e-01 -8.768e-04 -6.570e-04 1.409e-04
80 1 2.000e-01 2.000e-01 2.000e-01 -8.647e-04 -8.663e-04 -5.002e-04
81 1 2.000e-01 0.000e+00 0.000e+00 -5.148e-05 2.319e-04 -1.488e-04
82 1 4.000e-01 0.000e+00 0.000e+00 8.082e-05 -5.052e-04 1.037e-03
83 1 -2.000e-01 0.000e+00 0.000e+00 6.623e-04 2.518e-04 6.698e-05
84 1 -2.000e-01 2.000e-01 2.000e-01 1.434e-04 6.576e-04 3.761e-04
85 1 2.000e-01 -2.000e-01 -2.000e-01 1.170e-03 -1.783e-03 -6.634e-04
86 1 2.000e-01 0.000e+00 2.000e-01 -6.677e-06 3.016e-04 1.516e-03
87 1 -2.000e-01 -2.000e-01 2.000e-01 1.098e-04 2.699e-04 -4.359e-04
88 1 2.000e-01 2.000e-01 -2.000e-01 8.061e-05 1.346e-03 -2.320e-03
89 1 0.000e+00 0.000e+00 -4.000e-01 8.770e-04 -1.860e-03 7.773e-04
90 1 0.000e+00 -2.000e-01 -2.000e-01 -3.606e-04 -7.895e-04 -6.969e-04
91 1 2.000e-01 0.000e+00 -2.000e-01 7.146e-04 4.620e-04 5.607e-04
92 1 0.000e+00 4.000e-01 0.000e+00 3.057e-04 5.929e-04 -4.469e-04
93 1 2.000e-01 -2.000e-01 0.000e+00 -2.247e-03 1.654e-04 8.478e-05
94 1 0.000e+00 0.000e+00 -2.000e-01 1.428e-03 6.597e-04 -1.254e-03
95 1 2.000e-01 2.000e-01 0.000e+00 -3.691e-04 -1.834e-03 -1.006e-03
96 1 -2.000e-01 2.000e-01 0.000e+00 -2.266e-04 -1.619e-03 -9.752e-04
ITEM: TIMESTEP
0
ITEM: NUMBER OF ATOMS
32
ITEM: BOX BOUNDS xy xz yz pp pp pp
                     -5.00000000000000e-01 5.00000000000000e-01 0.00000000000000e+00
-5.00000000000000e-01	5.00000000000000e-01	0.00000000000000e+00
-5.00000000000000e-01	5.00000000000000e-01	0.00000000000000e+00
ITEM: ATOMS id type x y z DisplacementX DisplacementY DisplacementZ
97 1 0.000e+00 0.000e+00 -4.000e-01 -1.529e-03 6.445e-04 5.783e-04
98 1 2.000e-01 2.000e-01 0.000e+00 -8.123e-04 -4.274e-04 -1.443e-03
99 1 2.000e-01 -2.000e-01 2.000e-01 1.086e-03 -4.604e-04 -1.272e-03
100 1 0.000e+00 -2.000e-01 -2.000e-01 -8.775e-04 -2.373e-04 -9.403e-04
101 1 2.000e-01 -2.000e-01 0.000e+00 6.255e-04 1.735e-03 4.412e-05
102 1 2.000e-01 0.000e+00 -2.000e-01 6.226e-04 -2.006e-03 -9.151e-04
103 1 -2.000e-01 0.000e+00 2.000e-01 -2.756e-04 3.937e-04 -2.103e-03
104 1 -2.000e-01 0.000e+00 -2.000e-01 -1.104e-03 -3.614e-04 8.472e-04
105 1 -2.000e-01 -2.000e-01 0.000e+00 1.764e-03 8.882e-04 1.263e-03
106 1 -2.000e-01 2.000e-01 0.000e+00 5.839e-04 -7.551e-04 9.044e-05
107 1 2.000e-01 2.000e-01 -2.000e-01 7.069e-04 4.296e-04 -8.415e-04
108 1 2.000e-01 2.000e-01 2.000e-01 -7.699e-05 -1.564e-03 1.647e-03
109 1 0.000e+00 0.000e+00 0.000e+00 2.003e-01 8.757e-04 -6.180e-04
110 1 2.000e-01 -2.000e-01 -2.000e-01 7.398e-04 -3.492e-04 -1.815e-03
111 1 2.000e-01 0.000e+00 2.000e-01 4.338e-04 -9.394e-04 2.795e-04
112 1 0.000e+00 4.000e-01 0.000e+00 -3.949e-04 -1.471e-03 -7.063e-04
113 1 -2.000e-01 -2.000e-01 2.000e-01 -1.055e-03 2.046e-04 -1.206e-03
114 1 -2.000e-01 0.000e+00 0.000e+00 6.269e-04 -2.789e-04 1.340e-04
115 1 0.000e+00 0.000e+00 -2.000e-01 -4.271e-05 2.028e-04 -2.269e-04
116 1 0.000e+00 0.000e+00 4.000e-01 8.408e-04 9.829e-04 4.124e-04
117 1 0.000e+00 2.000e-01 0.000e+00 -5.774e-04 6.205e-04 7.669e-04
118 1 -2.000e-01 2.000e-01 -2.000e-01 -4.787e-04 -2.857e-04 9.197e-04
119 1 0.000e+00 -2.000e-01 2.000e-01 -4.098e-04 -5.522e-04 -1.647e-03
120 1 -2.000e-01 2.000e-01 2.000e-01 -5.686e-04 7.938e-04 7.672e-04
121 1 4.000e-01 0.000e+00 0.000e+00 -1.687e-04 4.997e-04 5.557e-04
122 1 0.000e+00 -2.000e-01 0.000e+00 2.199e-03 -1.103e-03 -1.784e-04
123 1 0.000e+00 -4.000e-01 0.000e+00 5.538e-04 -1.526e-04 -3.251e-04
124 1 0.000e+00 0.000e+00 2.000e-01 -1.010e-03 9.179e-04 -1.560e-03
125 1 0.000e+00 2.000e-01 2.000e-01 2.259e-04 3.592e-04 -1.186e-03
126 1 -4.000e-01 0.000e+00 0.000e+00 7.419e-04 -4.489e-04 5.141e-04
127 1 -2.000e-01 -2.000e-01 -2.000e-01 2.750e-04 -2.727e-04 1.530e-03
128 1 0.000e+00 2.000e-01 -2.000e-01 -1.233e-03 -1.716e-04 -1.732e-04
ITEM: TIMESTEP
0
ITEM: NUMBER OF ATOMS
32
ITEM: BOX BOUNDS xy xz yz pp pp pp
                     -5.00000000000000e-01 5.00000000000000e-01 0.00000000000000e+00
-5.00000000000000e-01	5.00000000000000e-01	0.00000000000000e+00
-5.00000000000000e-01	5.00000000000000e-01	0.00000000000000e+00
ITEM: ATOMS id type x y z DisplacementX DisplacementY DisplacementZ
129 1 0.000e+00 2.000e-01 -2.000e-01 -1.993e-03 -2.755e-03 -1.207e-03
130 1 0.000e+00 -2.000e-01 0.000e+00 3.956e-04 -5.401e-04 4.731e-05
131 1 2.000e-01 0.000e+00 2.000e-01 1.146e-03 -1.084e-03 -5.690e-05
132 1 0.000e+00 -2.000e-01 -2.000e-01 -8.663e-04 2.778e-04 -6.750e-04
133 1 0.000e+00 0.000e+00 -4.000e-01 1.427e-04 -1.085e-03 -2.634e-06
134 1 0.000e+00 2.000e-01 2.000e-01 6.558e-04 1.441e-03 -8.619e-04
135 1 2.000e-01 -2.000e-01 0.000e+00 -2.624e-04 2.692e-04 1.070e-03
136 1 -4.000e-01 0.000e+00 0.000e+00 -9.606e-04 -1.599e-03 -8.330e-04
137 1 -2.000e-01 2.000e-01 2.000e-01 1.246e-03 1.066e-03 -2.139e-04
138 1 2.000e-01 2.000e-01 2.000e-01 3.463e-04 8.104e-04 3.393e-03
139 1 2.000e-01 -2.000e-01 2.000e-01 -2.105e-04 -1.829e-03 3.152e-04
140 1 0.000e+00 2.000e-01 0.000e+00 -5.151e-04 -1.263e-03 -5.669e-04
141 1 0.000e+00 -2.000e-01 2.000e-01 -1.089e-03 4.732e-04 1.812e-04
142 1 -2.000e-01 0.000e+00 -2.000e-01 4.920e-04 -1.134e-04 1.262e-03
143 1 2.000e-01 2.000e-01 0.000e+00 1.316e-03 7.891e-04 1.461e-03
144 1 2.000e-01 -2.000e-01 -2.000e-01 -4.473e-04 -4.949e-04 -1.279e-03
145 1 -2.000e-01 -2.000e-01 2.000e-01 5.464e-04 2.832e-04 3.758e-04
146 1 0.000e+00 0.000e+00 0.000e+00 6.681e-04 -7.121e-06 -2.010e-01
147 1 0.000e+00 -4.000e-01 0.000e+00 1.652e-03 1.002e-03 3.470e-04
148 1 2.000e-01 2.000e-01 -2.000e-01 -6.456e-04 2.190e-03 7.937e-04
149 1 -2.000e-01 0.000e+00 2.000e-01 -1.497e-03 -1.547e-03 8.982e-04
150 1 -2.000e-01 2.000e-01 -2.000e-01 -1.070e-03 -4.345e-04 -1.391e-04
151 1 2.000e-01 0.000e+00 0.000e+00 4.655e-05 -2.414e-04 6.001e-05
152 1 -2.000e-01 -2.000e-01 0.000e+00 -1.619e-03 8.666e-04 1.660e-03
153 1 2.000e-01 0.000e+00 -2.000e-01 -5.575e-04 9.347e-04 8.461e-04
154 1 -2.000e-01 -2.000e-01 -2.000e-01 -1.807e-04 -1.464e-03 -5.080e-04
155 1 -2.000e-01 0.000e+00 0.000e+00 1.176e-03 6.618e-04 -4.462e-04
156 1 4.000e-01 0.000e+00 0.000e+00 1.203e-04 -1.501e-03 9.968e-05
157 1 0.000e+00 0.000e+00 2.000e-01 4.492e-04 6.555e-04 -7.112e-04
158 1 -2.000e-01 2.000e-01 0.000e+00 2.709e-04 1.363e-03 1.981e-04
159 1 0.000e+00 0.000e+00 4.000e-01 1.059e-03 7.344e-04 -4.626e-04
160 1 0.000e+00 4.000e-01 0.000e+00 -2.012e-04 1.579e-03 -1.369e-03
ITEM: TIMESTEP
0
ITEM: NUMBER OF ATOMS
32
ITEM: BOX BOUNDS xy xz yz pp pp pp
                     -5.00000000000000e-01 5.00000000000000e-01 0.00000000000000e+00
-5.00000000000000e-01	5.00000000000000e-01	0.00000000000000e+00
-5.00000000000000e-01	5.00000000000000e-01	0.00000000000000e+00
ITEM: ATOMS id type x y z DisplacementX DisplacementY DisplacementZ
161 1 -2.000e-01 2.000e-01 0.000e+00 -3.894e-04 -1.417e-03 3.646e-05
162 1 -2.000e-01 -2.000e-01 2.000e-01 -1.561e-03 -1.437e-03 -1.242e-05
163 1 0.000e+00 0.000e+00 4.000e-01 -1.355e-03 -1.565e-05 3.627e-04
164 1 -2.000e-01 -2.000e-01 0.000e+00 2.232e-03 7.115e-05 -1.405e-03
165 1 -2.000e-01 0.000e+00 -2.000e-01 2.091e-03 1.054e-03 6.147e-04
166 1 0.000e+00 -2.000e-01 2.000e-01 5.651e-04 3.831e-04 1.063e-03
167 1 2.000e-01 2.000e-01 2.000e-01 -2.766e-05 1.220e-03 4.029e-04
168 1 2.000e-01 -2.000e-01 -2.000e-01 -1.956e-03 -7.418e-04 -3.841e-04
169 1 2.000e-01 -2.000e-01 2.000e-01 -1.211e-03 1.780e-04 -1.517e-04
170 1 -2.000e-01 2.000e-01 -2.000e-01 5.690e-04 -1.645e-03 5.054e-04
171 1 -2.000e-01 2.000e-01 2.000e-01 1.048e-03 1.987e-03 -4.937e-04
172 1 2.000e-01 2.000e-01 -2.000e-01 -2.982e-04 -5.219e-04 -6.804e-04
173 1 -4.000e-01 0.000e+00 0.000e+00 -1.792e-04 -1.613e-03 5.088e-04
174 1 -2.000e-01 -2.000e-01 -2.000e-01 2.260e-04 -4.019e-04 -4.591e-04
175 1 0.000e+00 2.000e-01 2.000e-01 -3.430e-04 2.452e-03 6.416e-04
176 1 0.000e+00 -2.000e-01 0.000e+00 -1.218e-03 6.666e-05 -5.611e-04
177 1 -2.000e-01 0.000e+00 2.000e-01 -1.382e-03 6.317e-04 3.165e-05
178 1 2.000e-01 2.000e-01 0.000e+00 9.126e-04 1.966e-04 -7.331e-04
179 1 0.000e+00 2.000e-01 0.000e+00 1.305e-04 -5.238e-04 1.615e-03
180 1 0.000e+00 -4.000e-01 0.000e+00 -1.604e-05 2.162e-03 9.382e-04
181 1 0.000e+00 0.000e+00 -2.000e-01 -1.232e-03 -2.789e-04 1.503e-03
182 1 0.000e+00 4.000e-01 0.000e+00 -5.853e-04 -1.176e-04 1.610e-04
183 1 2.000e-01 0.000e+00 -2.000e-01 -1.673e-05 1.101e-04 -3.699e-04
184 1 4.000e-01 0.000e+00 0.000e+00 -6.819e-04 6.942e-04 -5.951e-04
185 1 0.000e+00 0.000e+00 2.000e-01 1.505e-03 -7.486e-04 5.568e-04
186 1 0.000e+00 0.000e+00 0.000e+00 -1.995e-01 -9.818e-04 7.413e-04
187 1 2.000e-01 -2.000e-01 0.000e+00 -1.252e-04 9.142e-04 -9.089e-04
188 1 2.000e-01 0.000e+00 2.000e-01 -4.497e-04 -4.793e-04 1.449e-03
189 1 2.000e-01 0.000e+00 0.000e+00 -1.594e-03 -1.788e-03 -8.221e-04
190 1 0.000e+00 0.000e+00 -4.000e-01 1.557e-03 1.162e-03 2.066e-03
191 1 0.000e+00 -2.000e-01 -2.000e-01 9.127e-04 -5.203e-04 6.136e-05
192 1 0.000e+00 2.000e-01 -2.000e-01 -1.880e-03 -1.662e-03 -6.954e-04
ITEM: TIMESTEP
0
ITEM: NUMBER OF ATOMS
32
ITEM: BOX BOUNDS xy xz yz pp pp pp
                     -5.00000000000000e-01 5.00000000000000e-01 0.00000000000000e+00
-5.00000000000000e-01	5.00000000000000e-01	0.00000000000000e+00
-5.00000000000000e-01	5.00000000000000e-01	0.00000000000000e+00
ITEM: ATOMS id type x y z DisplacementX DisplacementY DisplacementZ
193 1 0.000e+00 2.000e-01 -2.000e-01 1.355e-03 1.137e-03 -8.898e-05
194 1 2.000e-01 0.000e+00 2.000e-01 2.861e-04 3.257e-06 -5.308e-05
195 1 0.000e+00 4.000e-01 0.000e+00 -4.838e-04 -2.656e-04 -4.377e-05
196 1 0.000e+00 0.000e+00 4.000e-01 1.245e-03 3.118e-04 1.070e-03
197 1 0.000e+00 0.000e+00 -2.000e-01 -1.317e-03 -2.136e-03 -9.492e-04
198 1 2.000e-01 2.000e-01 2.000e-01 9.504e-04 -1.153e-03 -1.867e-04
199 1 2.000e-01 0.000e+00 0.000e+00 8.585e-04 -1.564e-03 -3.026e-04
200 1 -2.000e-01 2.000e-01 -2.000e-01 -3.169e-04 -3.872e-04 3.377e-04
201 1 0.000e+00 -2.000e-01 0.000e+00 1.042e-03 1.473e-03 -2.451e-04
202 1 2.000e-01 2.000e-01 -2.000e-01 -3.389e-04 6.644e-04 -9.237e-04
203 1 0.000e+00 0.000e+00 0.000e+00 -1.984e-01 -6.409e-04 2.404e-04
204 1 4.000e-01 0.000e+00 0.000e+00 9.384e-04 7.351e-04 1.985e-03
205 1 -2.000e-01 -2.000e-01 2.000e-01 -6.574e-05 7.603e-04 -4.334e-04
206 1 0.000e+00 0.000e+00 2.000e-01 5.197e-05 -1.738e-04 5.392e-04
207 1 0.000e+00 0.000e+00 -4.000e-01 6.400e-04 -1.864e-04 3.284e-04
208 1 -4.000e-01 0.000e+00 0.000e+00 2.450e-03 1.311e-04 7.748e-04
209 1 0.000e+00 -2.000e-01 2.000e-01 -2.252e-03 4.778e-04 -6.952e-04
210 1 2.000e-01 -2.000e-01 -2.000e-01 9.006e-05 -2.940e-04 -6.918e-04
211 1 -2.000e-01 -2.000e-01 -2.000e-01 1.856e-03 2.726e-04 -1.320e-03
212 1 2.000e-01 -2.000e-01 2.000e-01 1.785e-04 3.199e-05 2.081e-04
213 1 0.000e+00 -2.000e-01 -2.000e-01 -8.813e-04 -1.388e-03 1.003e-03
214 1 0.000e+00 2.000e-01 2.000e-01 2.486e-04 -9.529e-04 -8.488e-04
215 1 2.000e-01 0.000e+00 -2.000e-01 -4.775e-04 1.578e-04 5.641e-05
216 1 -2.000e-01 0.000e+00 2.000e-01 -7.368e-06 4.585e-04 -2.112e-04
217 1 -2.000e-01 -2.000e-01 0.000e+00 4.387e-04 -4.486e-05 -9.481e-04
218 1 -2.000e-01 2.000e-01 2.000e-01 -4.740e-04 1.007e-03 1.166e-04
219 1 -2.000e-01 0.000e+00 -2.000e-01 -2.562e-03 -2.362e-04 1.887e-04
220 1 2.000e-01 2.000e-01 0.000e+00 3.176e-04 1.668e-03 -1.012e-04
221 1 -2.000e-01 2.000e-01 0.000e+00 1.635e-03 -1.199e-03 -3.595e-04
222 1 2.000e-01 -2.000e-01 0.000e+00 -2.004e-04 -8.242e-04 1.132e-03
223 1 0.000e+00 -4.000e-01 0.000e+00 -9.178e-04 1.471e-03 -6.296e-04
224 1 0.000e+00 2.000e-01 0.000e+00 1.502e-03 -4.998e-04 -3.403e-04
ITEM: TIMESTEP
0
ITEM: NUMBER OF ATOMS
32
ITEM: BOX BOUNDS xy xz yz pp pp pp
                     -5.00000000000000e-01 5.00000000000000e-01 0.00000000000000e+00
-5.00000000000000e-01	5.00000000000000e-01	0.00000000000000e+00
-5.00000000000000e-01	5.00000000000000e-01	0.00000000000000e+00
ITEM: ATOMS id type x y z DisplacementX DisplacementY DisplacementZ
225 1 0.000e+00 0.000e+00 -2.000e-01 3.237e-04 -1.718e-04 -1.702e-03
226 1 0.000e+00 4.000e-01 0.000e+00 -2.840e-04 4.828e-04 -1.087e-03
227 1 0.000e+00 -2.000e-01 2.000e-01 -2.914e-04 5.372e-05 -3.567e-04
228 1 0.000e+00 -2.000e-01 -2.000e-01 -2.368e-03 1.543e-05 9.435e-04
229 1 -2.000e-01 2.000e-01 -2.000e-01 -1.868e-03 9.193e-04 4.839e-04
230 1 -2.000e-01 2.000e-01 2.000e-01 4.054e-04 -9.366e-05 6.218e-04
231 1 -4.000e-01 0.000e+00 0.000e+00 -1.053e-04 4.947e-04 -1.869e-04
232 1 2.000e-01 2.000e-01 -2.000e-01 6.985e-04 -2.812e-04 -2.671e-04
233 1 -2.000e-01 -2.000e-01 0.000e+00 -1.834e-03 -4.340e-04 5.874e-04
234 1 -2.000e-01 -2.000e-01 2.000e-01 -9.234e-04 -6.311e-04 -4.786e-04
235 1 4.000e-01 0.000e+00 0.000e+00 1.063e-03 9.307e-04 -2.132e-04
236 1 -2.000e-01 0.000e+00 0.000e+00 7.503e-04 3.254e-04 -9.713e-04
237 1 -2.000e-01 2.000e-01 0.000e+00 -8.795e-04 5.760e-04 2.345e-04
238 1 -2.000e-01 0.000e+00 2.000e-01 8.977e-04 1.163e-03 -8.000e-04
239 1 2.000e-01 -2.000e-01 2.000e-01 -5.853e-04 -5.763e-04 8.336e-04
240 1 0.000e+00 -2.000e-01 0.000e+00 9.621e-04 -7.360e-04 -1.239e-03
241 1 0.000e+00 2.000e-01 0.000e+00 1.114e-04 -3.587e-04 -3.650e-04
242 1 0.000e+00 0.000e+00 4.000e-01 -1.457e-03 3.422e-04 6.150e-04
243 1 0.000e+00 0.000e+00 2.000e-01 -6.747e-05 -1.936e-04 6.159e-04
244 1 0.000e+00 2.000e-01 -2.000e-01 7.135e-04 1.027e-03 5.901e-04
245 1 0.000e+00 0.000e+00 0.000e+00 2.006e-01 -1.647e-03 2.679e-04
246 1 0.000e+00 -4.000e-01 0.000e+00 7.439e-04 -1.827e-04 -1.815e-03
247 1 2.000e-01 -2.000e-01 -2.000e-01 1.420e-04 -1.588e-03 -1.599e-03
248 1 0.000e+00 0.000e+00 -4.000e-01 7.227e-04 -1.112e-03 -7.788e-04
249 1 2.000e-01 0.000e+00 2.000e-01 6.502e-04 -1.356e-04 8.911e-04
250 1 2.000e-01 -2.000e-01 0.000e+00 5.652e-04 4.446e-04 -4.324e-04
251 1 0.000e+00 2.000e-01 2.000e-01 7.910e-04 2.693e-03 -1.659e-03
252 1 -2.000e-01 -2.000e-01 -2.000e-01 -2.995e-05 -4.834e-04 6.282e-04
253 1 2.000e-01 2.000e-01 2.000e-01 5.621e-04 -8.294e-04 1.345e-03
254 1 2.000e-01 0.000e+00 -2.000e-01 7.586e-04 1.744e-06 2.279e-04
255 1 -2.000e-01 0.000e+00 -2.000e-01 -1.088e-03 -7.349e-04 8.592e-04
256 1 2.000e-01 2.000e-01 0.000e+00 2.438e-04 -6.017e-04 2.276e-04
ITEM: TIMESTEP
0
ITEM: NUMBER OF ATOMS
32
ITEM: BOX BOUNDS xy xz yz pp pp pp
                     -5.00000000000000e-01 5.00000000000000e-01 0.00000000000000e+00
-5.00000000000000e-01	5.00000000000000e-01	0.00000000000000e+00
-5.00000000000000e-01	5.00000000000000e-01	0.00000000000000e+00
ITEM: ATOMS id type x y z DisplacementX DisplacementY DisplacementZ
257 1 2.000e-01 2.000e-01 2.000e-01 -1.244e-03 -1.582e-03 2.912e-05
258 1 4.000e-01 0.000e+00 0.000e+00 1.021e-04 -2.931e-05 8.595e-04
259 1 0.000e+00 0.000e+00 2.000e-01 2.728e-04 1.166e-05 -5.283e-04
260 1 2.000e-01 0.000e+00 2.000e-01 4.889e-04 4.267e-04 5.523e-04
261 1 -2.000e-01 -2.000e-01 0.000e+00 -5.161e-04 -1.065e-03 9.358e-04
262 1 -2.000e-01 2.000e-01 2.000e-01 -5.682e-04 1.045e-03 -2.654e-05
263 1 0.000e+00 4.000e-01 0.000e+00 1.109e-03 -1.159e-03 4.748e-04
264 1 2.000e-01 -2.000e-01 -2.000e-01 -1.541e-03 1.589e-03 3.975e-04
265 1 2.000e-01 0.000e+00 -2.000e-01 -9.863e-04 2.503e-04 -9.301e-04
266 1 -4.000e-01 0.000e+00 0.000e+00 -2.592e-04 -8.847e-04 -2.763e-04
267 1 0.000e+00 -2.000e-01 0.000e+00 -1.660e-03 -7.927e-04 7.848e-04
268 1 2.000e-01 0.000e+00 0.000e+00 -9.694e-04 3.113e-04 -5.632e-04
269 1 -2.000e-01 -2.000e-01 -2.000e-01 3.492e-03 4.257e-04 -8.599e-04
270 1 -2.000e-01 2.000e-01 -2.000e-01 1.282e-04 7.576e-04 -3.704e-04
271 1 -2.000e-01 0.000e+00 2.000e-01 -8.678e-04 2.441e-04 5.690e-04
272 1 -2.000e-01 0.000e+00 0.000e+00 -2.168e-03 2.069e-04 6.426e-04
273 1 -2.000e-01 -2.000e-01 2.000e-01 8.907e-04 -8.233e-04 -3.039e-05
274 1 0.000e+00 -2.000e-01 2.000e-01 -1.653e-03 3.522e-04 -1.826e-04
275 1 2.000e-01 -2.000e-01 2.000e-01 -7.272e-04 -5.265e-04 -1.385e-03
276 1 -2.000e-01 0.000e+00 -2.000e-01 -2.147e-04 1.079e-03 1.679e-04
277 1 2.000e-01 -2.000e-01 0.000e+00 -7.084e-06 5.907e-05 -6.625e-04
278 1 0.000e+00 2.000e-01 2.000e-01 -1.056e-03 -7.294e-04 4.293e-05
279 1 2.000e-01 2.000e-01 0.000e+00 -2.799e-03 -1.084e-03 1.286e-03
280 1 0.000e+00 0.000e+00 4.000e-01 -1.234e-03 1.064e-04 9.223e-05
281 1 0.000e+00 0.000e+00 0.000e+00 1.409e-03 -1.127e-03 -1.981e-01
282 1 0.000e+00 -2.000e-01 -2.000e-01 2.328e-04 -1.198e-03 1.069e-04
283 1 -2.000e-01 2.000e-01 0.000e+00 -1.144e-03 -1.383e-03 -1.119e-03
284 1 0.000e+00 -4.000e-01 0.000e+00 1.395e-03 1.020e-05 -1.020e-04
285 1 0.000e+00 2.000e-01 0.000e+00 3.811e-04 -6.236e-04 1.092e-03
286 1 0.000e+00 0.000e+00 -4.000e-01 -9.526e-04 -1.309e-03 -1.528e-03
287 1 0.000e+00 2.000e-01 -2.000e-01 -6.828e-04 -4.059e-04 4.692e-04
288 1 2.000e-01 2.000e-01 -2.000e-01 -1.352e-03 -4.223e-04 5.214e-04
ITEM: TIMESTEP
0
ITEM: NUMBER OF ATOMS
32
ITEM: BOX BOUNDS xy xz yz pp pp pp
                     -5.00000000000000e-01 5.00000000000000e-01 0.00000000000000e+00
-5.00000000000000e-01	5.00000000000000e-01	0.00000000000000e+00
-5.00000000000000e-01	5.00000000000000e-01	0.00000000000000e+00
ITEM: ATOMS id type x y z DisplacementX DisplacementY DisplacementZ
289 1 -2.000e-01 2.000e-01 -2.000e-01 2.084e-05 1.592e-03 -7.118e-04
290 1 -2.000e-01 0.000e+00 2.000e-01 -1.882e-03 1.320e-03 1.513e-03
291 1 2.000e-01 2.000e-01 -2.000e-01 -2.743e-03 3.227e-04 -1.461e-03
292 1 -2.000e-01 0.000e+00 -2.000e-01 2.234e-03 3.198e-03 -3.342e-04
293 1 -2.000e-01 -2.000e-01 -2.000e-01 -6.905e-04 6.357e-04 -4.149e-04
294 1 2.000e-01 0.000e+00 0.000e+00 4.719e-04 2.470e-03 6.351e-04
295 1 0.000e+00 0.000e+00 -4.000e-01 6.703e-04 -1.430e-03 2.472e-03
296 1 -4.000e-01 0.000e+00 0.000e+00 -1.263e-03 7.739e-04 -5.548e-04
297 1 2.000e-01 2.000e-01 0.000e+00 -2.690e-04 -3.115e-04 -5.807e-04
298 1 0.000e+00 0.000e+00 2.000e-01 -8.794e-04 -1.113e-03 5.864e-04
299 1 -2.000e-01 -2.000e-01 2.000e-01 5.011e-04 8.741e-04 1.411e-03
300 1 2.000e-01 2.000e-01 2.000e-01 -9.602e-05 -1.381e-03 9.970e-04
301 1 -2.000e-01 0.000e+00 0.000e+00 2.911e-04 -1.396e-03 -6.509e-06
302 1 2.000e-01 -2.000e-01 2.000e-01 -4.475e-04 5.712e-04 2.538e-04
303 1 -2.000e-01 2.000e-01 2.000e-01 -9.915e-04 7.949e-04 -1.228e-03
304 1 0.000e+00 -4.000e-01 0.000e+00 -8.323e-04 2.013e-04 3.174e-04
305 1 0.000e+00 0.000e+00 4.000e-01 4.544e-04 -1.073e-04 -4.528e-04
306 1 0.000e+00 -2.000e-01 0.000e+00 3.209e-04 -1.424e-04 4.579e-04
307 1 2.000e-01 -2.000e-01 -2.000e-01 3.705e-04 -7.671e-04 4.276e-04
308 1 -2.000e-01 2.000e-01 0.000e+00 -1.362e-04 4.167e-04 -1.950e-03
309 1 2.000e-01 0.000e+00 2.000e-01 6.141e-04 3.287e-04 4.518e-04
310 1 -2.000e-01 -2.000e-01 0.000e+00 1.603e-03 -7.405e-04 3.291e-04
311 1 0.000e+00 0.000e+00 -2.000e-01 1.527e-03 -8.825e-05 -9.535e-04
312 1 2.000e-01 0.000e+00 -2.000e-01 -8.160e-04 -3.239e-04 -3.513e-04
313 1 0.000e+00 2.000e-01 2.000e-01 -1.638e-03 5.876e-04 -2.398e-03
314 1 0.000e+00 0.000e+00 0.000e+00 1.928e-04 2.004e-01 -1.055e-03
315 1 0.000e+00 -2.000e-01 2.000e-01 -1.901e-03 4.466e-05 6.389e-04
316 1 0.000e+00 2.000e-01 -2.000e-01 9.743e-04 8.048e-04 -1.116e-03
317 1 0.000e+00 4.000e-01 0.000e+00 1.093e-03 -1.440e-03 -8.598e-04
318 1 4.000e-01 0.000e+00 0.000e+00 -1.298e-03 -5.835e-04 -4.564e-04
319 1 2.000e-01 -2.000e-01 0.000e+00 -5.132e-04 3.759e-04 4.748e-05
320 1 0.000e+00 -2.000e-01 -2.000e-01 7.675e-04 -1.029e-03 1.727e-03
ITEM: TIMESTEP
0
ITEM: NUMBER OF ATOMS
32
ITEM: BOX BOUNDS xy xz yz pp pp pp
                     -5.00000000000000e-01 5.00000000000000e-01 0.00000000000000e+00
-5.00000000000000e-01	5.00000000000000e-01	0.00000000000000e+00
-5.00000000000000e-01	5.00000000000000e-01	0.00000000000000e+00
ITEM: ATOMS id type x y z DisplacementX DisplacementY DisplacementZ
321 1 2.000e-01 2.000e-01 0.000e+00 -1.245e-03 7.430e-04 -1.042e-03
322 1 -2.000e-01 0.000e+00 0.000e+00 -1.112e-03 6.963e-04 1.870e-03
323 1 0.000e+00 0.000e+00 -4.000e-01 1.986e-04 2.052e-04 1.060e-03
324 1 2.000e-01 0.000e+00 0.000e+00 -1.056e-03 -1.244e-03 4.851e-04
325 1 -2.000e-01 -2.000e-01 0.000e+00 7.179e-04 -7.422e-04 -2.060e-03
326 1 0.000e+00 2.000e-01 0.000e+00 -1.158e-03 -8.686e-06 -1.183e-03
327 1 2.000e-01 -2.000e-01 2.000e-01 4.535e-06 -1.003e-03 -9.329e-04
328 1 0.000e+00 -2.000e-01 -2.000e-01 -1.154e-03 7.537e-04 -7.828e-04
329 1 2.000e-01 0.000e+00 2.000e-01 6.459e-04 3.109e-04 9.207e-04
330 1 -2.000e-01 -2.000e-01 2.000e-01 -1.210e-03 -9.629e-04 -1.492e-03
331 1 -2.000e-01 2.000e-01 2.000e-01 1.071e-04 2.324e-04 -2.010e-05
332 1 2.000e-01 2.000e-01 -2.000e-01 -8.071e-05 2.476e-04 -3.324e-04
333 1 2.000e-01 0.000e+00 -2.000e-01 -4.939e-04 3.601e-04 1.778e-03
334 1 -2.000e-01 -2.000e-01 -2.000e-01 8.051e-04 1.070e-03 2.259e-04
335 1 -2.000e-01 2.000e-01 0.000e+00 -5.511e-04 -4.871e-04 1.571e-03
336 1 -2.000e-01 0.000e+00 2.000e-01 5.783e-04 1.375e-03 1.617e-04
337 1 0.000e+00 -2.000e-01 0.000e+00 4.039e-04 -3.600e-04 -5.732e-04
338 1 2.000e-01 -2.000e-01 -2.000e-01 6.173e-04 5.601e-04 -1.066e-03
339 1 2.000e-01 -2.000e-01 0.000e+00 5.938e-04 1.467e-03 3.984e-04
340 1 -2.000e-01 2.000e-01 -2.000e-01 1.386e-03 -1.657e-03 1.550e-03
341 1 4.000e-01 0.000e+00 0.000e+00 -3.175e-05 9.135e-06 7.062e-04
342 1 -2.000e-01 0.000e+00 -2.000e-01 1.089e-03 2.784e-04 1.082e-03
343 1 0.000e+00 0.000e+00 -2.000e-01 -5.999e-04 5.581e-04 -1.245e-03
344 1 0.000e+00 0.000e+00 4.000e-01 1.616e-04 6.559e-04 -2.790e-04
345 1 0.000e+00 -2.000e-01 2.000e-01 -2.202e-03 -6.098e-05 -1.349e-05
346 1 0.000e+00 0.000e+00 0.000e+00 4.992e-04 2.079e-05 2.017e-01
347 1 0.000e+00 2.000e-01 -2.000e-01 -3.024e-05 1.069e-03 -8.601e-04
348 1 -4.000e-01 0.000e+00 0.000e+00 1.245e-03 2.395e-03 -2.454e-03
349 1 0.000e+00 2.000e-01 2.000e-01 4.583e-04 2.947e-04 -1.230e-03
350 1 0.000e+00 4.000e-01 0.000e+00 3.492e-05 1.995e-03 -2.593e-03
351 1 0.000e+00 -4.000e-01 0.000e+00 -1.433e-04 -1.443e-03 3.574e-04
352 1 2.000e-01 2.000e-01 2.000e-01 4.614e-04 4.452e-04 1.472e-03
ITEM: TIMESTEP
0
ITEM: NUMBER OF ATOMS
32
ITEM: BOX BOUNDS xy xz yz pp pp pp
                     -5.00000000000000e-01 5.00000000000000e-01 0.00000000000000e+00
-5.00000000000000e-01	5.00000000000000e-01	0.00000000000000e+00
-5.00000000000000e-01	5.00000000000000e-01	0.00000000000000e+00
ITEM: ATOMS id type x y z DisplacementX DisplacementY DisplacementZ
353 1 2.000e-01 0.000e+00 -2.000e-01 -3.134e-04 4.496e-04 -2.083e-04
354 1 -2.000e-01 -2.000e-01 -2.000e-01 -9.868e-04 1.436e-04 2.418e-04
355 1 2.000e-01 2.000e-01 0.000e+00 -1.425e-03 -1.220e-03 3.292e-04
356 1 -2.000e-01 2.000e-01 0.000e+00 -5.114e-04 -1.653e-03 -1.354e-03
357 1 2.000e-01 -2.000e-01 -2.000e-01 1.566e-04 -6.635e-04 -3.536e-05
358 1 0.000e+00 2.000e-01 2.000e-01 1.107e-03 -7.670e-04 -8.437e-04
359 1 2.000e-01 2.000e-01 -2.000e-01 -9.264e-04 3.292e-04 1.138e-03
360 1 0.000e+00 0.000e+00 -2.000e-01 -1.426e-03 -1.347e-04 3.682e-04
361 1 2.000e-01 -2.000e-01 0.000e+00 -1.800e-03 1.047e-03 -6.082e-04
362 1 2.000e-01 2.000e-01 2.000e-01 1.209e-03 -3.720e-04 5.565e-04
363 1 -4.000e-01 0.000e+00 0.000e+00 -8.121e-04 -2.071e-03 -1.459e-03
364 1 2.000e-01 -2.000e-01 2.000e-01 -7.296e-04 5.044e-04 -7.947e-04
365 1 -2.000e-01 0.000e+00 0.000e+00 -5.417e-04 2.044e-03 4.285e-04
366 1 -2.000e-01 -2.000e-01 2.000e-01 1.741e-03 -1.492e-03 -1.434e-03
367 1 0.000e+00 2.000e-01 0.000e+00 -1.727e-03 4.657e-05 1.105e-03
368 1 0.000e+00 4.000e-01 0.000e+00 9.158e-04 4.802e-04 -6.879e-04
369 1 -2.000e-01 0.000e+00 -2.000e-01 -9.224e-04 9.320e-04 -2.224e-04
370 1 -2.000e-01 -2.000e-01 0.000e+00 1.842e-03 4.319e-04 -1.641e-03
371 1 -2.000e-01 2.000e-01 -2.000e-01 1.541e-03 1.059e-03 4.013e-04
372 1 -2.000e-01 2.000e-01 2.000e-01 -9.075e-05 7.237e-04 -5.521e-04
373 1 0.000e+00 0.000e+00 4.000e-01 7.427e-04 8.800e-04 -7.811e-04
374 1 2.000e-01 0.000e+00 2.000e-01 -7.806e-04 1.767e-04 3.228e-03
375 1 0.000e+00 -2.000e-01 2.000e-01 -8.365e-04 -2.971e-04 7.901e-05
376 1 0.000e+00 -4.000e-01 0.000e+00 -6.509e-05 -9.375e-04 -4.788e-04
377 1 -2.000e-01 0.000e+00 2.000e-01 7.520e-04 -5.651e-04 3.013e-04