ITEM: TIMESTEP
0
ITEM: NUMBER OF ATOMS
4
ITEM: BOX BOUNDS xy xz yz pp pp pp
                     -5.00000000000000e-01 5.00000000000000e-01 0.00000000000000e+00
-5.00000000000000e-01	5.00000000000000e-01	0.00000000000000e+00
-5.00000000000000e-01	5.00000000000000e-01	0.00000000000000e+00
ITEM: ATOMS id type x y z DisplacementX DisplacementY DisplacementZ
1 1 0.000e+00 0.000e+00 0.000e+00 1.307e-03 9.974e-02 -5.605e-04
2 1 0.000e+00 -1.000e-01 0.000e+00 1.192e-03 2.144e-04 8.465e-04
3 1 1.000e-01 0.000e+00 0.000e+00 1.886e-03 -1.744e-03 4.689e-04
4 1 -1.000e-01 0.000e+00 0.000e+00 -7.319e-04 1.866e-03 1.416e-03
ITEM: TIMESTEP
0
ITEM: NUMBER OF ATOMS
4
ITEM: BOX BOUNDS xy xz yz pp pp pp
                     -5.00000000000000e-01 5.00000000000000e-01 0.00000000000000e+00
-5.00000000000000e-01	5.00000000000000e-01	0.00000000000000e+00
-5.00000000000000e-01	5.00000000000000e-01	0.00000000000000e+00
ITEM: ATOMS id type x y z DisplacementX DisplacementY DisplacementZ
5 1 -1.000e-01 0.000e+00 0.000e+00 -3.023e-04 -7.745e-04 9.252e-04
6 1 0.000e+00 1.000e-01 0.000e+00 3.852e-04 -7.415e-04 1.417e-03
7 1 1.000e-01 0.000e+00 0.000e+00 1.891e-03 7.511e-04 -1.120e-03
8 1 0.000e+00 0.000e+00 0.000e+00 1.958e-04 -9.936e-02 -1.087e-04
ITEM: TIMESTEP
0
ITEM: NUMBER OF ATOMS
4
ITEM: BOX BOUNDS xy xz yz pp pp pp
                     -5.00000000000000e-01 5.00000000000000e-01 0.00000000000000e+00
-5.00000000000000e-01	5.00000000000000e-01	0.00000000000000e+00
-5.00000000000000e-01	5.00000000000000e-01	0.00000000000000e+00
ITEM: ATOMS id type x y z DisplacementX DisplacementY DisplacementZ
9 1 1.000e-01 0.000e+00 0.000e+00 -7.090e-04 5.996e-04 5.118e-04
10 1 0.000e+00 1.000e-01 0.000e+00 -1.471e-03 8.114e-04 1.373e-04
11 1 0.000e+00 -1.000e-01 0.000e+00 1.044e-03 1.999e-03 -1.048e-03
12 1 0.000e+00 0.000e+00 0.000e+00 -9.855e-02 -5.228e-04 5.196e-04
ITEM: TIMESTEP
0
ITEM: NUMBER OF ATOMS
4
ITEM: BOX BOUNDS xy xz yz pp pp pp
                     -5.00000000000000e-01 5.00000000000000e-01 0.00000000000000e+00
-5.00000000000000e-01	5.00000000000000e-01	0.00000000000000e+00
-5.00000000000000e-01	5.00000000000000e-01	0.00000000000000e+00
ITEM: ATOMS id type x y z DisplacementX DisplacementY DisplacementZ
13 1 0.000e+00 1.000e-01 0.000e+00 1.193e-03 4.712e-06 3.401e-04
14 1 -1.000e-01 0.000e+00 0.000e+00 1.132e-04 -1.809e-04 -1.505e-03
15 1 0.000e+00 -1.000e-01 0.000e+00 -2.776e-03 -3.318e-04 -8.601e-04
16 1 0.000e+00 0.000e+00 0.000e+00 1.002e-01 -9.300e-04 1.933e-03
ITEM: TIMESTEP
0
ITEM: NUMBER OF ATOMS
4
ITEM: BOX BOUNDS xy xz yz pp pp pp
                     -5.00000000000000e-01 5.00000000000000e-01 0.00000000000000e+00
-5.00000000000000e-01	5.00000000000000e-01	0.00000000000000e+00
-5.00000000000000e-01	5.00000000000000e-01	0.00000000000000e+00
ITEM: ATOMS id type x y z DisplacementX DisplacementY DisplacementZ
17 1 0.000e+00 1.000e-01 0.000e+00 2.920e-04 3.548e-04 -7.558e-04
18 1 0.000e+00 0.000e+00 0.000e+00 1.021e-01 1.255e-03 4.330e-04
19 1 0.000e+00 -1.000e-01 0.000e+00 -7.424e-04 7.710e-04 8.124e-04
20 1 -1.000e-01 0.000e+00 0.000e+00 -1.295e-03 -1.437e-03 5.774e-04
ITEM: TIMESTEP
0
ITEM: NUMBER OF ATOMS
4
ITEM: BOX BOUNDS xy xz yz pp pp pp
                     -5.00000000000000e-01 5.00000000000000e-01 0.00000000000000e+00
-5.00000000000000e-01	5.00000000000000e-01	0.00000000000000e+00
-5.00000000000000e-01	5.00000000000000e-01	0.00000000000000e+00
ITEM: ATOMS id type x y z DisplacementX DisplacementY DisplacementZ
21 1 -1.000e-01 0.000e+00 0.000e+00 -1.358e-03 -1.299e-03 -1.172e-03
22 1 0.000e+00 0.000e+00 0.000e+00 1.926e-04 -9.971e-02 -7.957e-04
23 1 0.000e+00 1.000e-01 0.000e+00 2.743e-04 -8.339e-04 5.136e-04
24 1 1.000e-01 0.000e+00 0.000e+00 1.907e-03 9.595e-04 -1.406e-04
ITEM: TIMESTEP
0
ITEM: NUMBER OF ATOMS
4
ITEM: BOX BOUNDS xy xz yz pp pp pp
                     -5.00000000000000e-01 5.00000000000000e-01 0.00000000000000e+00
-5.00000000000000e-01	5.00000000000000e-01	0.00000000000000e+00
-5.00000000000000e-01	5.00000000000000e-01	0.00000000000000e+00
ITEM: ATOMS id type x y z DisplacementX DisplacementY DisplacementZ
25 1 0.000e+00 -1.000e-01 0.000e+00 2.690e-03 -9.543e-04 -6.852e-04
26 1 0.000e+00 0.000e+00 0.000e+00 4.648e-04 1.014e-01 2.213e-03
27 1 -1.000e-01 0.000e+00 0.000e+00 1.841e-03 -6.287e-04 1.378e-03
28 1 1.000e-01 0.000e+00 0.000e+00 5.894e-04 -2.449e-03 -1.242e-03
ITEM: TIMESTEP
0
ITEM: NUMBER OF ATOMS
4
ITEM: BOX BOUNDS xy xz yz pp pp pp
                     -5.00000000000000e-01 5.00000000000000e-01 0.00000000000000e+00
-5.00000000000000e-01	5.00000000000000e-01	0.00000000000000e+00
-5.00000000000000e-01	5.00000000000000e-01	0.00000000000000e+00
ITEM: ATOMS id type x y z DisplacementX DisplacementY DisplacementZ
29 1 1.000e-01 0.000e+00 0.000e+00 -5.184e-04 -1.096e-03 -6.440e-06
30 1 0.000e+00 0.000e+00 0.000e+00 -9.944e-02 1.319e-04 6.494e-04
31 1 0.000e+00 -1.000e-01 0.000e+00 -8.414e-04 4.192e-04 1.343e-05
32 1 0.000e+00 1.000e-01 0.000e+00 -9.259e-04 7.805e-04 -2.463e-04
ITEM: TIMESTEP
0
ITEM: NUMBER OF ATOMS
4
ITEM: BOX BOUNDS xy xz yz pp pp pp
                     -5.00000000000000e-01 5.00000000000000e-01 0.00000000000000e+00
-5.00000000000000e-01	5.00000000000000e-01	0.00000000000000e+00
-5.00000000000000e-01	5.00000000000000e-01	0.00000000000000e+00
ITEM: ATOMS id type x y z DisplacementX DisplacementY DisplacementZ
33 1 0.000e+00 0.000e+00 0.000e+00 -9.973e-02 5.867e-04 6.787e-04
34 1 1.000e-01 0.000e+00 0.000e+00 -3.693e-04 -7.292e-04 6.626e-04
35 1 0.000e+00 -1.000e-01 0.000e+00 -1.477e-03 4.999e-04 -1.757e-03
36 1 0.000e+00 1.000e-01 0.000e+00 -5.702e-04 -8.428e-04 2.138e-03
ITEM: TIMESTEP
0
ITEM: NUMBER OF ATOMS
4
ITEM: BOX BOUNDS xy xz yz pp pp pp
                     -5.00000000000000e-01 5.00000000000000e-01 0.00000000000000e+00
-5.00000000000000e-01	5.00000000000000e-01	0.00000000000000e+00
-5.00000000000000e-01	5.00000000000000e-01	0.00000000000000e+00
ITEM: ATOMS id type x y z DisplacementX DisplacementY DisplacementZ
37 1 0.000e+00 0.000e+00 0.000e+00 -1.968e-03 -1.001e-01 1.596e-03
38 1 0.000e+00 1.000e-01 0.000e+00 -5.959e-04 -2.709e-04 1.036e-03
39 1 1.000e-01 0.000e+00 0.000e+00 -6.470e-04 9.225e-04 -5.514e-04
40 1 -1.000e-01 0.000e+00 0.000e+00 -6.285e-04 -2.679e-03 2.481e-03
ITEM: TIMESTEP
0
ITEM: NUMBER OF ATOMS
4
ITEM: BOX BOUNDS xy xz yz pp pp pp
                     -5.00000000000000e-01 5.00000000000000e-01 0.00000000000000e+00
-5.00000000000000e-01	5.00000000000000e-01	0.00000000000000e+00
-5.00000000000000e-01	5.00000000000000e-01	0.00000000000000e+00
ITEM: ATOMS id type x y z DisplacementX DisplacementY DisplacementZ
41 1 -1.000e-01 0.000e+00 0.000e+00 1.236e-03 2.587e-04 -1.193e-03
42 1 0.000e+00 0.000e+00 0.000e+00 1.004e-01 -9.070e-04 -8.507e-04
43 1 0.000e+00 1.000e-01 0.000e+00 8.080e-04 2.302e-04 1.001e-03
44 1 0.000e+00 -1.000e-01 0.000e+00 -7.404e-04 1.505e-03 2.330e-03
ITEM: TIMESTEP
0
ITEM: NUMBER OF ATOMS
4
ITEM: BOX BOUNDS xy xz yz pp pp pp
                     -5.00000000000000e-01 5.00000000000000e-01 0.00000000000000e+00
-5.00000000000000e-01	5.00000000000000e-01	0.00000000000000e+00
-5.00000000000000e-01	5.00000000000000e-01	0.00000000000000e+00
ITEM: ATOMS id type x y z DisplacementX DisplacementY DisplacementZ
45 1 1.000e-01 0.000e+00 0.000e+00 -8.186e-04 -2.186e-04 -1.597e-03
46 1 0.000e+00 0.000e+00 0.000e+00 -7.330e-04 9.790e-02 8.122e-04
47 1 0.000e+00 -1.000e-01 0.000e+00 9.116e-05 2.482e-04 -1.875e-04
48 1 -1.000e-01 0.000e+00 0.000e+00 6.178e-04 7.498e-04 -1.101e-03
ITEM: TIMESTEP
0
ITEM: NUMBER OF ATOMS
4
ITEM: BOX BOUNDS xy xz yz pp pp pp
                     -5.00000000000000e-01 5.00000000000000e-01 0.00000000000000e+00
-5.00000000000000e-01	5.00000000000000e-01	0.00000000000000e+00
-5.00000000000000e-01	5.00000000000000e-01	0.00000000000000e+00
ITEM: ATOMS id type x y z DisplacementX DisplacementY DisplacementZ
49 1 0.000e+00 1.000e-01 0.000e+00 1.494e-03 -1.506e-03 -1.547e-03
50 1 0.000e+00 -1.000e-01 0.000e+00 6.306e-04 5.048e-04 1.271e-03
51 1 0.000e+00 0.000e+00 0.000e+00 -1.001e-01 6.993e-04 -7.641e-04
52 1 1.000e-01 0.000e+00 0.000e+00 3.893e-04 -7.423e-04 -4.175e-05
ITEM: TIMESTEP
0
ITEM: NUMBER OF ATOMS
4
ITEM: BOX BOUNDS xy xz yz pp pp pp
                     -5.00000000000000e-01 5.00000000000000e-01 0.00000000000000e+00
-5.00000000000000e-01	5.00000000000000e-01	0.00000000000000e+00
-5.00000000000000e-01	5.00000000000000e-01	0.00000000000000e+00
ITEM: ATOMS id type x y z DisplacementX DisplacementY DisplacementZ
53 1 -1.000e-01 0.000e+00 0.000e+00 1.624e-03 3.432e-04 -1.391e-03
54 1 1.000e-01 0.000e+00 0.000e+00 3.335e-04 2.282e-04 -2.653e-04
55 1 0.000e+00 0.000e+00 0.000e+00 1.139e-03 9.976e-02 8.813e-04
56 1 0.000e+00 -1.000e-01 0.000e+00 6.718e-04 7.479e-04 -6.657e-04
ITEM: TIMESTEP
0
ITEM: NUMBER OF ATOMS
4
ITEM: BOX BOUNDS xy xz yz pp pp pp
                     -5.00000000000000e-01 5.00000000000000e-01 0.00000000000000e+00
-5.00000000000000e-01	5.00000000000000e-01	0.00000000000000e+00
-5.00000000000000e-01	5.00000000000000e-01	0.00000000000000e+00
ITEM: ATOMS id type x y z DisplacementX DisplacementY DisplacementZ
57 1 1.000e-01 0.000e+00 0.000e+00 5.553e-04 1.538e-04 1.078e-03
58 1 0.000e+00 1.000e-01 0.000e+00 -9.216e-04 4.960e-05 8.355e-04
59 1 -1.000e-01 0.000e+00 0.000e+00 3.145e-04 -2.739e-03 1.399e-03
60 1 0.000e+00 0.000e+00 0.000e+00 -1.215e-03 -1.001e-01 -3.577e-04
ITEM: TIMESTEP
0
ITEM: NUMBER OF ATOMS
4
ITEM: BOX BOUNDS xy xz yz pp pp pp
                     -5.00000000000000e-01 5.00000000000000e-01 0.00000000000000e+00
-5.00000000000000e-01	5.00000000000000e-01	0.00000000000000e+00
-5.00000000000000e-01	5.00000000000000e-01	0.00000000000000e+00
ITEM: ATOMS id type x y z DisplacementX DisplacementY DisplacementZ
61 1 -1.000e-01 0.000e+00 0.000e+00 1.829e-03 1.382e-04 9.669e-04
62 1 0.000e+00 -1.000e-01 0.000e+00 -2.269e-03 -5.263e-05 -1.307e-03
63 1 0.000e+00 1.000e-01 0.000e+00 -7.562e-04 1.039e-03 8.444e-04
64 1 0.000e+00 0.000e+00 0.000e+00 9.864e-02 1.148e-03 -7.421e-04
ITEM: TIMESTEP
0
ITEM: NUMBER OF ATOMS
4
ITEM: BOX BOUNDS xy xz yz pp pp pp
                     -5.00000000000000e-01 5.00000000000000e-01 0.00000000000000e+00
-5.00000000000000e-01	5.00000000000000e-01	0.00000000000000e+00
-5.00000000000000e-01	5.00000000000000e-01	0.00000000000000e+00
ITEM: ATOMS id type x y z DisplacementX DisplacementY DisplacementZ
65 1 0.000e+00 0.000e+00 0.000e+00 1.002e-01 -1.302e-03 9.045e-04
66 1 0.000e+00 -1.000e-01 0.000e+00 1.182e-03 6.347e-04 8.799e-04
67 1 0.000e+00 1.000e-01 0.000e+00 1.605e-03 1.967e-04 1.730e-03
68 1 -1.000e-01 0.000e+00 0.000e+00 4.000e-04 3.639e-04 1.032e-03
ITEM: TIMESTEP
0
ITEM: NUMBER OF ATOMS
4
ITEM: BOX BOUNDS xy xz yz pp pp pp
                     -5.00000000000000e-01 5.00000000000000e-01 0.00000000000000e+00
-5.00000000000000e-01	5.00000000000000e-01	0.00000000000000e+00
-5.00000000000000e-01	5.00000000000000e-01	0.00000000000000e+00
ITEM: ATOMS id type x y z DisplacementX DisplacementY DisplacementZ
69 1 -1.000e-01 0.000e+00 0.000e+00 1.889e-03 8.387e-04 -8.118e-04
70 1 0.000e+00 0.000e+00 0.000e+00 7.381e-04 1.001e-01 -2.281e-04
71 1 0.000e+00 -1.000e-01 0.000e+00 4.232e-04 1.602e-05 -2.335e-04
72 1 1.000e-01 0.000e+00 0.000e+00 1.379e-03 4.473e-04 -7.721e-04
ITEM: TIMESTEP
0
ITEM: NUMBER OF ATOMS
4
ITEM: BOX BOUNDS xy xz yz pp pp pp
                     -5.00000000000000e-01 5.00000000000000e-01 0.00000000000000e+00
-5.00000000000000e-01	5.00000000000000e-01	0.00000000000000e+00
-5.00000000000000e-01	5.00000000000000e-01	0.00000000000000e+00
ITEM: ATOMS id type x y z DisplacementX DisplacementY DisplacementZ
73 1 1.000e-01 0.000e+00 0.000e+00 3.598e-05 -1.956e-03 -1.280e-03
74 1 0.000e+00 0.000e+00 0.000e+00 4.174e-05 -9.864e-02 -3.370e-04
75 1 -1.000e-01 0.000e+00 0.000e+00 1.054e-03 -9.891e-04 5.522e-04
76 1 0.000e+00 1.000e-01 0.000e+00 5.645e-04 5.028e-04 -1.181e-03
ITEM: TIMESTEP
0
ITEM: NUMBER OF ATOMS
4
ITEM: BOX BOUNDS xy xz yz pp pp pp
                     -5.00000000000000e-01 5.00000000000000e-01 0.00000000000000e+00
-5.00000000000000e-01	5.00000000000000e-01	0.00000000000000e+00
-5.00000000000000e-01	5.00000000000000e-01	0.00000000000000e+00
ITEM: ATOMS id type x y z DisplacementX DisplacementY DisplacementZ
77 1 0.000e+00 1.000e-01 0.000e+00 -1.702e-03 2.141e-04 5.113e-05
78 1 0.000e+00 -1.000e-01 0.000e+00 4.450e-04 2.346e-05 -6.430e-04
79 1 0.000e+00 0.000e+00 0.000e+00 -9.941e-02 -2.008e-03 7.791e-04
80 1 1.000e-01 0.000e+00 0.000e+00 -3.812e-04 -1.433e-03 1.204e-04
