ITEM: TIMESTEP
0
ITEM: NUMBER OF ATOMS
107
ITEM: BOX BOUNDS xy xz yz pp pp pp
                     0.00000000000000e+00 1.06000000000000e+01 0.00000000000000e+00
0.00000000000000e+00	1.06000000000000e+01	0.00000000000000e+00
0.00000000000000e+00	1.06000000000000e+01	0.00000000000000e+00
ITEM: ATOMS id type x y z DisplacementX DisplacementY DisplacementZ
1 1 3.547e-01 3.537e-01 3.544e-01 7.507e-04 9.134e-04 -1.624e-04
2 1 2.123e+00 2.122e+00 3.533e-01 -1.622e-03 1.454e-04 2.655e-04
3 1 2.123e+00 3.533e-01 2.125e+00 -1.101e-04 7.599e-04 -5.234e-04
4 1 3.523e-01 2.124e+00 2.126e+00 -3.663e-03 -1.465e-02 -1.918e-02
5 1 3.897e+00 3.533e-01 3.549e-01 1.407e-03 -5.345e-04 1.337e-03
6 1 5.665e+00 2.123e+00 3.551e-01 1.696e-03 -1.383e-02 -1.666e-02
7 1 5.666e+00 3.513e-01 2.125e+00 -2.673e-03 -1.425e-02 -1.933e-02
8 1 3.895e+00 2.126e+00 2.124e+00 2.561e-03 -1.481e-02 -1.719e-02
9 1 7.434e+00 3.497e-01 3.572e-01 -6.177e-04 -1.516e-02 -2.186e-02
10 1 9.203e+00 2.124e+00 3.565e-01 -9.880e-04 -1.563e-02 -1.615e-02
11 1 9.203e+00 3.515e-01 2.127e+00 4.587e-03 -1.250e-02 -1.965e-02
12 1 7.435e+00 2.123e+00 2.121e+00 -4.383e-04 -2.571e-02 -1.392e-02
13 1 3.516e-01 3.895e+00 3.548e-01 2.435e-04 -1.518e-02 -1.522e-02
14 1 2.125e+00 3.895e+00 2.125e+00 4.832e-05 -1.825e-02 -1.927e-02
15 1 3.896e+00 3.894e+00 3.556e-01 2.469e-03 -1.686e-02 -1.526e-02
16 1 5.665e+00 3.894e+00 2.125e+00 8.421e-03 -9.581e-03 -1.825e-02
17 1 7.435e+00 3.897e+00 3.591e-01 -1.565e-03 -1.283e-02 -1.013e-02
18 1 9.202e+00 3.897e+00 2.127e+00 -9.136e-03 -1.003e-02 -1.791e-02
19 1 3.524e-01 3.507e-01 3.894e+00 -9.426e-04 -1.346e-03 5.597e-04
20 1 2.123e+00 2.122e+00 3.894e+00 4.666e-04 3.194e-04 -6.435e-04
21 1 3.897e+00 3.509e-01 3.894e+00 -7.674e-05 -2.788e-05 -1.184e-03
22 1 5.663e+00 2.123e+00 3.895e+00 4.204e-03 -1.552e-02 -1.903e-02
23 1 7.433e+00 3.616e-01 3.895e+00 -9.825e-04 -2.487e-02 -1.525e-02
24 1 9.206e+00 2.123e+00 3.893e+00 -5.150e-03 -1.438e-02 -1.798e-02
25 1 3.513e-01 3.899e+00 3.893e+00 6.414e-04 -1.746e-02 -1.933e-02
26 1 3.897e+00 3.899e+00 3.894e+00 -5.326e-04 -1.909e-02 -1.801e-02
27 1 7.433e+00 3.885e+00 3.895e+00 -3.390e-03 1.121e-03 -2.424e-02
28 1 2.125e+00 3.529e-01 5.663e+00 -3.292e-03 1.815e-03 3.077e-04
29 1 3.539e-01 2.123e+00 5.663e+00 2.809e-03 -1.432e-05 -8.284e-04
30 1 5.666e+00 3.525e-01 5.664e+00 -1.511e-03 -5.002e-04 -1.207e-03
31 1 3.894e+00 2.125e+00 5.664e+00 -8.520e-04 8.272e-04 4.915e-04
32 1 9.204e+00 3.516e-01 5.661e+00 -8.917e-04 -5.511e-04 -9.811e-04
33 1 7.434e+00 2.126e+00 5.667e+00 -1.536e-03 -1.334e-02 -1.974e-02
34 1 2.124e+00 3.894e+00 5.662e+00 -9.083e-04 5.597e-04 -3.706e-04
35 1 5.663e+00 3.897e+00 5.663e+00 -5.281e-04 -1.727e-02 -1.656e-02
36 1 9.202e+00 3.897e+00 5.662e+00 -3.954e-04 -1.694e-02 -1.685e-02
37 1 3.532e-01 3.543e-01 7.434e+00 -1.257e-05 -3.797e-04 -3.187e-04
38 1 2.124e+00 2.124e+00 7.435e+00 -1.797e-04 -5.839e-04 9.364e-04
39 1 2.122e+00 3.554e-01 9.204e+00 5.999e-04 1.185e-03 1.083e-03
40 1 3.552e-01 2.123e+00 9.205e+00 -1.246e-03 -6.893e-05 -8.295e-04
41 1 3.895e+00 3.535e-01 7.432e+00 8.382e-04 8.345e-04 4.485e-04
42 1 5.665e+00 2.125e+00 7.432e+00 2.845e-04 6.180e-04 6.489e-04
43 1 5.665e+00 3.534e-01 9.204e+00 -1.515e-03 1.225e-03 1.740e-03
44 1 3.894e+00 2.124e+00 9.204e+00 -1.736e-05 -1.068e-03 -1.109e-03
45 1 7.433e+00 3.511e-01 7.430e+00 3.642e-03 -1.342e-03 -2.320e-04
46 1 9.202e+00 2.123e+00 7.435e+00 2.864e-04 -7.051e-04 -4.588e-04
47 1 9.203e+00 3.541e-01 9.204e+00 5.412e-04 -2.906e-04 -1.031e-04
48 1 7.434e+00 2.124e+00 9.204e+00 -5.869e-04 -1.417e-02 -1.439e-02
49 1 3.526e-01 3.894e+00 7.433e+00 7.248e-04 1.595e-03 1.531e-04
50 1 2.124e+00 3.894e+00 9.203e+00 9.371e-04 5.830e-05 -2.870e-04
51 1 3.894e+00 3.895e+00 7.433e+00 1.142e-03 2.708e-05 1.160e-03
52 1 5.663e+00 3.893e+00 9.202e+00 1.214e-03 -1.854e-02 -1.500e-02
53 1 7.434e+00 3.897e+00 7.430e+00 8.818e-04 -2.118e-02 -1.255e-02
54 1 9.201e+00 3.897e+00 9.204e+00 -2.117e-03 -1.664e-02 -1.411e-02
55 1 2.125e+00 5.667e+00 3.557e-01 -2.520e-03 -1.676e-02 -1.867e-02
56 1 3.506e-01 5.666e+00 2.127e+00 1.167e-02 -1.881e-02 -1.928e-02
57 1 5.666e+00 5.666e+00 3.560e-01 7.610e-03 -1.848e-02 -8.636e-03
58 1 3.896e+00 5.665e+00 2.125e+00 -1.019e-02 -1.633e-02 -1.840e-02
59 1 9.200e+00 5.664e+00 3.567e-01 -6.095e-03 -1.743e-02 -1.088e-02
60 1 7.432e+00 5.674e+00 2.134e+00 4.064e-04 1.736e+00 1.736e+00
61 1 3.503e-01 7.433e+00 3.570e-01 1.163e-03 -2.015e-02 -1.862e-02
62 1 2.125e+00 9.204e+00 3.548e-01 -1.263e-03 4.777e-04 -3.585e-04
63 1 2.125e+00 7.434e+00 2.124e+00 2.065e-05 -1.681e-02 -1.359e-02
64 1 3.522e-01 9.203e+00 2.126e+00 2.410e-04 -1.751e-02 -1.996e-02
65 1 3.898e+00 7.433e+00 3.573e-01 7.545e-04 -1.877e-02 -1.965e-02
66 1 5.665e+00 9.201e+00 3.568e-01 4.135e-04 -1.669e-02 -1.720e-02
67 1 5.673e+00 7.433e+00 2.132e+00 -1.972e-05 -2.448e-02 -2.600e-02
68 1 3.899e+00 9.203e+00 2.125e+00 -5.326e-04 -2.038e-02 -1.766e-02
69 1 7.434e+00 7.435e+00 3.433e-01 -8.796e-05 -2.386e-02 1.065e-03
70 1 9.202e+00 9.202e+00 3.551e-01 7.362e-05 -1.802e-02 -1.871e-02
71 1 9.196e+00 7.433e+00 2.134e+00 -1.202e-03 -2.689e-02 -2.604e-02
72 1 7.434e+00 9.195e+00 2.132e+00 -8.191e-04 2.381e-03 -2.532e-02
73 1 2.124e+00 5.662e+00 3.894e+00 -1.504e-03 -1.363e-02 -1.433e-02
74 1 5.673e+00 5.673e+00 3.893e+00 -7.155e-04 -2.568e-02 -2.607e-02
75 1 9.196e+00 5.674e+00 3.894e+00 1.403e-03 -2.616e-02 -2.582e-02
76 1 3.646e-01 7.434e+00 3.893e+00 -1.250e-02 -1.753e-02 -1.931e-02
77 1 2.124e+00 9.205e+00 3.895e+00 1.469e-03 -9.756e-05 1.008e-03
78 1 3.886e+00 7.435e+00 3.895e+00 1.040e-02 -1.879e-02 -1.761e-02
79 1 5.671e+00 9.196e+00 3.894e+00 -7.189e-03 -9.267e-03 -1.721e-02
80 1 9.194e+00 9.195e+00 3.894e+00 7.808e-03 -8.987e-03 -1.726e-02
81 1 3.519e-01 5.666e+00 5.664e+00 6.564e-04 -1.865e-02 -1.972e-02
82 1 3.896e+00 5.664e+00 5.661e+00 1.249e-03 -1.907e-02 -1.877e-02
83 1 7.434e+00 5.673e+00 5.655e+00 -7.734e-04 -2.644e-02 1.985e-03
84 1 2.124e+00 7.431e+00 5.665e+00 4.005e-04 4.972e-04 1.675e-04
85 1 3.523e-01 9.202e+00 5.661e+00 3.530e-04 -6.586e-04 7.187e-04
86 1 5.672e+00 7.434e+00 5.656e+00 -7.746e-03 -1.877e-02 -1.018e-02
87 1 3.898e+00 9.201e+00 5.662e+00 -2.550e-03 -3.009e-04 6.701e-04
88 1 9.195e+00 7.434e+00 5.656e+00 9.037e-03 -1.823e-02 -9.392e-03
89 1 7.433e+00 9.196e+00 5.654e+00 1.295e-03 -9.628e-03 -1.079e-02
90 1 2.125e+00 5.665e+00 7.434e+00 -2.249e-04 -1.211e-03 1.806e-03
91 1 3.519e-01 5.664e+00 9.204e+00 -4.064e-03 -1.769e-02 -1.574e-02
92 1 5.666e+00 5.665e+00 7.431e+00 -3.726e-03 -1.622e-02 -1.449e-02
93 1 3.895e+00 5.666e+00 9.203e+00 3.298e-03 -1.705e-02 -1.390e-02
94 1 9.200e+00 5.665e+00 7.434e+00 2.646e-03 -1.732e-02 -1.397e-02
95 1 7.434e+00 5.664e+00 9.205e+00 5.032e-04 -1.381e-02 -2.582e-02
96 1 3.507e-01 7.435e+00 7.432e+00 6.737e-04 9.668e-04 -2.338e-04
97 1 2.125e+00 9.205e+00 7.432e+00 -8.031e-04 -1.226e-03 1.558e-03
98 1 2.123e+00 7.433e+00 9.205e+00 -6.524e-04 1.526e-03 -8.009e-04
99 1 3.535e-01 9.203e+00 9.204e+00 -2.999e-04 1.029e-03 5.295e-04
100 1 3.899e+00 7.434e+00 7.432e+00 1.599e-04 1.016e-03 -4.105e-04
101 1 5.666e+00 9.202e+00 7.432e+00 3.024e-03 -1.686e-03 3.363e-04
102 1 5.662e+00 7.435e+00 9.206e+00 2.837e-03 -1.910e-02 -1.206e-02
103 1 3.895e+00 9.202e+00 9.204e+00 3.391e-04 2.745e-03 -6.464e-04
104 1 7.434e+00 7.434e+00 7.443e+00 -7.670e-04 -1.352e-02 -2.529e-02
105 1 9.204e+00 9.202e+00 7.433e+00 7.870e-05 2.630e-03 1.162e-03
106 1 9.206e+00 7.436e+00 9.206e+00 -3.778e-03 -1.685e-02 -1.509e-02
107 1 7.434e+00 9.205e+00 9.202e+00 1.305e-03 -2.033e-02 -1.332e-02
ITEM: TIMESTEP
0
ITEM: NUMBER OF ATOMS
107
ITEM: BOX BOUNDS xy xz yz pp pp pp
                     0.00000000000000e+00 1.06000000000000e+01 0.00000000000000e+00
0.00000000000000e+00	1.06000000000000e+01	0.00000000000000e+00
0.00000000000000e+00	1.06000000000000e+01	0.00000000000000e+00
ITEM: ATOMS id type x y z DisplacementX DisplacementY DisplacementZ
1 1 3.547e-01 3.537e-01 3.544e-01 -1.492e-05 3.841e-04 5.490e-04
2 1 2.123e+00 2.122e+00 3.533e-01 -6.300e-04 1.506e-03 1.102e-03
3 1 2.123e+00 3.533e-01 2.125e+00 -1.338e-02 -2.397e-03 -1.813e-02
4 1 3.523e-01 2.124e+00 2.126e+00 8.342e-04 -8.249e-04 -4.364e-06
5 1 3.897e+00 3.533e-01 3.549e-01 -1.457e-02 -3.440e-03 -1.638e-02
6 1 5.665e+00 2.123e+00 3.551e-01 -1.678e-02 -1.282e-03 -1.819e-02
7 1 5.666e+00 3.513e-01 2.125e+00 -1.822e-02 1.122e-02 -1.785e-02
8 1 3.895e+00 2.126e+00 2.124e+00 -1.844e-02 5.333e-04 -1.662e-02
9 1 7.434e+00 3.497e-01 3.572e-01 -1.977e-02 -1.693e-03 -1.817e-02
10 1 9.203e+00 2.124e+00 3.565e-01 2.814e-04 8.949e-04 -1.314e-03
11 1 9.203e+00 3.515e-01 2.127e+00 -1.835e-02 -1.805e-03 -1.841e-02
12 1 7.435e+00 2.123e+00 2.121e+00 -1.592e-02 5.875e-04 -1.437e-02
13 1 3.516e-01 3.895e+00 3.548e-01 2.324e-04 6.438e-04 -5.398e-04
14 1 2.125e+00 3.895e+00 2.125e+00 -1.357e-02 5.420e-03 -1.740e-02
15 1 3.896e+00 3.894e+00 3.556e-01 -1.584e-02 2.116e-03 -1.514e-02
16 1 5.665e+00 3.894e+00 2.125e+00 -1.824e-02 -1.316e-02 -1.743e-02
17 1 7.435e+00 3.897e+00 3.591e-01 -1.823e-02 -4.313e-05 -1.985e-02
18 1 9.202e+00 3.897e+00 2.127e+00 -2.018e-02 1.134e-04 -1.914e-02
19 1 3.524e-01 3.507e-01 3.894e+00 8.383e-04 2.598e-05 4.771e-04
20 1 2.123e+00 2.122e+00 3.894e+00 1.518e-04 -1.497e-03 -3.464e-04
21 1 3.897e+00 3.509e-01 3.894e+00 -1.869e-02 1.288e-03 -1.881e-02
22 1 5.663e+00 2.123e+00 3.895e+00 -1.376e-02 3.780e-04 -1.295e-02
23 1 7.433e+00 3.616e-01 3.895e+00 -1.788e-02 -1.046e-02 -1.942e-02
24 1 9.206e+00 2.123e+00 3.893e+00 -1.352e-03 1.941e-04 -5.524e-04
25 1 3.513e-01 3.899e+00 3.893e+00 8.606e-04 9.504e-04 -1.641e-03
26 1 3.897e+00 3.899e+00 3.894e+00 -1.618e-02 1.790e-03 -1.952e-02
27 1 7.433e+00 3.885e+00 3.895e+00 -1.793e-02 1.292e-02 -2.073e-02
28 1 2.125e+00 3.529e-01 5.663e+00 -1.181e-03 -3.293e-04 -6.678e-04
29 1 3.539e-01 2.123e+00 5.663e+00 -9.591e-04 1.648e-04 3.918e-05
30 1 5.666e+00 3.525e-01 5.664e+00 -1.801e-02 -7.494e-04 -1.909e-02
31 1 3.894e+00 2.125e+00 5.664e+00 -1.595e-04 3.676e-04 -1.204e-03
32 1 9.204e+00 3.516e-01 5.661e+00 -2.841e-04 -1.292e-04 -3.035e-04
33 1 7.434e+00 2.126e+00 5.667e+00 9.675e-04 3.202e-04 -1.583e-03
34 1 2.124e+00 3.894e+00 5.662e+00 7.225e-04 4.763e-05 -1.219e-03
35 1 5.663e+00 3.897e+00 5.663e+00 -1.914e-02 4.171e-04 -1.941e-02
36 1 9.202e+00 3.897e+00 5.662e+00 1.700e-03 -1.608e-03 -4.580e-04
37 1 3.532e-01 3.543e-01 7.434e+00 4.249e-04 1.082e-03 7.062e-04
38 1 2.124e+00 2.124e+00 7.435e+00 4.018e-04 -2.390e-04 -7.795e-04
39 1 2.122e+00 3.554e-01 9.204e+00 -8.658e-04 -3.908e-04 2.612e-04
40 1 3.552e-01 2.123e+00 9.205e+00 -1.358e-03 1.125e-03 1.358e-04
41 1 3.895e+00 3.535e-01 7.432e+00 -2.069e-04 -1.183e-03 3.823e-04
42 1 5.665e+00 2.125e+00 7.432e+00 6.756e-04 -1.464e-04 -4.778e-04
43 1 5.665e+00 3.534e-01 9.204e+00 -1.791e-02 -3.099e-03 -1.320e-02
44 1 3.894e+00 2.124e+00 9.204e+00 -9.356e-04 -1.522e-03 1.260e-03
45 1 7.433e+00 3.511e-01 7.430e+00 1.235e-03 1.360e-03 -8.992e-04
46 1 9.202e+00 2.123e+00 7.435e+00 -6.361e-04 1.109e-04 -8.842e-04
47 1 9.203e+00 3.541e-01 9.204e+00 4.769e-04 -5.793e-04 9.528e-04
48 1 7.434e+00 2.124e+00 9.204e+00 -2.704e-04 4.375e-04 -8.086e-04
49 1 3.526e-01 3.894e+00 7.433e+00 -2.287e-04 6.600e-04 1.454e-04
50 1 2.124e+00 3.894e+00 9.203e+00 1.933e-03 -2.895e-04 2.724e-04
51 1 3.894e+00 3.895e+00 7.433e+00 -5.608e-04 -1.046e-04 1.834e-04
52 1 5.663e+00 3.893e+00 9.202e+00 -1.695e-02 2.199e-03 -1.392e-02
53 1 7.434e+00 3.897e+00 7.430e+00 1.347e-03 7.484e-04 -8.521e-04
54 1 9.201e+00 3.897e+00 9.204e+00 -5.842e-04 1.153e-03 8.959e-04
55 1 2.125e+00 5.667e+00 3.557e-01 -1.450e-02 1.068e-03 -1.565e-02
56 1 3.506e-01 5.666e+00 2.127e+00 -1.268e-02 -3.882e-03 -1.822e-02
57 1 5.666e+00 5.666e+00 3.560e-01 -1.786e-02 9.189e-03 -9.241e-03
58 1 3.896e+00 5.665e+00 2.125e+00 -1.065e-02 8.279e-03 -1.898e-02
59 1 9.200e+00 5.664e+00 3.567e-01 -1.739e-02 -7.872e-04 -1.823e-02
60 1 7.432e+00 5.674e+00 2.134e+00 -2.544e-02 1.219e-04 -2.619e-02
61 1 3.503e-01 7.433e+00 3.570e-01 -1.283e-02 -1.047e-04 -2.297e-02
62 1 2.125e+00 9.204e+00 3.548e-01 -1.471e-02 -1.067e-03 -1.599e-02
63 1 2.125e+00 7.434e+00 2.124e+00 -2.492e-02 -1.357e-03 -1.375e-02
64 1 3.522e-01 9.203e+00 2.126e+00 -1.410e-02 3.014e-03 -2.081e-02
65 1 3.898e+00 7.433e+00 3.573e-01 -9.637e-03 2.789e-04 -1.141e-02
66 1 5.665e+00 9.201e+00 3.568e-01 -1.911e-02 -9.025e-03 -9.805e-03
67 1 5.673e+00 7.433e+00 2.132e+00 1.733e+00 4.136e-04 1.735e+00
68 1 3.899e+00 9.203e+00 2.125e+00 -7.758e-03 -6.784e-03 -1.831e-02
69 1 7.434e+00 7.435e+00 3.433e-01 -2.397e-02 9.070e-04 1.455e-04
70 1 9.202e+00 9.202e+00 3.551e-01 -1.776e-02 2.779e-04 -1.628e-02
71 1 9.196e+00 7.433e+00 2.134e+00 8.126e-04 5.379e-06 -2.569e-02
72 1 7.434e+00 9.195e+00 2.132e+00 -2.520e-02 -1.318e-03 -2.619e-02
73 1 2.124e+00 5.662e+00 3.894e+00 -1.349e-02 2.870e-03 -1.835e-02
74 1 5.673e+00 5.673e+00 3.893e+00 -2.595e-02 -1.006e-04 -2.425e-02
75 1 9.196e+00 5.674e+00 3.894e+00 -8.987e-03 -7.465e-03 -1.728e-02
76 1 3.646e-01 7.434e+00 3.893e+00 -2.602e-02 -6.170e-04 -1.518e-02
77 1 2.124e+00 9.205e+00 3.895e+00 -1.462e-02 -2.907e-03 -1.722e-02
78 1 3.886e+00 7.435e+00 3.895e+00 1.610e-03 1.134e-04 -2.556e-02
79 1 5.671e+00 9.196e+00 3.894e+00 -2.435e-02 -9.244e-04 -2.367e-02
80 1 9.194e+00 9.195e+00 3.894e+00 -1.007e-02 5.015e-03 -1.644e-02
81 1 3.519e-01 5.666e+00 5.664e+00 -5.307e-04 -1.204e-03 4.002e-04
82 1 3.896e+00 5.664e+00 5.661e+00 -1.684e-02 -9.445e-04 -1.693e-02
83 1 7.434e+00 5.673e+00 5.655e+00 -1.832e-02 -7.620e-03 -1.166e-02
84 1 2.124e+00 7.431e+00 5.665e+00 -1.401e-02 1.869e-03 -2.126e-02
85 1 3.523e-01 9.202e+00 5.661e+00 8.501e-05 1.455e-03 -8.863e-05
86 1 5.672e+00 7.434e+00 5.656e+00 -2.442e-02 2.285e-04 2.121e-03
87 1 3.898e+00 9.201e+00 5.662e+00 -1.800e-02 -2.605e-05 -1.940e-02
88 1 9.195e+00 7.434e+00 5.656e+00 -1.079e-02 -2.375e-04 -9.228e-03
89 1 7.433e+00 9.196e+00 5.654e+00 -1.819e-02 7.381e-03 -1.001e-02
90 1 2.125e+00 5.665e+00 7.434e+00 -4.103e-04 1.389e-03 1.036e-03
91 1 3.519e-01 5.664e+00 9.204e+00 4.142e-04 -4.466e-04 1.687e-03
92 1 5.666e+00 5.665e+00 7.431e+00 -1.874e-02 -4.403e-03 -1.350e-02
93 1 3.895e+00 5.666e+00 9.203e+00 -1.601e-02 2.356e-03 -1.514e-02
94 1 9.200e+00 5.665e+00 7.434e+00 7.933e-04 6.601e-04 8.914e-04
95 1 7.434e+00 5.664e+00 9.205e+00 -1.858e-02 2.902e-03 -1.468e-02
96 1 3.507e-01 7.435e+00 7.432e+00 -5.652e-04 -6.383e-04 -1.408e-03
97 1 2.125e+00 9.205e+00 7.432e+00 4.591e-04 2.023e-03 1.025e-03
98 1 2.123e+00 7.433e+00 9.205e+00 -1.512e-02 1.064e-03 -1.422e-02
99 1 3.535e-01 9.203e+00 9.204e+00 -1.565e-03 -1.842e-04 -4.128e-04
100 1 3.899e+00 7.434e+00 7.432e+00 -2.221e-02 4.303e-04 -1.269e-02
101 1 5.666e+00 9.202e+00 7.432e+00 -1.656e-02 3.109e-03 -1.344e-02
102 1 5.662e+00 7.435e+00 9.206e+00 -1.528e-02 1.321e-03 -2.581e-02
103 1 3.895e+00 9.202e+00 9.204e+00 -1.673e-02 -1.755e-03 -1.368e-02
104 1 7.434e+00 7.434e+00 7.443e+00 -1.281e-02 -2.543e-03 -2.787e-02
105 1 9.204e+00 9.202e+00 7.433e+00 -1.784e-03 -2.745e-04 2.613e-04
106 1 9.206e+00 7.436e+00 9.206e+00 -2.174e-02 -4.766e-04 -1.212e-02
107 1 7.434e+00 9.205e+00 9.202e+00 -1.861e-02 -4.156e-03 -1.353e-02
ITEM: TIMESTEP
0
ITEM: NUMBER OF ATOMS
107
ITEM: BOX BOUNDS xy xz yz pp pp pp
                     0.00000000000000e+00 1.06000000000000e+01 0.00000000000000e+00
0.00000000000000e+00	1.06000000000000e+01	0.00000000000000e+00
0.00000000000000e+00	1.06000000000000e+01	0.00000000000000e+00
ITEM: ATOMS id type x y z DisplacementX DisplacementY DisplacementZ
1 1 3.547e-01 3.537e-01 3.544e-01 1.679e-02 -1.661e-03 -1.471e-02
2 1 2.123e+00 2.122e+00 3.533e-01 -1.831e-03 8.372e-04 -7.959e-04
3 1 2.123e+00 3.533e-01 2.125e+00 1.343e-02 -2.820e-03 -1.939e-02
4 1 3.523e-01 2.124e+00 2.126e+00 1.971e-02 -1.596e-03 -1.736e-02
5 1 3.897e+00 3.533e-01 3.549e-01 1.215e-03 4.323e-04 -2.297e-04
6 1 5.665e+00 2.123e+00 3.551e-01 2.147e-03 -6.961e-04 -6.380e-04
7 1 5.666e+00 3.513e-01 2.125e+00 1.933e-02 -4.819e-04 -1.888e-02
8 1 3.895e+00 2.126e+00 2.124e+00 7.882e-04 -5.250e-04 -2.630e-04
9 1 7.434e+00 3.497e-01 3.572e-01 1.655e-02 1.879e-03 -1.967e-02
10 1 9.203e+00 2.124e+00 3.565e-01 1.576e-02 1.732e-03 -1.788e-02
11 1 9.203e+00 3.515e-01 2.127e+00 1.721e-02 9.882e-03 -1.724e-02
12 1 7.435e+00 2.123e+00 2.121e+00 1.233e-02 -3.178e-04 -1.485e-02
13 1 3.516e-01 3.895e+00 3.548e-01 1.522e-02 4.020e-04 -1.560e-02
14 1 2.125e+00 3.895e+00 2.125e+00 1.437e-02 2.623e-03 -1.650e-02
15 1 3.896e+00 3.894e+00 3.556e-01 -2.799e-04 -1.488e-04 -8.306e-04
16 1 5.665e+00 3.894e+00 2.125e+00 1.812e-02 2.580e-03 -1.998e-02
17 1 7.435e+00 3.897e+00 3.591e-01 1.702e-02 -2.292e-04 -1.901e-02
18 1 9.202e+00 3.897e+00 2.127e+00 1.827e-02 -1.169e-02 -1.747e-02
19 1 3.524e-01 3.507e-01 3.894e+00 1.764e-02 6.230e-04 -1.849e-02
20 1 2.123e+00 2.122e+00 3.894e+00 1.955e-03 1.972e-04 -2.515e-04
21 1 3.897e+00 3.509e-01 3.894e+00 1.398e-04 -1.920e-04 7.161e-05
22 1 5.663e+00 2.123e+00 3.895e+00 2.058e-03 8.500e-04 -5.910e-06
23 1 7.433e+00 3.616e-01 3.895e+00 1.902e-02 -1.287e-02 -1.837e-02
24 1 9.206e+00 2.123e+00 3.893e+00 1.585e-02 7.691e-05 -1.452e-02
25 1 3.513e-01 3.899e+00 3.893e+00 1.895e-02 3.583e-04 -1.847e-02
26 1 3.897e+00 3.899e+00 3.894e+00 -7.033e-04 -1.402e-03 3.064e-04
27 1 7.433e+00 3.885e+00 3.895e+00 1.887e-02 1.125e-02 -2.028e-02
28 1 2.125e+00 3.529e-01 5.663e+00 -1.599e-03 -5.778e-04 1.246e-03
29 1 3.539e-01 2.123e+00 5.663e+00 -5.281e-04 -6.510e-05 -8.654e-04
30 1 5.666e+00 3.525e-01 5.664e+00 9.717e-04 -2.751e-04 3.678e-04
31 1 3.894e+00 2.125e+00 5.664e+00 5.415e-07 -2.798e-04 1.364e-04
32 1 9.204e+00 3.516e-01 5.661e+00 1.749e-02 -2.229e-03 -1.789e-02
33 1 7.434e+00 2.126e+00 5.667e+00 -7.720e-04 -6.040e-05 -1.229e-03
34 1 2.124e+00 3.894e+00 5.662e+00 8.888e-04 1.461e-03 1.342e-03
35 1 5.663e+00 3.897e+00 5.663e+00 -6.817e-04 -1.281e-03 -4.374e-04
36 1 9.202e+00 3.897e+00 5.662e+00 1.714e-02 2.263e-03 -1.888e-02
37 1 3.532e-01 3.543e-01 7.434e+00 8.240e-04 8.520e-04 4.023e-04
38 1 2.124e+00 2.124e+00 7.435e+00 1.036e-03 -1.868e-04 3.459e-04
39 1 2.122e+00 3.554e-01 9.204e+00 6.270e-04 4.411e-04 1.103e-04
40 1 3.552e-01 2.123e+00 9.205e+00 4.891e-04 -1.841e-03 -1.143e-04
41 1 3.895e+00 3.535e-01 7.432e+00 -1.440e-03 1.281e-03 5.843e-04
42 1 5.665e+00 2.125e+00 7.432e+00 -9.594e-04 -9.101e-04 3.927e-04
43 1 5.665e+00 3.534e-01 9.204e+00 2.112e-04 -8.305e-04 -1.456e-03
44 1 3.894e+00 2.124e+00 9.204e+00 1.666e-05 1.142e-03 7.942e-04
45 1 7.433e+00 3.511e-01 7.430e+00 -1.031e-03 4.524e-04 1.411e-04
46 1 9.202e+00 2.123e+00 7.435e+00 2.637e-04 7.430e-05 -8.890e-04
47 1 9.203e+00 3.541e-01 9.204e+00 1.737e-02 -4.271e-03 -1.270e-02
48 1 7.434e+00 2.124e+00 9.204e+00 -1.792e-03 -1.750e-04 5.234e-04
49 1 3.526e-01 3.894e+00 7.433e+00 -1.122e-03 -1.429e-03 1.155e-03
50 1 2.124e+00 3.894e+00 9.203e+00 -2.213e-03 1.175e-04 1.355e-04
51 1 3.894e+00 3.895e+00 7.433e+00 1.421e-03 -7.204e-04 2.122e-04
52 1 5.663e+00 3.893e+00 9.202e+00 -4.439e-04 3.995e-04 -9.872e-04
53 1 7.434e+00 3.897e+00 7.430e+00 -7.639e-04 1.243e-04 6.928e-04
54 1 9.201e+00 3.897e+00 9.204e+00 1.750e-02 3.209e-03 -1.441e-02
55 1 2.125e+00 5.667e+00 3.557e-01 1.540e-02 2.153e-03 -1.390e-02
56 1 3.506e-01 5.666e+00 2.127e+00 9.197e-03 8.834e-03 -1.603e-02
57 1 5.666e+00 5.666e+00 3.560e-01 1.715e-02 -1.256e-03 -1.932e-02
58 1 3.896e+00 5.665e+00 2.125e+00 1.336e-02 -3.150e-03 -1.953e-02
59 1 9.200e+00 5.664e+00 3.567e-01 1.773e-02 9.448e-03 -1.070e-02
60 1 7.432e+00 5.674e+00 2.134e+00 2.573e-02 -1.443e-03 -2.654e-02
61 1 3.503e-01 7.433e+00 3.570e-01 1.177e-02 -2.052e-03 -1.221e-02
62 1 2.125e+00 9.204e+00 3.548e-01 1.446e-02 -5.628e-05 -1.671e-02
63 1 2.125e+00 7.434e+00 2.124e+00 2.448e-02 -1.555e-03 -1.461e-02
64 1 3.522e-01 9.203e+00 2.126e+00 1.074e-02 -7.411e-03 -1.634e-02
65 1 3.898e+00 7.433e+00 3.573e-01 1.340e-02 3.583e-04 -2.287e-02
66 1 5.665e+00 9.201e+00 3.568e-01 1.755e-02 -8.873e-04 -1.616e-02
67 1 5.673e+00 7.433e+00 2.132e+00 -2.136e-03 8.047e-04 -2.431e-02
68 1 3.899e+00 9.203e+00 2.125e+00 1.597e-02 2.208e-03 -1.831e-02
69 1 7.434e+00 7.435e+00 3.433e-01 2.516e-02 1.379e-03 1.762e-03
70 1 9.202e+00 9.202e+00 3.551e-01 1.961e-02 -7.703e-03 -8.468e-03
71 1 9.196e+00 7.433e+00 2.134e+00 -1.734e+00 -7.868e-04 1.735e+00
72 1 7.434e+00 9.195e+00 2.132e+00 2.625e-02 1.366e-03 -2.563e-02
73 1 2.124e+00 5.662e+00 3.894e+00 1.570e-02 4.403e-03 -1.814e-02
74 1 5.673e+00 5.673e+00 3.893e+00 9.226e-03 -8.206e-03 -1.920e-02
75 1 9.196e+00 5.674e+00 3.894e+00 2.666e-02 6.564e-04 -2.659e-02
76 1 3.646e-01 7.434e+00 3.893e+00 -2.081e-03 5.164e-04 -2.605e-02
77 1 2.124e+00 9.205e+00 3.895e+00 1.421e-02 -2.091e-03 -1.856e-02
78 1 3.886e+00 7.435e+00 3.895e+00 2.494e-02 2.953e-04 -1.466e-02
79 1 5.671e+00 9.196e+00 3.894e+00 1.018e-02 7.022e-03 -1.760e-02
80 1 9.194e+00 9.195e+00 3.894e+00 2.616e-02 4.970e-04 -2.661e-02
81 1 3.519e-01 5.666e+00 5.664e+00 1.614e-02 1.205e-04 -1.887e-02
82 1 3.896e+00 5.664e+00 5.661e+00 1.093e-03 -8.193e-04 -9.538e-04
83 1 7.434e+00 5.673e+00 5.655e+00 1.725e-02 -8.423e-03 -9.754e-03
84 1 2.124e+00 7.431e+00 5.665e+00 1.433e-02 8.984e-04 -2.181e-02
85 1 3.523e-01 9.202e+00 5.661e+00 1.760e-02 1.679e-03 -1.625e-02
86 1 5.672e+00 7.434e+00 5.656e+00 1.107e-02 -1.603e-03 -1.045e-02
87 1 3.898e+00 9.201e+00 5.662e+00 -2.125e-04 1.898e-03 -7.878e-04
88 1 9.195e+00 7.434e+00 5.656e+00 2.535e-02 -7.719e-05 2.233e-03
89 1 7.433e+00 9.196e+00 5.654e+00 1.799e-02 7.070e-03 -1.145e-02
90 1 2.125e+00 5.665e+00 7.434e+00 -3.921e-05 -1.322e-03 -1.940e-04
91 1 3.519e-01 5.664e+00 9.204e+00 1.685e-02 1.678e-03 -1.601e-02
92 1 5.666e+00 5.665e+00 7.431e+00 -3.045e-05 1.607e-03 3.205e-05
93 1 3.895e+00 5.666e+00 9.203e+00 -1.279e-03 -1.432e-03 5.357e-04
94 1 9.200e+00 5.665e+00 7.434e+00 1.858e-02 -4.184e-03 -1.393e-02
95 1 7.434e+00 5.664e+00 9.205e+00 1.620e-02 3.293e-03 -1.458e-02
96 1 3.507e-01 7.435e+00 7.432e+00 2.342e-02 4.133e-04 -1.421e-02
97 1 2.125e+00 9.205e+00 7.432e+00 -1.283e-03 -3.721e-04 1.746e-03
98 1 2.123e+00 7.433e+00 9.205e+00 1.351e-02 3.133e-05 -1.320e-02
99 1 3.535e-01 9.203e+00 9.204e+00 1.587e-02 7.860e-04 -1.439e-02
100 1 3.899e+00 7.434e+00 7.432e+00 -4.682e-04 -5.173e-04 4.602e-04
101 1 5.666e+00 9.202e+00 7.432e+00 -1.506e-03 7.275e-04 -9.003e-04
102 1 5.662e+00 7.435e+00 9.206e+00 2.213e-02 -1.292e-03 -1.328e-02
103 1 3.895e+00 9.202e+00 9.204e+00 4.070e-04 4.040e-04 8.219e-04
104 1 7.434e+00 7.434e+00 7.443e+00 1.542e-02 -4.269e-04 -2.698e-02
105 1 9.204e+00 9.202e+00 7.433e+00 1.851e-02 3.919e-03 -1.439e-02
106 1 9.206e+00 7.436e+00 9.206e+00 1.575e-02 1.526e-03 -2.332e-02
107 1 7.434e+00 9.205e+00 9.202e+00 1.819e-02 -3.612e-03 -1.485e-02
ITEM: TIMESTEP
0
ITEM: NUMBER OF ATOMS
107
ITEM: BOX BOUNDS xy xz yz pp pp pp
                     0.00000000000000e+00 1.06000000000000e+01 0.00000000000000e+00
0.00000000000000e+00	1.06000000000000e+01	0.00000000000000e+00
0.00000000000000e+00	1.06000000000000e+01	0.00000000000000e+00
ITEM: ATOMS id type x y z DisplacementX DisplacementY DisplacementZ
1 1 3.547e-01 3.537e-01 3.544e-01 -3.470e-03 1.611e-02 -1.573e-02
2 1 2.123e+00 2.122e+00 3.533e-01 1.009e-03 1.735e-03 1.856e-03
3 1 2.123e+00 3.533e-01 2.125e+00 -2.595e-04 1.798e-02 -1.667e-02
4 1 3.523e-01 2.124e+00 2.126e+00 -4.624e-03 1.272e-02 -1.719e-02
5 1 3.897e+00 3.533e-01 3.549e-01 2.121e-03 1.443e-02 -1.333e-02
6 1 5.665e+00 2.123e+00 3.551e-01 1.357e-03 1.486e-02 -1.457e-02
7 1 5.666e+00 3.513e-01 2.125e+00 8.605e-03 8.182e-03 -2.009e-02
8 1 3.895e+00 2.126e+00 2.124e+00 2.186e-03 1.314e-02 -1.720e-02
9 1 7.434e+00 3.497e-01 3.572e-01 -4.842e-04 9.990e-03 -9.063e-03
10 1 9.203e+00 2.124e+00 3.565e-01 1.078e-04 1.336e-02 -1.478e-02
11 1 9.203e+00 3.515e-01 2.127e+00 -7.097e-03 9.566e-03 -1.763e-02
12 1 7.435e+00 2.123e+00 2.121e+00 -2.236e-03 2.528e-02 -1.578e-02
13 1 3.516e-01 3.895e+00 3.548e-01 -1.957e-03 3.883e-04 -2.688e-03
14 1 2.125e+00 3.895e+00 2.125e+00 -8.378e-04 -5.608e-04 -8.307e-04
15 1 3.896e+00 3.894e+00 3.556e-01 -8.965e-04 2.517e-03 -1.895e-03
16 1 5.665e+00 3.894e+00 2.125e+00 -2.789e-03 1.286e-02 -2.028e-02
17 1 7.435e+00 3.897e+00 3.591e-01 -1.619e-03 1.339e-02 -2.186e-02
18 1 9.202e+00 3.897e+00 2.127e+00 2.516e-03 1.293e-02 -1.836e-02
19 1 3.524e-01 3.507e-01 3.894e+00 1.728e-03 2.000e-02 -1.689e-02
20 1 2.123e+00 2.122e+00 3.894e+00 6.456e-05 -1.497e-03 1.506e-03
21 1 3.897e+00 3.509e-01 3.894e+00 -6.596e-05 1.768e-02 -1.881e-02
22 1 5.663e+00 2.123e+00 3.895e+00 3.913e-03 1.484e-02 -1.861e-02
23 1 7.433e+00 3.616e-01 3.895e+00 3.221e-04 -1.793e-03 -2.411e-02
24 1 9.206e+00 2.123e+00 3.893e+00 -3.950e-03 1.494e-02 -1.780e-02
25 1 3.513e-01 3.899e+00 3.893e+00 -4.569e-04 -9.999e-04 2.783e-04
26 1 3.897e+00 3.899e+00 3.894e+00 -1.490e-03 -5.105e-04 1.222e-03
27 1 7.433e+00 3.885e+00 3.895e+00 -2.695e-03 2.448e-02 -1.693e-02
28 1 2.125e+00 3.529e-01 5.663e+00 -1.402e-03 5.093e-04 1.347e-03
29 1 3.539e-01 2.123e+00 5.663e+00 -3.416e-03 -9.149e-04 -7.941e-05
30 1 5.666e+00 3.525e-01 5.664e+00 -8.169e-04 1.625e-02 -1.767e-02
31 1 3.894e+00 2.125e+00 5.664e+00 -1.110e-03 -3.350e-04 -6.338e-04
32 1 9.204e+00 3.516e-01 5.661e+00 -1.079e-03 1.619e-02 -1.597e-02
33 1 7.434e+00 2.126e+00 5.667e+00 8.266e-04 1.265e-02 -2.084e-02
34 1 2.124e+00 3.894e+00 5.662e+00 4.278e-04 2.676e-04 -7.565e-04
35 1 5.663e+00 3.897e+00 5.663e+00 1.051e-03 -1.321e-03 -2.184e-04
36 1 9.202e+00 3.897e+00 5.662e+00 -3.442e-04 -1.021e-03 -3.275e-04
37 1 3.532e-01 3.543e-01 7.434e+00 7.248e-04 1.275e-03 2.680e-03
38 1 2.124e+00 2.124e+00 7.435e+00 -3.589e-04 1.685e-03 -1.693e-03
39 1 2.122e+00 3.554e-01 9.204e+00 -1.467e-03 9.394e-04 -1.390e-03
40 1 3.552e-01 2.123e+00 9.205e+00 -1.586e-03 2.844e-06 1.091e-04
41 1 3.895e+00 3.535e-01 7.432e+00 1.059e-03 -3.182e-04 1.023e-03
42 1 5.665e+00 2.125e+00 7.432e+00 -2.327e-03 1.221e-03 -3.107e-04
43 1 5.665e+00 3.534e-01 9.204e+00 2.592e-03 1.554e-02 -1.500e-02
44 1 3.894e+00 2.124e+00 9.204e+00 -1.675e-03 9.031e-04 8.342e-04
45 1 7.433e+00 3.511e-01 7.430e+00 -3.137e-05 2.304e-02 -1.483e-02
46 1 9.202e+00 2.123e+00 7.435e+00 -7.395e-06 -3.351e-04 3.462e-04
47 1 9.203e+00 3.541e-01 9.204e+00 -7.286e-04 1.748e-02 -1.322e-02
48 1 7.434e+00 2.124e+00 9.204e+00 1.119e-03 1.430e-02 -1.397e-02
49 1 3.526e-01 3.894e+00 7.433e+00 -9.256e-04 2.282e-03 -3.165e-04
50 1 2.124e+00 3.894e+00 9.203e+00 4.757e-04 -2.152e-03 1.258e-03
51 1 3.894e+00 3.895e+00 7.433e+00 4.134e-04 -2.447e-04 3.783e-04
52 1 5.663e+00 3.893e+00 9.202e+00 -2.241e-05 -1.130e-03 6.980e-04
53 1 7.434e+00 3.897e+00 7.430e+00 1.056e-03 1.574e-03 -6.681e-04
54 1 9.201e+00 3.897e+00 9.204e+00 -5.669e-05 -2.219e-03 -2.028e-04
55 1 2.125e+00 5.667e+00 3.557e-01 -3.220e-04 -5.376e-04 1.584e-04
56 1 3.506e-01 5.666e+00 2.127e+00 -1.051e-03 1.694e-02 -1.846e-02
57 1 5.666e+00 5.666e+00 3.560e-01 9.574e-04 1.828e-02 -1.653e-02
58 1 3.896e+00 5.665e+00 2.125e+00 4.551e-04 1.679e-02 -1.800e-02
59 1 9.200e+00 5.664e+00 3.567e-01 1.346e-03 1.671e-02 -1.777e-02
60 1 7.432e+00 5.674e+00 2.134e+00 -1.408e-03 -6.718e-04 -2.624e-02
61 1 3.503e-01 7.433e+00 3.570e-01 8.726e-05 1.697e-02 -1.894e-02
62 1 2.125e+00 9.204e+00 3.548e-01 6.015e-04 1.866e-02 -1.930e-02
63 1 2.125e+00 7.434e+00 2.124e+00 1.259e-03 1.500e-02 -1.711e-02
64 1 3.522e-01 9.203e+00 2.126e+00 8.816e-03 1.985e-02 -1.857e-02
65 1 3.898e+00 7.433e+00 3.573e-01 1.484e-04 1.728e-02 -1.848e-02
66 1 5.665e+00 9.201e+00 3.568e-01 8.530e-03 1.796e-02 -1.015e-02
67 1 5.673e+00 7.433e+00 2.132e+00 -1.438e-03 2.494e-02 -2.508e-02
68 1 3.899e+00 9.203e+00 2.125e+00 -1.124e-02 1.914e-02 -1.915e-02
69 1 7.434e+00 7.435e+00 3.433e-01 -7.583e-04 2.614e-02 1.084e-03
70 1 9.202e+00 9.202e+00 3.551e-01 -9.989e-03 1.784e-02 -1.300e-02
71 1 9.196e+00 7.433e+00 2.134e+00 1.426e-03 2.420e-02 -2.676e-02
72 1 7.434e+00 9.195e+00 2.132e+00 -1.244e-03 -1.736e+00 1.735e+00
73 1 2.124e+00 5.662e+00 3.894e+00 8.890e-04 8.277e-04 -1.805e-03
74 1 5.673e+00 5.673e+00 3.893e+00 -6.518e-03 8.974e-03 -1.734e-02
75 1 9.196e+00 5.674e+00 3.894e+00 8.086e-03 8.687e-03 -1.807e-02
76 1 3.646e-01 7.434e+00 3.893e+00 -1.311e-02 1.760e-02 -1.910e-02
77 1 2.124e+00 9.205e+00 3.895e+00 1.423e-03 1.500e-02 -1.527e-02
78 1 3.886e+00 7.435e+00 3.895e+00 1.239e-02 1.932e-02 -1.922e-02
79 1 5.671e+00 9.196e+00 3.894e+00 1.810e-04 2.535e-02 -2.361e-02
80 1 9.194e+00 9.195e+00 3.894e+00 1.132e-04 2.575e-02 -2.566e-02
81 1 3.519e-01 5.666e+00 5.664e+00 5.733e-04 -2.579e-04 6.005e-04
82 1 3.896e+00 5.664e+00 5.661e+00 1.049e-03 -1.694e-03 1.030e-03
83 1 7.434e+00 5.673e+00 5.655e+00 5.689e-04 1.047e-02 -9.764e-03
84 1 2.124e+00 7.431e+00 5.665e+00 5.694e-04 8.290e-04 3.547e-04
85 1 3.523e-01 9.202e+00 5.661e+00 -4.928e-04 1.711e-02 -1.885e-02
86 1 5.672e+00 7.434e+00 5.656e+00 -6.328e-03 1.856e-02 -1.047e-02
87 1 3.898e+00 9.201e+00 5.662e+00 1.022e-03 1.811e-02 -1.881e-02
88 1 9.195e+00 7.434e+00 5.656e+00 7.722e-03 1.687e-02 -8.685e-03
89 1 7.433e+00 9.196e+00 5.654e+00 8.076e-04 2.581e-02 1.649e-04
90 1 2.125e+00 5.665e+00 7.434e+00 -2.970e-04 -7.338e-04 3.253e-04
91 1 3.519e-01 5.664e+00 9.204e+00 -3.357e-04 -7.128e-04 7.351e-04
92 1 5.666e+00 5.665e+00 7.431e+00 2.390e-05 -1.888e-03 2.022e-03
93 1 3.895e+00 5.666e+00 9.203e+00 1.584e-03 -2.593e-04 -1.059e-03
94 1 9.200e+00 5.665e+00 7.434e+00 1.470e-04 -1.330e-03 -3.556e-04
95 1 7.434e+00 5.664e+00 9.205e+00 8.399e-06 2.090e-02 -1.328e-02
96 1 3.507e-01 7.435e+00 7.432e+00 -1.333e-04 -1.621e-04 -1.859e-03
97 1 2.125e+00 9.205e+00 7.432e+00 -5.659e-04 -2.598e-04 -3.099e-04
98 1 2.123e+00 7.433e+00 9.205e+00 7.275e-04 -2.329e-04 5.349e-04
99 1 3.535e-01 9.203e+00 9.204e+00 -3.514e-03 1.604e-02 -1.464e-02
100 1 3.899e+00 7.434e+00 7.432e+00 -6.530e-04 1.331e-03 5.617e-04
101 1 5.666e+00 9.202e+00 7.432e+00 -5.128e-03 1.764e-02 -1.537e-02
102 1 5.662e+00 7.435e+00 9.206e+00 2.789e-03 1.909e-02 -1.310e-02
103 1 3.895e+00 9.202e+00 9.204e+00 2.483e-03 1.666e-02 -1.407e-02
104 1 7.434e+00 7.434e+00 7.443e+00 -9.405e-04 1.581e-02 -2.451e-02
105 1 9.204e+00 9.202e+00 7.433e+00 2.823e-03 1.910e-02 -1.410e-02
106 1 9.206e+00 7.436e+00 9.206e+00 -3.293e-03 1.734e-02 -1.445e-02
107 1 7.434e+00 9.205e+00 9.202e+00 2.327e-04 1.532e-02 -2.424e-02