ITEM: TIMESTEP
0
ITEM: NUMBER OF ATOMS
4
ITEM: BOX BOUNDS xy xz yz pp pp pp
                     -5.00000000000000e-01 5.00000000000000e-01 0.00000000000000e+00
-5.00000000000000e-01	5.00000000000000e-01	0.00000000000000e+00
-5.00000000000000e-01	5.00000000000000e-01	0.00000000000000e+00
ITEM: ATOMS id type x y z DisplacementX DisplacementY DisplacementZ
1 1 -1.000e-01 0.000e+00 0.000e+00 2.301e-04 2.058e-03 -9.546e-04
2 1 0.000e+00 0.000e+00 0.000e+00 1.179e-03 -9.903e-02 -3.577e-04
3 1 1.000e-01 0.000e+00 0.000e+00 -1.608e-03 1.015e-03 -1.211e-04
4 1 0.000e+00 1.000e-01 0.000e+00 2.908e-04 1.414e-04 1.561e-04
ITEM: TIMESTEP
0
ITEM: NUMBER OF ATOMS
4
ITEM: BOX BOUNDS xy xz yz pp pp pp
                     -5.00000000000000e-01 5.00000000000000e-01 0.00000000000000e+00
-5.00000000000000e-01	5.00000000000000e-01	0.00000000000000e+00
-5.00000000000000e-01	5.00000000000000e-01	0.00000000000000e+00
ITEM: ATOMS id type x y z DisplacementX DisplacementY DisplacementZ
5 1 -1.000e-01 0.000e+00 0.000e+00 1.161e-03 -4.767e-04 -2.849e-04
6 1 1.000e-01 0.000e+00 0.000e+00 7.558e-04 5.887e-04 1.335e-03
7 1 0.000e+00 0.000e+00 0.000e+00 -9.552e-04 9.971e-02 -1.544e-03
8 1 0.000e+00 -1.000e-01 0.000e+00 1.194e-03 1.299e-04 4.962e-04
ITEM: TIMESTEP
0
ITEM: NUMBER OF ATOMS
4
ITEM: BOX BOUNDS xy xz yz pp pp pp
                     -5.00000000000000e-01 5.00000000000000e-01 0.00000000000000e+00
-5.00000000000000e-01	5.00000000000000e-01	0.00000000000000e+00
-5.00000000000000e-01	5.00000000000000e-01	0.00000000000000e+00
ITEM: ATOMS id type x y z DisplacementX DisplacementY DisplacementZ
9 1 -1.000e-01 0.000e+00 0.000e+00 1.475e-03 -5.388e-04 2.979e-03
10 1 0.000e+00 -1.000e-01 0.000e+00 2.668e-04 8.613e-04 7.870e-04
11 1 0.000e+00 1.000e-01 0.000e+00 6.781e-04 3.539e-04 -6.548e-04
12 1 0.000e+00 0.000e+00 0.000e+00 9.941e-02 -4.635e-04 6.837e-04
ITEM: TIMESTEP
0
ITEM: NUMBER OF ATOMS
4
ITEM: BOX BOUNDS xy xz yz pp pp pp
                     -5.00000000000000e-01 5.00000000000000e-01 0.00000000000000e+00
-5.00000000000000e-01	5.00000000000000e-01	0.00000000000000e+00
-5.00000000000000e-01	5.00000000000000e-01	0.00000000000000e+00
ITEM: ATOMS id type x y z DisplacementX DisplacementY DisplacementZ
13 1 0.000e+00 -1.000e-01 0.000e+00 -9.071e-04 1.265e-03 3.923e-04
14 1 0.000e+00 1.000e-01 0.000e+00 -1.986e-03 7.645e-04 9.114e-05
15 1 1.000e-01 0.000e+00 0.000e+00 2.651e-04 1.176e-03 -1.647e-04
16 1 0.000e+00 0.000e+00 0.000e+00 -1.009e-01 3.774e-04 -1.378e-03
ITEM: TIMESTEP
0
ITEM: NUMBER OF ATOMS
4
ITEM: BOX BOUNDS xy xz yz pp pp pp
                     -5.00000000000000e-01 5.00000000000000e-01 0.00000000000000e+00
-5.00000000000000e-01	5.00000000000000e-01	0.00000000000000e+00
-5.00000000000000e-01	5.00000000000000e-01	0.00000000000000e+00
ITEM: ATOMS id type x y z DisplacementX DisplacementY DisplacementZ
17 1 0.000e+00 0.000e+00 0.000e+00 -7.360e-06 9.909e-02 -4.905e-04
18 1 -1.000e-01 0.000e+00 0.000e+00 1.338e-03 1.527e-04 1.246e-03
19 1 0.000e+00 -1.000e-01 0.000e+00 -3.333e-04 -2.162e-04 1.489e-03
20 1 1.000e-01 0.000e+00 0.000e+00 -1.000e-03 -7.773e-04 4.079e-04
ITEM: TIMESTEP
0
ITEM: NUMBER OF ATOMS
4
ITEM: BOX BOUNDS xy xz yz pp pp pp
                     -5.00000000000000e-01 5.00000000000000e-01 0.00000000000000e+00
-5.00000000000000e-01	5.00000000000000e-01	0.00000000000000e+00
-5.00000000000000e-01	5.00000000000000e-01	0.00000000000000e+00
ITEM: ATOMS id type x y z DisplacementX DisplacementY DisplacementZ
21 1 0.000e+00 0.000e+00 0.000e+00 -6.117e-04 -9.983e-02 1.338e-03
22 1 -1.000e-01 0.000e+00 0.000e+00 -7.339e-04 4.442e-05 -1.186e-03
23 1 1.000e-01 0.000e+00 0.000e+00 2.262e-03 -3.421e-04 2.592e-04
24 1 0.000e+00 1.000e-01 0.000e+00 2.699e-04 -2.843e-04 -9.678e-04
ITEM: TIMESTEP
0
ITEM: NUMBER OF ATOMS
4
ITEM: BOX BOUNDS xy xz yz pp pp pp
                     -5.00000000000000e-01 5.00000000000000e-01 0.00000000000000e+00
-5.00000000000000e-01	5.00000000000000e-01	0.00000000000000e+00
-5.00000000000000e-01	5.00000000000000e-01	0.00000000000000e+00
ITEM: ATOMS id type x y z DisplacementX DisplacementY DisplacementZ
25 1 0.000e+00 0.000e+00 0.000e+00 -9.877e-02 -1.770e-04 1.084e-03
26 1 1.000e-01 0.000e+00 0.000e+00 4.989e-04 9.139e-04 -1.302e-03
27 1 0.000e+00 1.000e-01 0.000e+00 -2.096e-05 1.147e-04 8.210e-04
28 1 0.000e+00 -1.000e-01 0.000e+00 -3.400e-04 1.530e-04 4.310e-05
ITEM: TIMESTEP
0
ITEM: NUMBER OF ATOMS
4
ITEM: BOX BOUNDS xy xz yz pp pp pp
                     -5.00000000000000e-01 5.00000000000000e-01 0.00000000000000e+00
-5.00000000000000e-01	5.00000000000000e-01	0.00000000000000e+00
-5.00000000000000e-01	5.00000000000000e-01	0.00000000000000e+00
ITEM: ATOMS id type x y z DisplacementX DisplacementY DisplacementZ
29 1 0.000e+00 -1.000e-01 0.000e+00 -1.225e-04 1.555e-04 -9.595e-04
30 1 0.000e+00 0.000e+00 0.000e+00 1.007e-01 4.218e-05 4.099e-04
31 1 0.000e+00 1.000e-01 0.000e+00 -6.953e-05 1.814e-04 1.299e-03
32 1 -1.000e-01 0.000e+00 0.000e+00 3.921e-04 3.985e-04 -1.124e-03
ITEM: TIMESTEP
0
ITEM: NUMBER OF ATOMS
4
ITEM: BOX BOUNDS xy xz yz pp pp pp
                     -5.00000000000000e-01 5.00000000000000e-01 0.00000000000000e+00
-5.00000000000000e-01	5.00000000000000e-01	0.00000000000000e+00
-5.00000000000000e-01	5.00000000000000e-01	0.00000000000000e+00
ITEM: ATOMS id type x y z DisplacementX DisplacementY DisplacementZ
33 1 1.000e-01 0.000e+00 0.000e+00 -2.977e-04 -1.624e-03 1.422e-03
34 1 -1.000e-01 0.000e+00 0.000e+00 -1.057e-03 -4.121e-04 -2.441e-03
35 1 0.000e+00 0.000e+00 0.000e+00 2.557e-04 -1.011e-01 1.329e-03
36 1 0.000e+00 1.000e-01 0.000e+00 -8.360e-04 -9.911e-04 8.072e-04
ITEM: TIMESTEP
0
ITEM: NUMBER OF ATOMS
4
ITEM: BOX BOUNDS xy xz yz pp pp pp
                     -5.00000000000000e-01 5.00000000000000e-01 0.00000000000000e+00
-5.00000000000000e-01	5.00000000000000e-01	0.00000000000000e+00
-5.00000000000000e-01	5.00000000000000e-01	0.00000000000000e+00
ITEM: ATOMS id type x y z DisplacementX DisplacementY DisplacementZ
37 1 0.000e+00 -1.000e-01 0.000e+00 -2.788e-05 8.938e-04 -1.697e-03
38 1 0.000e+00 0.000e+00 0.000e+00 -1.983e-03 9.934e-02 -1.901e-03
39 1 -1.000e-01 0.000e+00 0.000e+00 4.351e-04 1.010e-03 -1.795e-04
40 1 1.000e-01 0.000e+00 0.000e+00 -7.104e-04 -8.794e-04 -2.432e-04
ITEM: TIMESTEP
0
ITEM: NUMBER OF ATOMS
4
ITEM: BOX BOUNDS xy xz yz pp pp pp
                     -5.00000000000000e-01 5.00000000000000e-01 0.00000000000000e+00
-5.00000000000000e-01	5.00000000000000e-01	0.00000000000000e+00
-5.00000000000000e-01	5.00000000000000e-01	0.00000000000000e+00
ITEM: ATOMS id type x y z DisplacementX DisplacementY DisplacementZ
41 1 0.000e+00 1.000e-01 0.000e+00 2.228e-04 4.022e-04 7.817e-04
42 1 0.000e+00 -1.000e-01 0.000e+00 -6.526e-04 2.186e-03 -1.088e-03
43 1 0.000e+00 0.000e+00 0.000e+00 9.915e-02 -5.319e-04 -5.135e-04
44 1 -1.000e-01 0.000e+00 0.000e+00 5.399e-04 1.961e-06 -1.549e-04
ITEM: TIMESTEP
0
ITEM: NUMBER OF ATOMS
4
ITEM: BOX BOUNDS xy xz yz pp pp pp
                     -5.00000000000000e-01 5.00000000000000e-01 0.00000000000000e+00
-5.00000000000000e-01	5.00000000000000e-01	0.00000000000000e+00
-5.00000000000000e-01	5.00000000000000e-01	0.00000000000000e+00
ITEM: ATOMS id type x y z DisplacementX DisplacementY DisplacementZ
45 1 0.000e+00 1.000e-01 0.000e+00 -1.325e-04 9.971e-04 -7.913e-04
46 1 1.000e-01 0.000e+00 0.000e+00 -3.209e-04 -1.173e-03 2.143e-04
47 1 0.000e+00 -1.000e-01 0.000e+00 5.249e-06 -5.527e-04 -1.158e-03
48 1 0.000e+00 0.000e+00 0.000e+00 -1.002e-01 -2.144e-03 6.925e-06
ITEM: TIMESTEP
0
ITEM: NUMBER OF ATOMS
4
ITEM: BOX BOUNDS xy xz yz pp pp pp
                     -5.00000000000000e-01 5.00000000000000e-01 0.00000000000000e+00
-5.00000000000000e-01	5.00000000000000e-01	0.00000000000000e+00
-5.00000000000000e-01	5.00000000000000e-01	0.00000000000000e+00
ITEM: ATOMS id type x y z DisplacementX DisplacementY DisplacementZ
49 1 0.000e+00 0.000e+00 0.000e+00 -9.928e-02 -1.400e-04 3.933e-05
50 1 0.000e+00 -1.000e-01 0.000e+00 1.927e-04 -1.450e-04 -1.959e-04
51 1 0.000e+00 1.000e-01 0.000e+00 2.711e-04 1.573e-03 -2.506e-03
52 1 1.000e-01 0.000e+00 0.000e+00 -1.547e-05 -2.234e-04 1.489e-03
ITEM: TIMESTEP
0
ITEM: NUMBER OF ATOMS
4
ITEM: BOX BOUNDS xy xz yz pp pp pp
                     -5.00000000000000e-01 5.00000000000000e-01 0.00000000000000e+00
-5.00000000000000e-01	5.00000000000000e-01	0.00000000000000e+00
-5.00000000000000e-01	5.00000000000000e-01	0.00000000000000e+00
ITEM: ATOMS id type x y z DisplacementX DisplacementY DisplacementZ
53 1 0.000e+00 0.000e+00 0.000e+00 7.037e-04 -1.017e-01 8.139e-04
54 1 -1.000e-01 0.000e+00 0.000e+00 1.421e-03 1.145e-03 -4.535e-04
55 1 1.000e-01 0.000e+00 0.000e+00 1.881e-03 2.306e-03 -9.823e-04
56 1 0.000e+00 1.000e-01 0.000e+00 4.200e-04 3.274e-04 3.654e-04
ITEM: TIMESTEP
0
ITEM: NUMBER OF ATOMS
4
ITEM: BOX BOUNDS xy xz yz pp pp pp
                     -5.00000000000000e-01 5.00000000000000e-01 0.00000000000000e+00
-5.00000000000000e-01	5.00000000000000e-01	0.00000000000000e+00
-5.00000000000000e-01	5.00000000000000e-01	0.00000000000000e+00
ITEM: ATOMS id type x y z DisplacementX DisplacementY DisplacementZ
57 1 -1.000e-01 0.000e+00 0.000e+00 -1.323e-03 5.968e-04 5.118e-04
58 1 1.000e-01 0.000e+00 0.000e+00 -1.299e-03 1.040e-03 1.848e-03
59 1 0.000e+00 -1.000e-01 0.000e+00 -2.571e-04 -4.644e-04 -3.602e-05
60 1 0.000e+00 0.000e+00 0.000e+00 -1.018e-03 9.856e-02 -2.926e-06
ITEM: TIMESTEP
0
ITEM: NUMBER OF ATOMS
4
ITEM: BOX BOUNDS xy xz yz pp pp pp
                     -5.00000000000000e-01 5.00000000000000e-01 0.00000000000000e+00
-5.00000000000000e-01	5.00000000000000e-01	0.00000000000000e+00
-5.00000000000000e-01	5.00000000000000e-01	0.00000000000000e+00
ITEM: ATOMS id type x y z DisplacementX DisplacementY DisplacementZ
61 1 0.000e+00 -1.000e-01 0.000e+00 -1.876e-04 -3.324e-04 -7.351e-05
62 1 0.000e+00 1.000e-01 0.000e+00 -3.142e-04 6.625e-04 2.487e-04
63 1 -1.000e-01 0.000e+00 0.000e+00 -3.630e-04 2.744e-04 4.063e-04
64 1 0.000e+00 0.000e+00 0.000e+00 9.862e-02 1.702e-03 9.215e-04
ITEM: TIMESTEP
0
ITEM: NUMBER OF ATOMS
4
ITEM: BOX BOUNDS xy xz yz pp pp pp
                     -5.00000000000000e-01 5.00000000000000e-01 0.00000000000000e+00
-5.00000000000000e-01	5.00000000000000e-01	0.00000000000000e+00
-5.00000000000000e-01	5.00000000000000e-01	0.00000000000000e+00
ITEM: ATOMS id type x y z DisplacementX DisplacementY DisplacementZ
65 1 0.000e+00 0.000e+00 0.000e+00 -6.861e-07 -1.002e-01 -1.045e-03
66 1 0.000e+00 1.000e-01 0.000e+00 2.114e-04 1.613e-03 8.203e-04
67 1 1.000e-01 0.000e+00 0.000e+00 -3.570e-04 4.671e-04 6.952e-05
68 1 -1.000e-01 0.000e+00 0.000e+00 8.420e-04 3.240e-06 -1.390e-03
ITEM: TIMESTEP
0
ITEM: NUMBER OF ATOMS
4
ITEM: BOX BOUNDS xy xz yz pp pp pp
                     -5.00000000000000e-01 5.00000000000000e-01 0.00000000000000e+00
-5.00000000000000e-01	5.00000000000000e-01	0.00000000000000e+00
-5.00000000000000e-01	5.00000000000000e-01	0.00000000000000e+00
ITEM: ATOMS id type x y z DisplacementX DisplacementY DisplacementZ
69 1 0.000e+00 -1.000e-01 0.000e+00 5.119e-04 -2.378e-04 4.774e-04
70 1 0.000e+00 0.000e+00 0.000e+00 9.952e-02 3.207e-04 -3.985e-04
71 1 -1.000e-01 0.000e+00 0.000e+00 1.414e-03 4.476e-05 -1.416e-03
72 1 0.000e+00 1.000e-01 0.000e+00 -2.481e-05 7.850e-04 -5.148e-04
ITEM: TIMESTEP
0
ITEM: NUMBER OF ATOMS
4
ITEM: BOX BOUNDS xy xz yz pp pp pp
                     -5.00000000000000e-01 5.00000000000000e-01 0.00000000000000e+00
-5.00000000000000e-01	5.00000000000000e-01	0.00000000000000e+00
-5.00000000000000e-01	5.00000000000000e-01	0.00000000000000e+00
ITEM: ATOMS id type x y z DisplacementX DisplacementY DisplacementZ
73 1 -1.000e-01 0.000e+00 0.000e+00 -6.153e-04 5.305e-04 5.994e-04
74 1 1.000e-01 0.000e+00 0.000e+00 6.575e-04 4.992e-04 -1.023e-03
75 1 0.000e+00 0.000e+00 0.000e+00 8.786e-04 1.003e-01 -1.263e-03
76 1 0.000e+00 -1.000e-01 0.000e+00 1.802e-04 5.425e-04 9.005e-04
ITEM: TIMESTEP
0
ITEM: NUMBER OF ATOMS
4
ITEM: BOX BOUNDS xy xz yz pp pp pp
                     -5.00000000000000e-01 5.00000000000000e-01 0.00000000000000e+00
-5.00000000000000e-01	5.00000000000000e-01	0.00000000000000e+00
-5.00000000000000e-01	5.00000000000000e-01	0.00000000000000e+00
ITEM: ATOMS id type x y z DisplacementX DisplacementY DisplacementZ
77 1 1.000e-01 0.000e+00 0.000e+00 1.153e-03 1.226e-03 2.962e-04
78 1 0.000e+00 -1.000e-01 0.000e+00 2.099e-03 9.233e-04 -8.090e-04
79 1 0.000e+00 0.000e+00 0.000e+00 -9.991e-02 -2.020e-03 -2.005e-03
80 1 0.000e+00 1.000e-01 0.000e+00 -8.677e-04 1.177e-03 5.389e-04
ITEM: TIMESTEP
0
ITEM: NUMBER OF ATOMS
4
ITEM: BOX BOUNDS xy xz yz pp pp pp
                     -5.00000000000000e-01 5.00000000000000e-01 0.00000000000000e+00
-5.00000000000000e-01	5.00000000000000e-01	0.00000000000000e+00
-5.00000000000000e-01	5.00000000000000e-01	0.00000000000000e+00
ITEM: ATOMS id type x y z DisplacementX DisplacementY DisplacementZ
81 1 0.000e+00 0.000e+00 0.000e+00 9.872e-02 -2.958e-04 4.105e-04
82 1 0.000e+00 -1.000e-01 0.000e+00 -4.083e-04 -8.453e-04 -4.717e-04
83 1 -1.000e-01 0.000e+00 0.000e+00 -9.727e-04 9.326e-05 -7.955e-04
84 1 0.000e+00 1.000e-01 0.000e+00 1.252e-03 6.191e-04 6.916e-04
ITEM: TIMESTEP
0
ITEM: NUMBER OF ATOMS
4
ITEM: BOX BOUNDS xy xz yz pp pp pp
                     -5.00000000000000e-01 5.00000000000000e-01 0.00000000000000e+00
-5.00000000000000e-01	5.00000000000000e-01	0.00000000000000e+00
-5.00000000000000e-01	5.00000000000000e-01	0.00000000000000e+00
ITEM: ATOMS id type x y z DisplacementX DisplacementY DisplacementZ
85 1 -1.000e-01 0.000e+00 0.000e+00 -1.786e-03 -1.283e-04 -3.969e-05
86 1 0.000e+00 0.000e+00 0.000e+00 1.131e-03 9.925e-02 -9.529e-05
87 1 0.000e+00 -1.000e-01 0.000e+00 -3.459e-04 3.130e-04 6.831e-04
88 1 1.000e-01 0.000e+00 0.000e+00 7.300e-04 -1.240e-04 -5.632e-04
ITEM: TIMESTEP
0
ITEM: NUMBER OF ATOMS
4
ITEM: BOX BOUNDS xy xz yz pp pp pp
                     -5.00000000000000e-01 5.00000000000000e-01 0.00000000000000e+00
-5.00000000000000e-01	5.00000000000000e-01	0.00000000000000e+00
-5.00000000000000e-01	5.00000000000000e-01	0.00000000000000e+00
ITEM: ATOMS id type x y z DisplacementX DisplacementY DisplacementZ
89 1 0.000e+00 -1.000e-01 0.000e+00 9.913e-04 1.814e-03 3.947e-04
90 1 1.000e-01 0.000e+00 0.000e+00 3.464e-04 5.910e-04 -1.010e-03
91 1 0.000e+00 1.000e-01 0.000e+00 -7.345e-04 5.856e-04 1.437e-04
92 1 0.000e+00 0.000e+00 0.000e+00 -1.019e-01 -2.271e-03 -1.419e-03
ITEM: TIMESTEP
0
ITEM: NUMBER OF ATOMS
4
ITEM: BOX BOUNDS xy xz yz pp pp pp
                     -5.00000000000000e-01 5.00000000000000e-01 0.00000000000000e+00
-5.00000000000000e-01	5.00000000000000e-01	0.00000000000000e+00
-5.00000000000000e-01	5.00000000000000e-01	0.00000000000000e+00
ITEM: ATOMS id type x y z DisplacementX DisplacementY DisplacementZ
93 1 0.000e+00 1.000e-01 0.000e+00 -7.704e-04 8.910e-04 3.044e-04
94 1 1.000e-01 0.000e+00 0.000e+00 -9.563e-05 1.739e-04 -3.703e-04
95 1 -1.000e-01 0.000e+00 0.000e+00 2.130e-04 6.559e-04 2.735e-04
96 1 0.000e+00 0.000e+00 0.000e+00 4.613e-04 -1.006e-01 1.126e-05
ITEM: TIMESTEP
0
ITEM: NUMBER OF ATOMS
4
ITEM: BOX BOUNDS xy xz yz pp pp pp
                     -5.00000000000000e-01 5.00000000000000e-01 0.00000000000000e+00
-5.00000000000000e-01	5.00000000000000e-01	0.00000000000000e+00
-5.00000000000000e-01	5.00000000000000e-01	0.00000000000000e+00
ITEM: ATOMS id type x y z DisplacementX DisplacementY DisplacementZ
97 1 0.000e+00 0.000e+00 0.000e+00 1.023e-03 1.006e-01 -1.438e-03
98 1 1.000e-01 0.000e+00 0.000e+00 -5.956e-04 1.411e-04 5.546e-04
99 1 -1.000e-01 0.000e+00 0.000e+00 -1.611e-03 1.122e-03 -8.857e-04
100 1 0.000e+00 -1.000e-01 0.000e+00 2.190e-04 8.095e-04 -3.623e-04
ITEM: TIMESTEP
0
ITEM: NUMBER OF ATOMS
4
ITEM: BOX BOUNDS xy xz yz pp pp pp
                     -5.00000000000000e-01 5.00000000000000e-01 0.00000000000000e+00
-5.00000000000000e-01	5.00000000000000e-01	0.00000000000000e+00
-5.00000000000000e-01	5.00000000000000e-01	0.00000000000000e+00
ITEM: ATOMS id type x y z DisplacementX DisplacementY DisplacementZ
101 1 0.000e+00 1.000e-01 0.000e+00 -7.628e-04 -1.392e-03 1.011e-03
102 1 -1.000e-01 0.000e+00 0.000e+00 -8.672e-04 4.723e-04 -1.671e-04
103 1 0.000e+00 0.000e+00 0.000e+00 9.814e-02 1.901e-04 8.157e-04
104 1 0.000e+00 -1.000e-01 0.000e+00 -5.552e-04 2.625e-04 -5.136e-04
ITEM: TIMESTEP
0
ITEM: NUMBER OF ATOMS
4
ITEM: BOX BOUNDS xy xz yz pp pp pp
                     -5.00000000000000e-01 5.00000000000000e-01 0.00000000000000e+00
-5.00000000000000e-01	5.00000000000000e-01	0.00000000000000e+00
-5.00000000000000e-01	5.00000000000000e-01	0.00000000000000e+00
ITEM: ATOMS id type x y z DisplacementX DisplacementY DisplacementZ
105 1 -1.000e-01 0.000e+00 0.000e+00 -1.068e-05 4.111e-04 -6.876e-04
106 1 1.000e-01 0.000e+00 0.000e+00 3.053e-04 1.276e-03 -7.351e-05
107 1 0.000e+00 0.000e+00 0.000e+00 7.582e-05 -1.015e-01 9.824e-04
108 1 0.000e+00 1.000e-01 0.000e+00 4.538e-05 2.606e-03 2.944e-04
ITEM: TIMESTEP
0
ITEM: NUMBER OF ATOMS
4
ITEM: BOX BOUNDS xy xz yz pp pp pp
                     -5.00000000000000e-01 5.00000000000000e-01 0.00000000000000e+00
-5.00000000000000e-01	5.00000000000000e-01	0.00000000000000e+00
-5.00000000000000e-01	5.00000000000000e-01	0.00000000000000e+00
ITEM: ATOMS id type x y z DisplacementX DisplacementY DisplacementZ
109 1 0.000e+00 1.000e-01 0.000e+00 5.937e-04 -2.989e-04 -4.330e-04
110 1 1.000e-01 0.000e+00 0.000e+00 -1.115e-03 -9.054e-04 -6.063e-05
111 1 0.000e+00 -1.000e-01 0.000e+00 6.422e-04 2.189e-03 -4.321e-05
112 1 0.000e+00 0.000e+00 0.000e+00 -9.803e-02 -8.904e-04 1.603e-05
ITEM: TIMESTEP
0
ITEM: NUMBER OF ATOMS
4
ITEM: BOX BOUNDS xy xz yz pp pp pp
                     -5.00000000000000e-01 5.00000000000000e-01 0.00000000000000e+00
-5.00000000000000e-01	5.00000000000000e-01	0.00000000000000e+00
-5.00000000000000e-01	5.00000000000000e-01	0.00000000000000e+00
ITEM: ATOMS id type x y z DisplacementX DisplacementY DisplacementZ
113 1 -1.000e-01 0.000e+00 0.000e+00 3.202e-04 -1.483e-03 8.225e-04
114 1 0.000e+00 0.000e+00 0.000e+00 1.014e-01 1.212e-03 -5.268e-04
115 1 0.000e+00 -1.000e-01 0.000e+00 -1.032e-03 1.130e-04 6.281e-04
116 1 0.000e+00 1.000e-01 0.000e+00 1.412e-03 -5.809e-04 1.095e-03
ITEM: TIMESTEP
0
ITEM: NUMBER OF ATOMS
4
ITEM: BOX BOUNDS xy xz yz pp pp pp
                     -5.00000000000000e-01 5.00000000000000e-01 0.00000000000000e+00
-5.00000000000000e-01	5.00000000000000e-01	0.00000000000000e+00
-5.00000000000000e-01	5.00000000000000e-01	0.00000000000000e+00
ITEM: ATOMS id type x y z DisplacementX DisplacementY DisplacementZ
117 1 1.000e-01 0.000e+00 0.000e+00 3.910e-04 9.668e-04 -1.740e-04
118 1 0.000e+00 0.000e+00 0.000e+00 -1.628e-03 -1.025e-01 3.436e-04
119 1 -1.000e-01 0.000e+00 0.000e+00 -2.861e-03 -1.323e-03 1.050e-04
120 1 0.000e+00 1.000e-01 0.000e+00 -2.286e-03 1.723e-04 -7.686e-04
ITEM: TIMESTEP
0
ITEM: NUMBER OF ATOMS
4
ITEM: BOX BOUNDS xy xz yz pp pp pp
                     -5.00000000000000e-01 5.00000000000000e-01 0.00000000000000e+00
-5.00000000000000e-01	5.00000000000000e-01	0.00000000000000e+00
-5.00000000000000e-01	5.00000000000000e-01	0.00000000000000e+00
ITEM: ATOMS id type x y z DisplacementX DisplacementY DisplacementZ
121 1 0.000e+00 -1.000e-01 0.000e+00 -1.422e-04 -4.885e-04 -1.659e-04
122 1 0.000e+00 1.000e-01 0.000e+00 -1.524e-04 1.815e-03 -5.504e-04
123 1 1.000e-01 0.000e+00 0.000e+00 -4.192e-04 -6.358e-04 -6.020e-04
124 1 0.000e+00 0.000e+00 0.000e+00 -9.873e-02 1.058e-03 -6.704e-04
ITEM: TIMESTEP
0
ITEM: NUMBER OF ATOMS
4
ITEM: BOX BOUNDS xy xz yz pp pp pp
                     -5.00000000000000e-01 5.00000000000000e-01 0.00000000000000e+00
-5.00000000000000e-01	5.00000000000000e-01	0.00000000000000e+00
-5.00000000000000e-01	5.00000000000000e-01	0.00000000000000e+00
ITEM: ATOMS id type x y z DisplacementX DisplacementY DisplacementZ
125 1 1.000e-01 0.000e+00 0.000e+00 -1.791e-03 -3.390e-06 -1.753e-03
126 1 0.000e+00 -1.000e-01 0.000e+00 8.391e-04 -9.725e-04 -8.090e-04
127 1 -1.000e-01 0.000e+00 0.000e+00 9.908e-04 -1.609e-03 1.710e-03
128 1 0.000e+00 0.000e+00 0.000e+00 -5.818e-04 9.935e-02 2.065e-04
ITEM: TIMESTEP
0
ITEM: NUMBER OF ATOMS
4
ITEM: BOX BOUNDS xy xz yz pp pp pp
                     -5.00000000000000e-01 5.00000000000000e-01 0.00000000000000e+00
-5.00000000000000e-01	5.00000000000000e-01	0.00000000000000e+00
-5.00000000000000e-01	5.00000000000000e-01	0.00000000000000e+00
ITEM: ATOMS id type x y z DisplacementX DisplacementY DisplacementZ
129 1 0.000e+00 0.000e+00 0.000e+00 1.086e-04 9.879e-02 1.071e-03
130 1 -1.000e-01 0.000e+00 0.000e+00 -5.162e-04 -5.536e-04 -1.131e-03
131 1 1.000e-01 0.000e+00 0.000e+00 1.670e-03 1.590e-03 -1.333e-03
132 1 0.000e+00 -1.000e-01 0.000e+00 1.222e-04 9.201e-04 -5.196e-04
ITEM: TIMESTEP
0
ITEM: NUMBER OF ATOMS
4
ITEM: BOX BOUNDS xy xz yz pp pp pp
                     -5.00000000000000e-01 5.00000000000000e-01 0.00000000000000e+00
-5.00000000000000e-01	5.00000000000000e-01	0.00000000000000e+00
-5.00000000000000e-01	5.00000000000000e-01	0.00000000000000e+00
ITEM: ATOMS id type x y z DisplacementX DisplacementY DisplacementZ
133 1 0.000e+00 -1.000e-01 0.000e+00 -1.577e-03 1.502e-03 6.757e-04
134 1 0.000e+00 0.000e+00 0.000e+00 9.775e-02 -5.979e-04 -5.356e-04
135 1 -1.000e-01 0.000e+00 0.000e+00 2.780e-04 2.385e-04 -4.348e-04
136 1 0.000e+00 1.000e-01 0.000e+00 1.252e-03 1.399e-03 -1.291e-04
ITEM: TIMESTEP
0
ITEM: NUMBER OF ATOMS
4
ITEM: BOX BOUNDS xy xz yz pp pp pp
                     -5.00000000000000e-01 5.00000000000000e-01 0.00000000000000e+00
-5.00000000000000e-01	5.00000000000000e-01	0.00000000000000e+00
-5.00000000000000e-01	5.00000000000000e-01	0.00000000000000e+00
ITEM: ATOMS id type x y z DisplacementX DisplacementY DisplacementZ
137 1 0.000e+00 1.000e-01 0.000e+00 -1.440e-03 9.512e-04 -5.354e-04
138 1 0.000e+00 0.000e+00 0.000e+00 -8.958e-04 -9.954e-02 6.286e-04
139 1 1.000e-01 0.000e+00 0.000e+00 4.365e-04 -4.284e-04 2.050e-03
140 1 -1.000e-01 0.000e+00 0.000e+00 1.709e-03 -5.362e-04 -7.630e-04
ITEM: TIMESTEP
0
ITEM: NUMBER OF ATOMS
4
ITEM: BOX BOUNDS xy xz yz pp pp pp
                     -5.00000000000000e-01 5.00000000000000e-01 0.00000000000000e+00
-5.00000000000000e-01	5.00000000000000e-01	0.00000000000000e+00
-5.00000000000000e-01	5.00000000000000e-01	0.00000000000000e+00
ITEM: ATOMS id type x y z DisplacementX DisplacementY DisplacementZ
141 1 1.000e-01 0.000e+00 0.000e+00 1.959e-04 5.577e-04 1.084e-03
142 1 0.000e+00 0.000e+00 0.000e+00 -9.870e-02 1.527e-05 3.682e-04
143 1 0.000e+00 -1.000e-01 0.000e+00 5.999e-04 2.203e-04 -2.988e-04
144 1 0.000e+00 1.000e-01 0.000e+00 -2.002e-03 3.532e-04 6.983e-04
ITEM: TIMESTEP
0
ITEM: NUMBER OF ATOMS
4
ITEM: BOX BOUNDS xy xz yz pp pp pp
                     -5.00000000000000e-01 5.00000000000000e-01 0.00000000000000e+00
-5.00000000000000e-01	5.00000000000000e-01	0.00000000000000e+00
-5.00000000000000e-01	5.00000000000000e-01	0.00000000000000e+00
ITEM: ATOMS id type x y z DisplacementX DisplacementY DisplacementZ
145 1 0.000e+00 0.000e+00 0.000e+00 9.797e-02 3.086e-04 -5.464e-04
146 1 -1.000e-01 0.000e+00 0.000e+00 -7.895e-04 1.468e-03 5.600e-04
147 1 0.000e+00 1.000e-01 0.000e+00 -2.802e-04 -5.558e-06 9.251e-04
148 1 0.000e+00 -1.000e-01 0.000e+00 -9.647e-04 1.827e-03 -2.167e-03
ITEM: TIMESTEP
0
ITEM: NUMBER OF ATOMS
4
ITEM: BOX BOUNDS xy xz yz pp pp pp
                     -5.00000000000000e-01 5.00000000000000e-01 0.00000000000000e+00
-5.00000000000000e-01	5.00000000000000e-01	0.00000000000000e+00
-5.00000000000000e-01	5.00000000000000e-01	0.00000000000000e+00
ITEM: ATOMS id type x y z DisplacementX DisplacementY DisplacementZ
149 1 0.000e+00 0.000e+00 0.000e+00 1.747e-03 -9.968e-02 -1.136e-03
150 1 -1.000e-01 0.000e+00 0.000e+00 2.280e-04 -8.471e-05 -7.498e-05
151 1 1.000e-01 0.000e+00 0.000e+00 -1.685e-04 1.111e-03 1.180e-03
152 1 0.000e+00 1.000e-01 0.000e+00 8.269e-04 9.006e-04 -1.444e-04
ITEM: TIMESTEP
0
ITEM: NUMBER OF ATOMS
4
ITEM: BOX BOUNDS xy xz yz pp pp pp
                     -5.00000000000000e-01 5.00000000000000e-01 0.00000000000000e+00
-5.00000000000000e-01	5.00000000000000e-01	0.00000000000000e+00
-5.00000000000000e-01	5.00000000000000e-01	0.00000000000000e+00
ITEM: ATOMS id type x y z DisplacementX DisplacementY DisplacementZ
153 1 0.000e+00 0.000e+00 0.000e+00 -1.927e-03 1.013e-01 -1.285e-03
154 1 1.000e-01 0.000e+00 0.000e+00 -1.365e-03 9.711e-04 1.158e-04
155 1 0.000e+00 -1.000e-01 0.000e+00 -1.301e-03 1.692e-03 2.706e-04
156 1 -1.000e-01 0.000e+00 0.000e+00 6.097e-04 1.159e-03 1.642e-03
ITEM: TIMESTEP
0
ITEM: NUMBER OF ATOMS
4
ITEM: BOX BOUNDS xy xz yz pp pp pp
                     -5.00000000000000e-01 5.00000000000000e-01 0.00000000000000e+00
-5.00000000000000e-01	5.00000000000000e-01	0.00000000000000e+00
-5.00000000000000e-01	5.00000000000000e-01	0.00000000000000e+00
ITEM: ATOMS id type x y z DisplacementX DisplacementY DisplacementZ
157 1 1.000e-01 0.000e+00 0.000e+00 -1.218e-03 1.007e-04 1.247e-03
158 1 0.000e+00 -1.000e-01 0.000e+00 1.660e-03 4.134e-04 -1.173e-03
159 1 0.000e+00 1.000e-01 0.000e+00 1.269e-03 -3.252e-04 -1.225e-03
160 1 0.000e+00 0.000e+00 0.000e+00 -9.985e-02 1.877e-04 1.170e-04
ITEM: TIMESTEP
0
ITEM: NUMBER OF ATOMS
4
ITEM: BOX BOUNDS xy xz yz pp pp pp
                     -5.00000000000000e-01 5.00000000000000e-01 0.00000000000000e+00
-5.00000000000000e-01	5.00000000000000e-01	0.00000000000000e+00
-5.00000000000000e-01	5.00000000000000e-01	0.00000000000000e+00
ITEM: ATOMS id type x y z DisplacementX DisplacementY DisplacementZ
161 1 0.000e+00 -1.000e-01 0.000e+00 -5.193e-04 -4.673e-04 9.657e-04
162 1 0.000e+00 0.000e+00 0.000e+00 -1.004e-01 -7.824e-04 -6.317e-04
163 1 0.000e+00 1.000e-01 0.000e+00 4.178e-04 7.823e-04 6.344e-04
164 1 1.000e-01 0.000e+00 0.000e+00 -4.453e-04 -3.528e-04 4.891e-05
ITEM: TIMESTEP
0
ITEM: NUMBER OF ATOMS
4
ITEM: BOX BOUNDS xy xz yz pp pp pp
                     -5.00000000000000e-01 5.00000000000000e-01 0.00000000000000e+00
-5.00000000000000e-01	5.00000000000000e-01	0.00000000000000e+00
-5.00000000000000e-01	5.00000000000000e-01	0.00000000000000e+00
ITEM: ATOMS id type x y z DisplacementX DisplacementY DisplacementZ
165 1 -1.000e-01 0.000e+00 0.000e+00 -7.434e-04 -5.614e-05 1.513e-04
166 1 1.000e-01 0.000e+00 0.000e+00 -1.516e-03 2.007e-05 9.106e-04
167 1 0.000e+00 -1.000e-01 0.000e+00 6.605e-04 1.054e-03 -9.910e-04
168 1 0.000e+00 0.000e+00 0.000e+00 1.129e-04 1.001e-01 -1.008e-03
ITEM: TIMESTEP
0
ITEM: NUMBER OF ATOMS
4
ITEM: BOX BOUNDS xy xz yz pp pp pp
                     -5.00000000000000e-01 5.00000000000000e-01 0.00000000000000e+00
-5.00000000000000e-01	5.00000000000000e-01	0.00000000000000e+00
-5.00000000000000e-01	5.00000000000000e-01	0.00000000000000e+00
ITEM: ATOMS id type x y z DisplacementX DisplacementY DisplacementZ
169 1 0.000e+00 -1.000e-01 0.000e+00 8.309e-06 -1.687e-04 9.140e-04
170 1 0.000e+00 1.000e-01 0.000e+00 1.273e-03 8.523e-04 -6.873e-04
171 1 0.000e+00 0.000e+00 0.000e+00 9.987e-02 -6.743e-04 -2.805e-04
172 1 -1.000e-01 0.000e+00 0.000e+00 2.461e-03 -4.066e-04 3.158e-04
ITEM: TIMESTEP
0
ITEM: NUMBER OF ATOMS
4
ITEM: BOX BOUNDS xy xz yz pp pp pp
                     -5.00000000000000e-01 5.00000000000000e-01 0.00000000000000e+00
-5.00000000000000e-01	5.00000000000000e-01	0.00000000000000e+00
-5.00000000000000e-01	5.00000000000000e-01	0.00000000000000e+00
ITEM: ATOMS id type x y z DisplacementX DisplacementY DisplacementZ
173 1 1.000e-01 0.000e+00 0.000e+00 1.819e-03 1.039e-03 -2.715e-04
174 1 -1.000e-01 0.000e+00 0.000e+00 2.259e-03 1.485e-03 -7.268e-05
175 1 0.000e+00 1.000e-01 0.000e+00 1.005e-03 -1.229e-03 -7.498e-04
176 1 0.000e+00 0.000e+00 0.000e+00 -6.547e-04 -1.021e-01 -1.892e-05
ITEM: TIMESTEP
0
ITEM: NUMBER OF ATOMS
4
ITEM: BOX BOUNDS xy xz yz pp pp pp
                     -5.00000000000000e-01 5.00000000000000e-01 0.00000000000000e+00
-5.00000000000000e-01	5.00000000000000e-01	0.00000000000000e+00
-5.00000000000000e-01	5.00000000000000e-01	0.00000000000000e+00
ITEM: ATOMS id type x y z DisplacementX DisplacementY DisplacementZ
177 1 0.000e+00 0.000e+00 0.000e+00 -9.997e-02 -1.325e-03 2.169e-04
178 1 0.000e+00 1.000e-01 0.000e+00 2.804e-04 -6.872e-04 -1.642e-03
179 1 1.000e-01 0.000e+00 0.000e+00 -4.207e-04 1.764e-03 -9.276e-04
180 1 0.000e+00 -1.000e-01 0.000e+00 -5.800e-04 -1.988e-04 1.070e-03
ITEM: TIMESTEP
0
ITEM: NUMBER OF ATOMS
4
ITEM: BOX BOUNDS xy xz yz pp pp pp
                     -5.00000000000000e-01 5.00000000000000e-01 0.00000000000000e+00
-5.00000000000000e-01	5.00000000000000e-01	0.00000000000000e+00
-5.00000000000000e-01	5.00000000000000e-01	0.00000000000000e+00
ITEM: ATOMS id type x y z DisplacementX DisplacementY DisplacementZ
181 1 0.000e+00 0.000e+00 0.000e+00 7.936e-05 9.992e-02 -2.027e-04
182 1 0.000e+00 -1.000e-01 0.000e+00 -1.476e-03 1.362e-03 -2.502e-03
183 1 1.000e-01 0.000e+00 0.000e+00 2.989e-05 1.210e-04 8.158e-04
184 1 -1.000e-01 0.000e+00 0.000e+00 -1.315e-03 -4.417e-04 1.753e-03
ITEM: TIMESTEP
0
ITEM: NUMBER OF ATOMS
4
ITEM: BOX BOUNDS xy xz yz pp pp pp
                     -5.00000000000000e-01 5.00000000000000e-01 0.00000000000000e+00
-5.00000000000000e-01	5.00000000000000e-01	0.00000000000000e+00
-5.00000000000000e-01	5.00000000000000e-01	0.00000000000000e+00
ITEM: ATOMS id type x y z DisplacementX DisplacementY DisplacementZ
185 1 0.000e+00 1.000e-01 0.000e+00 5.536e-04 5.288e-04 1.808e-03
186 1 -1.000e-01 0.000e+00 0.000e+00 -5.261e-04 -1.041e-03 1.203e-03
187 1 0.000e+00 0.000e+00 0.000e+00 1.001e-01 -4.071e-04 -4.780e-04
188 1 0.000e+00 -1.000e-01 0.000e+00 -1.824e-03 7.510e-04 -5.437e-04
ITEM: TIMESTEP
0
ITEM: NUMBER OF ATOMS
4
ITEM: BOX BOUNDS xy xz yz pp pp pp
                     -5.00000000000000e-01 5.00000000000000e-01 0.00000000000000e+00
-5.00000000000000e-01	5.00000000000000e-01	0.00000000000000e+00
-5.00000000000000e-01	5.00000000000000e-01	0.00000000000000e+00
ITEM: ATOMS id type x y z DisplacementX DisplacementY DisplacementZ
189 1 0.000e+00 1.000e-01 0.000e+00 -1.406e-03 -1.372e-03 3.872e-04
190 1 -1.000e-01 0.000e+00 0.000e+00 6.268e-04 -1.065e-03 -2.823e-05
191 1 1.000e-01 0.000e+00 0.000e+00 -7.845e-04 -7.498e-04 1.662e-04