ITEM: TIMESTEP
0
ITEM: NUMBER OF ATOMS
99
ITEM: BOX BOUNDS xy xz yz pp pp pp
                     -5.00000000000000e-01 5.00000000000000e-01 0.00000000000000e+00
-5.00000000000000e-01	5.00000000000000e-01	0.00000000000000e+00
-5.00000000000000e-01	5.00000000000000e-01	0.00000000000000e+00
ITEM: ATOMS id type x y z DisplacementX DisplacementY DisplacementZ
1 1 -4.000e-01 1.000e-01 0.000e+00 -4.359e-04 3.459e-04 -1.172e-03
2 1 5.000e-01 5.000e-01 0.000e+00 3.438e-04 4.995e-05 -5.129e-04
3 1 3.000e-01 -2.000e-01 0.000e+00 -1.297e-04 -1.448e-03 3.025e-04
4 1 3.000e-01 4.000e-01 0.000e+00 -1.398e-03 -1.368e-03 1.443e-03
5 1 -1.000e-01 5.000e-01 0.000e+00 5.146e-04 -4.895e-04 -1.238e-03
6 1 -3.000e-01 1.000e-01 0.000e+00 6.502e-04 1.735e-03 -6.805e-04
7 1 3.000e-01 1.000e-01 0.000e+00 2.498e-04 8.747e-04 8.621e-04
8 1 0.000e+00 0.000e+00 0.000e+00 1.006e-01 2.028e-04 -1.553e-03
9 1 4.000e-01 4.000e-01 0.000e+00 1.774e-03 2.583e-04 1.780e-03
10 1 -2.000e-01 1.000e-01 0.000e+00 2.488e-04 1.550e-03 3.212e-04
11 1 -3.000e-01 3.000e-01 0.000e+00 7.298e-05 1.085e-03 -6.436e-05
12 1 0.000e+00 5.000e-01 0.000e+00 1.772e-03 -1.830e-04 -1.874e-03
13 1 5.000e-01 1.000e-01 0.000e+00 1.550e-03 6.811e-04 -1.173e-03
14 1 -3.000e-01 -2.000e-01 0.000e+00 -4.986e-04 1.551e-03 1.900e-04
15 1 -3.000e-01 -4.000e-01 0.000e+00 4.586e-04 -1.784e-03 -6.032e-04
16 1 4.000e-01 0.000e+00 0.000e+00 8.661e-04 -3.255e-04 1.528e-03
17 1 -2.000e-01 3.000e-01 0.000e+00 -1.038e-04 8.954e-04 -8.721e-04
18 1 0.000e+00 -1.000e-01 0.000e+00 -5.675e-04 -5.485e-04 8.114e-04
19 1 -1.000e-01 -1.000e-01 0.000e+00 -1.360e-04 1.193e-03 4.717e-04
20 1 5.000e-01 4.000e-01 0.000e+00 1.038e-03 5.661e-04 -1.712e-04
21 1 5.000e-01 3.000e-01 0.000e+00 -2.859e-04 -6.746e-04 -8.724e-04
22 1 4.000e-01 -1.000e-01 0.000e+00 1.538e-03 1.117e-03 1.245e-03
23 1 2.000e-01 3.000e-01 0.000e+00 1.052e-03 1.874e-04 -9.453e-04
24 1 2.000e-01 2.000e-01 0.000e+00 1.179e-03 -1.683e-03 -1.681e-03
25 1 0.000e+00 2.000e-01 0.000e+00 -1.483e-03 -7.086e-06 -1.358e-03
26 1 -4.000e-01 4.000e-01 0.000e+00 -1.509e-03 6.704e-04 -2.061e-03
27 1 2.000e-01 -3.000e-01 0.000e+00 1.948e-03 2.255e-03 4.768e-04
28 1 -3.000e-01 -3.000e-01 0.000e+00 3.964e-05 6.955e-04 -1.683e-03
29 1 2.000e-01 -1.000e-01 0.000e+00 -1.164e-04 1.289e-03 2.027e-05
30 1 0.000e+00 -3.000e-01 0.000e+00 -6.656e-04 3.601e-04 8.648e-04
31 1 -4.000e-01 -1.000e-01 0.000e+00 -1.042e-03 6.443e-04 -6.002e-04
32 1 -1.000e-01 -3.000e-01 0.000e+00 -7.626e-04 -5.814e-04 -9.882e-04
33 1 -1.000e-01 0.000e+00 0.000e+00 -6.125e-04 9.838e-04 -1.224e-03
34 1 0.000e+00 -2.000e-01 0.000e+00 -6.718e-04 2.734e-04 -5.905e-04
35 1 -2.000e-01 -3.000e-01 0.000e+00 4.609e-04 9.405e-04 -4.714e-04
36 1 -2.000e-01 -2.000e-01 0.000e+00 1.743e-03 3.386e-04 -5.992e-05
37 1 -3.000e-01 -1.000e-01 0.000e+00 -1.023e-03 -1.126e-04 9.307e-04
38 1 1.000e-01 -3.000e-01 0.000e+00 7.206e-04 7.157e-05 1.391e-05
39 1 2.000e-01 1.000e-01 0.000e+00 -4.337e-04 -8.458e-04 1.728e-04
40 1 0.000e+00 3.000e-01 0.000e+00 6.850e-04 -2.541e-04 -8.793e-04
41 1 3.000e-01 5.000e-01 0.000e+00 6.274e-04 1.489e-04 -7.258e-04
42 1 5.000e-01 -4.000e-01 0.000e+00 -3.321e-04 7.286e-04 3.777e-04
43 1 -2.000e-01 4.000e-01 0.000e+00 8.833e-04 7.121e-04 -6.705e-04
44 1 5.000e-01 0.000e+00 0.000e+00 1.306e-03 -2.236e-03 1.958e-03
45 1 3.000e-01 -4.000e-01 0.000e+00 1.886e-03 8.114e-04 6.956e-04
46 1 -2.000e-01 2.000e-01 0.000e+00 9.636e-04 9.364e-04 1.601e-04
47 1 0.000e+00 1.000e-01 0.000e+00 1.379e-03 1.707e-04 5.604e-05
48 1 5.000e-01 -3.000e-01 0.000e+00 1.786e-04 -1.925e-03 -1.841e-03
49 1 -4.000e-01 0.000e+00 0.000e+00 1.075e-03 -4.895e-04 -1.825e-03
50 1 0.000e+00 4.000e-01 0.000e+00 -1.461e-03 -1.831e-04 -2.190e-04
51 1 1.000e-01 -1.000e-01 0.000e+00 -1.388e-03 3.309e-04 1.436e-05
52 1 3.000e-01 3.000e-01 0.000e+00 -3.795e-05 -1.639e-03 -1.029e-03
53 1 -2.000e-01 5.000e-01 0.000e+00 7.814e-04 -2.060e-03 -5.582e-04
54 1 4.000e-01 -3.000e-01 0.000e+00 -5.031e-04 6.156e-04 -5.114e-04
55 1 -3.000e-01 2.000e-01 0.000e+00 -7.886e-04 3.462e-04 2.810e-04
56 1 3.000e-01 -1.000e-01 0.000e+00 -1.787e-03 2.601e-04 -1.227e-03
57 1 1.000e-01 1.000e-01 0.000e+00 -1.380e-03 9.171e-04 -2.459e-03
58 1 -1.000e-01 -4.000e-01 0.000e+00 -1.147e-04 5.940e-04 -1.582e-03
59 1 1.000e-01 -2.000e-01 0.000e+00 1.026e-03 8.823e-04 1.048e-03
60 1 -2.000e-01 0.000e+00 0.000e+00 -1.577e-03 -1.184e-03 1.084e-03
61 1 -3.000e-01 5.000e-01 0.000e+00 -2.038e-04 8.794e-04 6.327e-04
62 1 2.000e-01 -4.000e-01 0.000e+00 -1.914e-03 -1.638e-03 -9.451e-05
63 1 -4.000e-01 2.000e-01 0.000e+00 1.911e-04 4.421e-04 8.322e-04
64 1 -1.000e-01 4.000e-01 0.000e+00 -8.638e-04 1.714e-04 -1.872e-03
65 1 -1.000e-01 -2.000e-01 0.000e+00 1.379e-03 -9.178e-04 -1.172e-03
66 1 1.000e-01 3.000e-01 0.000e+00 1.592e-04 -5.852e-04 1.174e-03
67 1 1.000e-01 4.000e-01 0.000e+00 -6.927e-04 1.074e-03 -3.890e-04
68 1 -4.000e-01 5.000e-01 0.000e+00 8.600e-04 -1.876e-04 -5.964e-04
69 1 -3.000e-01 0.000e+00 0.000e+00 6.269e-04 -1.404e-03 -2.316e-04
70 1 -4.000e-01 -2.000e-01 0.000e+00 1.729e-03 -2.324e-04 -6.716e-04
71 1 2.000e-01 -2.000e-01 0.000e+00 3.376e-04 4.969e-04 -5.743e-05
72 1 4.000e-01 5.000e-01 0.000e+00 5.798e-04 -7.219e-04 5.337e-04
73 1 -3.000e-01 4.000e-01 0.000e+00 1.479e-03 1.057e-03 4.865e-05
74 1 5.000e-01 2.000e-01 0.000e+00 9.246e-04 -9.370e-04 2.753e-04
75 1 -4.000e-01 -3.000e-01 0.000e+00 -5.047e-04 9.996e-04 1.872e-04
76 1 3.000e-01 -3.000e-01 0.000e+00 -1.422e-03 3.826e-04 1.254e-03
77 1 3.000e-01 0.000e+00 0.000e+00 -1.106e-03 -1.394e-04 9.501e-04
78 1 -1.000e-01 3.000e-01 0.000e+00 2.084e-04 2.689e-04 4.215e-04
79 1 5.000e-01 -2.000e-01 0.000e+00 9.842e-04 9.926e-04 -7.412e-04
80 1 4.000e-01 -2.000e-01 0.000e+00 2.333e-03 -1.125e-03 3.501e-04
81 1 -2.000e-01 -1.000e-01 0.000e+00 -8.493e-05 1.594e-03 -1.287e-03
82 1 4.000e-01 -4.000e-01 0.000e+00 1.265e-04 -9.352e-04 9.609e-04
83 1 2.000e-01 4.000e-01 0.000e+00 -9.223e-04 8.815e-04 -1.107e-03
84 1 5.000e-01 -1.000e-01 0.000e+00 1.423e-04 7.582e-04 8.127e-04
85 1 1.000e-01 5.000e-01 0.000e+00 -1.008e-03 -2.182e-03 -3.197e-04
86 1 -4.000e-01 3.000e-01 0.000e+00 -3.347e-04 -5.967e-04 5.424e-04
87 1 1.000e-01 2.000e-01 0.000e+00 -1.803e-03 9.740e-04 1.542e-03
88 1 -4.000e-01 -4.000e-01 0.000e+00 2.393e-04 9.455e-04 -1.434e-03
89 1 3.000e-01 2.000e-01 0.000e+00 5.755e-04 5.157e-04 -2.479e-03
90 1 2.000e-01 5.000e-01 0.000e+00 1.588e-03 1.057e-03 5.925e-04
91 1 4.000e-01 2.000e-01 0.000e+00 2.450e-03 -1.331e-03 1.244e-04
92 1 -1.000e-01 1.000e-01 0.000e+00 9.683e-04 -7.048e-04 -1.841e-03
93 1 -1.000e-01 2.000e-01 0.000e+00 -3.896e-04 1.217e-03 1.587e-03
94 1 0.000e+00 -4.000e-01 0.000e+00 1.810e-03 -6.453e-04 -1.352e-04
95 1 -2.000e-01 -4.000e-01 0.000e+00 9.847e-04 7.129e-05 -5.296e-04
96 1 1.000e-01 -4.000e-01 0.000e+00 1.287e-04 -1.677e-03 -7.505e-04
97 1 2.000e-01 0.000e+00 0.000e+00 5.742e-04 1.104e-03 3.165e-04
98 1 4.000e-01 1.000e-01 0.000e+00 1.616e-03 2.413e-03 -2.118e-04
99 1 4.000e-01 3.000e-01 0.000e+00 2.208e-03 6.111e-04 1.626e-03
ITEM: TIMESTEP
0
ITEM: NUMBER OF ATOMS
99
ITEM: BOX BOUNDS xy xz yz pp pp pp
                     -5.00000000000000e-01 5.00000000000000e-01 0.00000000000000e+00
-5.00000000000000e-01	5.00000000000000e-01	0.00000000000000e+00
-5.00000000000000e-01	5.00000000000000e-01	0.00000000000000e+00
ITEM: ATOMS id type x y z DisplacementX DisplacementY DisplacementZ
100 1 5.000e-01 2.000e-01 0.000e+00 -2.735e-04 1.112e-03 -1.222e-03
101 1 4.000e-01 -4.000e-01 0.000e+00 1.041e-03 -1.297e-03 1.454e-03
102 1 2.000e-01 -1.000e-01 0.000e+00 5.194e-04 8.553e-04 -3.155e-04
103 1 2.000e-01 5.000e-01 0.000e+00 3.117e-04 1.542e-03 5.100e-04
104 1 -2.000e-01 -4.000e-01 0.000e+00 2.078e-03 -4.819e-04 4.970e-04
105 1 -4.000e-01 2.000e-01 0.000e+00 -2.387e-04 -4.460e-04 -5.662e-04
106 1 2.000e-01 2.000e-01 0.000e+00 -1.351e-03 -5.240e-04 4.711e-04
107 1 -1.000e-01 1.000e-01 0.000e+00 3.425e-04 -1.053e-04 6.112e-04
108 1 3.000e-01 5.000e-01 0.000e+00 -7.771e-04 -4.146e-04 -1.564e-03
109 1 -3.000e-01 2.000e-01 0.000e+00 3.643e-04 -1.702e-04 -3.124e-04
110 1 -4.000e-01 4.000e-01 0.000e+00 1.009e-03 1.227e-03 1.041e-03
111 1 -1.000e-01 -4.000e-01 0.000e+00 -7.183e-04 9.543e-04 -1.236e-03
112 1 4.000e-01 2.000e-01 0.000e+00 4.334e-04 -7.210e-04 2.161e-03
113 1 -4.000e-01 -1.000e-01 0.000e+00 2.883e-04 -4.006e-04 -1.070e-03
114 1 -4.000e-01 -3.000e-01 0.000e+00 3.609e-04 2.291e-04 8.201e-04
115 1 3.000e-01 1.000e-01 0.000e+00 4.095e-04 -6.584e-04 1.034e-03
116 1 -3.000e-01 4.000e-01 0.000e+00 1.420e-03 -1.724e-03 1.194e-03
117 1 -1.000e-01 0.000e+00 0.000e+00 -7.803e-04 -1.949e-04 -1.771e-03
118 1 -2.000e-01 0.000e+00 0.000e+00 -3.731e-04 -1.856e-03 1.402e-03
119 1 4.000e-01 5.000e-01 0.000e+00 1.529e-03 -4.227e-04 -9.329e-04
120 1 4.000e-01 4.000e-01 0.000e+00 4.205e-04 3.792e-04 -2.858e-04
121 1 3.000e-01 0.000e+00 0.000e+00 -9.297e-04 2.157e-03 -3.985e-04
122 1 1.000e-01 4.000e-01 0.000e+00 -6.973e-05 -1.269e-04 -6.264e-04
123 1 1.000e-01 3.000e-01 0.000e+00 9.911e-05 7.661e-04 6.872e-04
124 1 -1.000e-01 3.000e-01 0.000e+00 -6.204e-04 -6.014e-04 4.456e-04
125 1 5.000e-01 5.000e-01 0.000e+00 8.897e-05 -1.549e-03 1.414e-03
126 1 1.000e-01 -2.000e-01 0.000e+00 -5.273e-04 1.087e-03 1.080e-03
127 1 -4.000e-01 -2.000e-01 0.000e+00 -1.332e-03 -1.470e-04 -7.203e-04
128 1 1.000e-01 0.000e+00 0.000e+00 4.056e-04 -1.197e-03 9.798e-04
129 1 -1.000e-01 -2.000e-01 0.000e+00 -2.805e-04 9.073e-04 2.567e-04
130 1 5.000e-01 0.000e+00 0.000e+00 -3.178e-04 -1.462e-03 -8.397e-04
131 1 -2.000e-01 -2.000e-01 0.000e+00 -1.492e-03 -1.141e-03 1.384e-03
132 1 -2.000e-01 1.000e-01 0.000e+00 -5.147e-04 1.575e-03 6.269e-04
133 1 -1.000e-01 -1.000e-01 0.000e+00 2.383e-04 -8.540e-04 -1.565e-03
134 1 -3.000e-01 -2.000e-01 0.000e+00 -2.756e-04 3.764e-04 1.928e-03
135 1 -3.000e-01 -1.000e-01 0.000e+00 4.304e-05 -1.210e-03 9.955e-04
136 1 -4.000e-01 0.000e+00 0.000e+00 -9.917e-04 -1.033e-04 9.913e-04
137 1 0.000e+00 -2.000e-01 0.000e+00 -3.413e-04 -2.584e-04 7.572e-04
138 1 1.000e-01 2.000e-01 0.000e+00 1.067e-03 -1.530e-04 -3.188e-04
139 1 -1.000e-01 4.000e-01 0.000e+00 -4.339e-04 8.533e-05 -5.546e-04
140 1 2.000e-01 -4.000e-01 0.000e+00 -1.142e-05 -1.911e-03 4.362e-04
141 1 4.000e-01 -3.000e-01 0.000e+00 -3.801e-04 -6.342e-04 8.911e-04
142 1 -3.000e-01 5.000e-01 0.000e+00 -1.796e-04 6.313e-04 4.663e-05
143 1 4.000e-01 1.000e-01 0.000e+00 3.176e-04 -7.591e-04 1.476e-03
144 1 2.000e-01 -3.000e-01 0.000e+00 -4.858e-04 -4.755e-04 2.294e-03
145 1 -3.000e-01 3.000e-01 0.000e+00 -1.403e-03 1.295e-04 2.171e-04
146 1 -1.000e-01 2.000e-01 0.000e+00 -5.084e-04 9.091e-04 1.240e-03
147 1 4.000e-01 -2.000e-01 0.000e+00 1.035e-03 8.251e-04 -9.889e-04
148 1 5.000e-01 1.000e-01 0.000e+00 6.133e-04 3.919e-04 1.601e-03
149 1 -1.000e-01 5.000e-01 0.000e+00 1.941e-04 8.451e-04 1.280e-03
150 1 0.000e+00 0.000e+00 0.000e+00 1.569e-03 1.003e-01 -2.586e-04
151 1 2.000e-01 4.000e-01 0.000e+00 2.541e-05 -7.908e-04 1.753e-04
152 1 -3.000e-01 -4.000e-01 0.000e+00 2.457e-03 6.471e-05 7.260e-04
153 1 3.000e-01 -2.000e-01 0.000e+00 7.755e-04 5.029e-04 1.537e-03
154 1 -4.000e-01 3.000e-01 0.000e+00 6.142e-04 -1.030e-03 5.783e-04
155 1 2.000e-01 0.000e+00 0.000e+00 -1.097e-03 6.705e-04 -1.124e-03
156 1 0.000e+00 2.000e-01 0.000e+00 7.745e-04 1.383e-04 1.288e-04
157 1 -2.000e-01 -3.000e-01 0.000e+00 -7.720e-04 -2.189e-04 4.495e-04
158 1 0.000e+00 -1.000e-01 0.000e+00 3.065e-05 -5.391e-04 2.216e-03
159 1 -3.000e-01 1.000e-01 0.000e+00 -1.117e-03 -1.335e-03 1.103e-03
160 1 -4.000e-01 -4.000e-01 0.000e+00 2.434e-04 -1.795e-03 -7.788e-05
161 1 1.000e-01 -3.000e-01 0.000e+00 -2.484e-04 -1.167e-04 -7.461e-04
162 1 5.000e-01 3.000e-01 0.000e+00 6.438e-04 9.798e-04 -3.609e-04
163 1 -2.000e-01 5.000e-01 0.000e+00 1.232e-04 -4.695e-04 -3.884e-04
164 1 -2.000e-01 -1.000e-01 0.000e+00 -1.087e-03 -3.291e-04 1.002e-03
165 1 0.000e+00 4.000e-01 0.000e+00 6.518e-04 -1.686e-03 4.390e-04
166 1 0.000e+00 5.000e-01 0.000e+00 1.924e-05 5.851e-04 -1.730e-03
167 1 5.000e-01 -4.000e-01 0.000e+00 1.209e-04 1.096e-03 5.453e-05
168 1 -4.000e-01 1.000e-01 0.000e+00 7.324e-04 -3.589e-04 -7.024e-04
169 1 5.000e-01 -1.000e-01 0.000e+00 4.800e-04 -1.537e-03 -5.997e-04
170 1 1.000e-01 -1.000e-01 0.000e+00 -8.146e-06 7.371e-04 -4.144e-04
171 1 3.000e-01 -4.000e-01 0.000e+00 3.489e-04 2.051e-05 -9.754e-04
172 1 -4.000e-01 5.000e-01 0.000e+00 -1.244e-03 -2.311e-04 1.340e-03
173 1 4.000e-01 3.000e-01 0.000e+00 -1.159e-03 -1.299e-03 -1.414e-03
174 1 5.000e-01 -2.000e-01 0.000e+00 1.760e-04 -1.398e-03 -9.243e-04
175 1 2.000e-01 -2.000e-01 0.000e+00 -8.890e-04 1.769e-03 -2.715e-05
176 1 2.000e-01 1.000e-01 0.000e+00 6.012e-04 -4.593e-04 7.568e-05
177 1 -2.000e-01 4.000e-01 0.000e+00 -3.397e-05 -9.679e-05 -2.177e-03
178 1 4.000e-01 -1.000e-01 0.000e+00 -9.572e-04 -1.851e-03 1.105e-03
179 1 3.000e-01 -1.000e-01 0.000e+00 -7.511e-04 4.248e-04 2.640e-04
180 1 -3.000e-01 0.000e+00 0.000e+00 -1.092e-03 5.082e-04 -1.147e-03
181 1 3.000e-01 -3.000e-01 0.000e+00 2.112e-03 2.306e-04 1.120e-03
182 1 1.000e-01 5.000e-01 0.000e+00 8.308e-04 3.738e-04 6.035e-04
183 1 4.000e-01 0.000e+00 0.000e+00 5.534e-04 8.121e-04 3.890e-04
184 1 0.000e+00 -4.000e-01 0.000e+00 1.319e-03 -2.505e-04 -6.081e-04
185 1 5.000e-01 4.000e-01 0.000e+00 -1.991e-03 -1.299e-03 1.341e-05
186 1 0.000e+00 3.000e-01 0.000e+00 -1.599e-03 -4.392e-04 1.615e-03
187 1 5.000e-01 -3.000e-01 0.000e+00 -4.942e-04 5.483e-04 -2.472e-03
188 1 2.000e-01 3.000e-01 0.000e+00 2.292e-03 5.330e-04 6.618e-04
189 1 1.000e-01 -4.000e-01 0.000e+00 8.254e-04 -5.312e-04 3.343e-04
190 1 3.000e-01 3.000e-01 0.000e+00 1.880e-06 1.290e-03 5.537e-04
191 1 -2.000e-01 2.000e-01 0.000e+00 3.963e-04 -8.164e-05 3.959e-04
192 1 -2.000e-01 3.000e-01 0.000e+00 6.300e-04 2.204e-04 1.231e-03
193 1 -1.000e-01 -3.000e-01 0.000e+00 -3.029e-04 -1.282e-03 -9.000e-04
194 1 -3.000e-01 -3.000e-01 0.000e+00 1.953e-03 3.425e-05 -3.628e-04
195 1 0.000e+00 -3.000e-01 0.000e+00 -1.536e-03 -5.520e-04 -1.230e-03
196 1 1.000e-01 1.000e-01 0.000e+00 9.656e-04 -7.125e-04 7.756e-05
197 1 3.000e-01 2.000e-01 0.000e+00 -1.738e-03 -1.671e-04 -1.667e-04
198 1 3.000e-01 4.000e-01 0.000e+00 3.712e-04 1.817e-03 -3.509e-04
