ITEM: TIMESTEP
0
ITEM: NUMBER OF ATOMS
4
ITEM: BOX BOUNDS xy xz yz pp pp pp
                     -5.00000000000000e-01 5.00000000000000e-01 0.00000000000000e+00
-5.00000000000000e-01	5.00000000000000e-01	0.00000000000000e+00
-5.00000000000000e-01	5.00000000000000e-01	0.00000000000000e+00
ITEM: ATOMS id type x y DisplacementX DisplacementY
1 1 0.000e+00 0.000e+00 0.000e+00 2.000e-01
2 1 0.000e+00 -2.000e-01 0.000e+00 0.000e+00
3 1 2.000e-01 0.000e+00 0.000e+00 0.000e+00
4 1 -2.000e-01 0.000e+00 0.000e+00 0.000e+00
ITEM: TIMESTEP
0
ITEM: NUMBER OF ATOMS
4
ITEM: BOX BOUNDS xy xz yz pp pp pp
                     -5.00000000000000e-01 5.00000000000000e-01 0.00000000000000e+00
-5.00000000000000e-01	5.00000000000000e-01	0.00000000000000e+00
-5.00000000000000e-01	5.00000000000000e-01	0.00000000000000e+00
ITEM: ATOMS id type x y DisplacementX DisplacementY
5 1 -2.000e-01 0.000e+00 0.000e+00 0.000e+00
6 1 0.000e+00 0.000e+00 2.000e-01 0.000e+00
7 1 0.000e+00 2.000e-01 0.000e+00 0.000e+00
8 1 0.000e+00 -2.000e-01 0.000e+00 0.000e+00
ITEM: TIMESTEP
0
ITEM: NUMBER OF ATOMS
4
ITEM: BOX BOUNDS xy xz yz pp pp pp
                     -5.00000000000000e-01 5.00000000000000e-01 0.00000000000000e+00
-5.00000000000000e-01	5.00000000000000e-01	0.00000000000000e+00
-5.00000000000000e-01	5.00000000000000e-01	0.00000000000000e+00
ITEM: ATOMS id type x y DisplacementX DisplacementY
9 1 0.000e+00 0.000e+00 -2.000e-01 0.000e+00
10 1 0.000e+00 -2.000e-01 0.000e+00 0.000e+00
11 1 2.000e-01 0.000e+00 0.000e+00 0.000e+00
12 1 0.000e+00 2.000e-01 0.000e+00 0.000e+00
ITEM: TIMESTEP
0
ITEM: NUMBER OF ATOMS
4
ITEM: BOX BOUNDS xy xz yz pp pp pp
                     -5.00000000000000e-01 5.00000000000000e-01 0.00000000000000e+00
-5.00000000000000e-01	5.00000000000000e-01	0.00000000000000e+00
-5.00000000000000e-01	5.00000000000000e-01	0.00000000000000e+00
ITEM: ATOMS id type x y DisplacementX DisplacementY
13 1 0.000e+00 2.000e-01 0.000e+00 0.000e+00
14 1 0.000e+00 0.000e+00 0.000e+00 -2.000e-01
15 1 2.000e-01 0.000e+00 0.000e+00 0.000e+00
16 1 -2.000e-01 0.000e+00 0.000e+00 0.000e+00
ITEM: TIMESTEP
0
ITEM: NUMBER OF ATOMS
4
ITEM: BOX BOUNDS xy xz yz pp pp pp
                     -5.00000000000000e-01 5.00000000000000e-01 0.00000000000000e+00
-5.00000000000000e-01	5.00000000000000e-01	0.00000000000000e+00
-5.00000000000000e-01	5.00000000000000e-01	0.00000000000000e+00
ITEM: ATOMS id type x y DisplacementX DisplacementY
17 1 -2.000e-01 0.000e+00 0.000e+00 0.000e+00
18 1 0.000e+00 0.000e+00 0.000e+00 -2.000e-01
19 1 0.000e+00 2.000e-01 0.000e+00 0.000e+00
20 1 2.000e-01 0.000e+00 0.000e+00 0.000e+00
ITEM: TIMESTEP
0
ITEM: NUMBER OF ATOMS
4
ITEM: BOX BOUNDS xy xz yz pp pp pp
                     -5.00000000000000e-01 5.00000000000000e-01 0.00000000000000e+00
-5.00000000000000e-01	5.00000000000000e-01	0.00000000000000e+00
-5.00000000000000e-01	5.00000000000000e-01	0.00000000000000e+00
ITEM: ATOMS id type x y DisplacementX DisplacementY
21 1 0.000e+00 -2.000e-01 0.000e+00 0.000e+00
22 1 0.000e+00 0.000e+00 0.000e+00 2.000e-01
23 1 -2.000e-01 0.000e+00 0.000e+00 0.000e+00
24 1 2.000e-01 0.000e+00 0.000e+00 0.000e+00
