ITEM: TIMESTEP
0
ITEM: NUMBER OF ATOMS
12
ITEM: BOX BOUNDS xy xz yz pp pp pp
                     -5.00000000000000e-01 5.00000000000000e-01 0.00000000000000e+00
-5.00000000000000e-01	5.00000000000000e-01	0.00000000000000e+00
-5.00000000000000e-01	5.00000000000000e-01	0.00000000000000e+00
ITEM: ATOMS id type x y z DisplacementX DisplacementY DisplacementZ
1 1 -1.000e-01 -1.000e-01 0.000e+00 -4.500e-04 -1.634e-03 8.696e-05
2 1 0.000e+00 0.000e+00 0.000e+00 9.950e-02 6.021e-05 4.472e-04
3 1 0.000e+00 -2.000e-01 0.000e+00 -1.133e-03 -2.168e-03 -1.013e-03
4 1 2.000e-01 0.000e+00 0.000e+00 -1.045e-04 1.211e-03 -5.444e-04
5 1 1.000e-01 1.000e-01 0.000e+00 9.505e-04 -4.369e-04 -5.042e-04
6 1 0.000e+00 2.000e-01 0.000e+00 4.853e-04 -1.037e-03 -8.478e-04
7 1 -2.000e-01 0.000e+00 0.000e+00 -1.084e-03 1.063e-04 -2.646e-07
8 1 1.000e-01 -1.000e-01 0.000e+00 1.250e-03 -2.036e-03 -3.316e-05
9 1 -1.000e-01 0.000e+00 0.000e+00 1.316e-03 3.559e-04 -8.520e-04
10 1 0.000e+00 1.000e-01 0.000e+00 9.986e-04 1.450e-03 -3.985e-04
11 1 -1.000e-01 1.000e-01 0.000e+00 -8.677e-04 1.274e-03 1.677e-03
12 1 0.000e+00 -1.000e-01 0.000e+00 -1.706e-03 -1.597e-04 2.552e-03
ITEM: TIMESTEP
0
ITEM: NUMBER OF ATOMS
12
ITEM: BOX BOUNDS xy xz yz pp pp pp
                     -5.00000000000000e-01 5.00000000000000e-01 0.00000000000000e+00
-5.00000000000000e-01	5.00000000000000e-01	0.00000000000000e+00
-5.00000000000000e-01	5.00000000000000e-01	0.00000000000000e+00
ITEM: ATOMS id type x y z DisplacementX DisplacementY DisplacementZ
13 1 -2.000e-01 0.000e+00 0.000e+00 1.530e-04 4.357e-04 5.885e-04
14 1 0.000e+00 2.000e-01 0.000e+00 -1.865e-04 -7.747e-05 -1.655e-03
15 1 0.000e+00 0.000e+00 0.000e+00 -9.828e-02 1.468e-03 4.628e-04
16 1 1.000e-01 1.000e-01 0.000e+00 -9.438e-04 -1.313e-04 -1.171e-03
17 1 -1.000e-01 1.000e-01 0.000e+00 -2.982e-03 1.142e-03 -1.780e-03
18 1 1.000e-01 -1.000e-01 0.000e+00 -1.421e-03 3.213e-04 7.590e-04
19 1 0.000e+00 -1.000e-01 0.000e+00 1.328e-04 6.602e-04 -3.152e-04
20 1 0.000e+00 1.000e-01 0.000e+00 -8.409e-04 -1.126e-03 1.093e-03
21 1 -1.000e-01 -1.000e-01 0.000e+00 7.731e-04 5.167e-04 -7.938e-04
22 1 2.000e-01 0.000e+00 0.000e+00 5.788e-05 -1.097e-03 3.521e-04
23 1 1.000e-01 0.000e+00 0.000e+00 5.104e-04 -3.816e-04 -5.082e-04
24 1 0.000e+00 -2.000e-01 0.000e+00 6.786e-04 1.394e-03 -2.208e-04
