ITEM: TIMESTEP
0
ITEM: NUMBER OF ATOMS
12
ITEM: BOX BOUNDS xy xz yz pp pp pp
                     -5.00000000000000e-01 5.00000000000000e-01 0.00000000000000e+00
-5.00000000000000e-01	5.00000000000000e-01	0.00000000000000e+00
-5.00000000000000e-01	5.00000000000000e-01	0.00000000000000e+00
ITEM: ATOMS id type x y z DisplacementX DisplacementY DisplacementZ
1 1 0.000e+00 -2.000e-01 0.000e+00 -7.329e-04 5.133e-04 1.602e-04
2 1 0.000e+00 0.000e+00 0.000e+00 -6.531e-04 1.004e-01 6.730e-04
3 1 -2.000e-01 0.000e+00 0.000e+00 1.333e-03 7.666e-04 -4.990e-05
4 1 0.000e+00 2.000e-01 0.000e+00 -1.268e-03 1.531e-03 6.018e-04
5 1 -1.000e-01 1.000e-01 0.000e+00 4.812e-04 -2.076e-03 -1.135e-03
6 1 1.000e-01 0.000e+00 0.000e+00 9.431e-04 1.131e-03 1.640e-03
7 1 -1.000e-01 0.000e+00 0.000e+00 1.824e-03 -2.957e-04 2.116e-03
8 1 1.000e-01 -1.000e-01 0.000e+00 6.036e-04 -5.660e-04 -1.323e-03
9 1 0.000e+00 -1.000e-01 0.000e+00 4.070e-05 5.052e-04 2.098e-03
10 1 -1.000e-01 -1.000e-01 0.000e+00 4.734e-04 -1.251e-03 3.711e-04
11 1 2.000e-01 0.000e+00 0.000e+00 5.199e-04 -3.770e-04 -8.727e-04
12 1 1.000e-01 1.000e-01 0.000e+00 -2.513e-04 8.179e-04 -6.881e-04
ITEM: TIMESTEP
0
ITEM: NUMBER OF ATOMS
12
ITEM: BOX BOUNDS xy xz yz pp pp pp
                     -5.00000000000000e-01 5.00000000000000e-01 0.00000000000000e+00
-5.00000000000000e-01	5.00000000000000e-01	0.00000000000000e+00
-5.00000000000000e-01	5.00000000000000e-01	0.00000000000000e+00
ITEM: ATOMS id type x y z DisplacementX DisplacementY DisplacementZ
13 1 0.000e+00 2.000e-01 0.000e+00 -7.688e-04 -1.597e-05 -1.533e-04
14 1 1.000e-01 1.000e-01 0.000e+00 3.984e-04 2.327e-04 5.586e-04
15 1 0.000e+00 -2.000e-01 0.000e+00 -7.222e-04 -1.614e-03 -3.436e-04
16 1 0.000e+00 0.000e+00 0.000e+00 -1.420e-04 -1.007e-01 1.382e-03
17 1 -1.000e-01 -1.000e-01 0.000e+00 8.189e-05 -1.439e-03 -1.671e-03
18 1 -1.000e-01 0.000e+00 0.000e+00 7.603e-05 -1.161e-04 2.801e-04
19 1 0.000e+00 1.000e-01 0.000e+00 -8.984e-05 -6.328e-04 1.991e-03
20 1 -2.000e-01 0.000e+00 0.000e+00 2.661e-04 9.120e-04 -1.442e-03
21 1 -1.000e-01 1.000e-01 0.000e+00 2.717e-04 -9.611e-04 -1.965e-03
22 1 2.000e-01 0.000e+00 0.000e+00 2.325e-04 -2.120e-04 -8.976e-05
23 1 1.000e-01 0.000e+00 0.000e+00 -5.194e-04 -9.876e-04 -5.120e-04
24 1 1.000e-01 -1.000e-01 0.000e+00 7.793e-04 2.331e-03 -4.484e-04
ITEM: TIMESTEP
0
ITEM: NUMBER OF ATOMS
12
ITEM: BOX BOUNDS xy xz yz pp pp pp
                     -5.00000000000000e-01 5.00000000000000e-01 0.00000000000000e+00
-5.00000000000000e-01	5.00000000000000e-01	0.00000000000000e+00
-5.00000000000000e-01	5.00000000000000e-01	0.00000000000000e+00
ITEM: ATOMS id type x y z DisplacementX DisplacementY DisplacementZ
25 1 1.000e-01 -1.000e-01 0.000e+00 1.125e-03 -1.019e-03 -6.783e-04
26 1 -1.000e-01 -1.000e-01 0.000e+00 5.362e-04 -1.502e-04 4.312e-04
27 1 1.000e-01 1.000e-01 0.000e+00 -1.097e-03 2.132e-05 1.184e-03
28 1 0.000e+00 0.000e+00 0.000e+00 9.883e-02 -2.007e-03 1.169e-03
29 1 0.000e+00 1.000e-01 0.000e+00 -8.685e-04 -8.033e-04 7.261e-04
30 1 -1.000e-01 0.000e+00 0.000e+00 -7.789e-04 -1.202e-03 1.110e-03
31 1 -1.000e-01 1.000e-01 0.000e+00 -3.094e-04 1.711e-04 2.052e-03
32 1 0.000e+00 2.000e-01 0.000e+00 2.880e-04 2.024e-03 3.964e-04
33 1 0.000e+00 -1.000e-01 0.000e+00 -1.926e-04 -8.042e-04 -5.874e-04
34 1 0.000e+00 -2.000e-01 0.000e+00 1.067e-04 -3.810e-05 2.767e-04
35 1 -2.000e-01 0.000e+00 0.000e+00 -9.851e-04 2.355e-03 1.304e-03
36 1 2.000e-01 0.000e+00 0.000e+00 2.270e-03 -9.736e-04 2.619e-03
ITEM: TIMESTEP
0
ITEM: NUMBER OF ATOMS
12
ITEM: BOX BOUNDS xy xz yz pp pp pp
                     -5.00000000000000e-01 5.00000000000000e-01 0.00000000000000e+00
-5.00000000000000e-01	5.00000000000000e-01	0.00000000000000e+00
-5.00000000000000e-01	5.00000000000000e-01	0.00000000000000e+00
ITEM: ATOMS id type x y z DisplacementX DisplacementY DisplacementZ
37 1 0.000e+00 2.000e-01 0.000e+00 -6.923e-04 -9.570e-04 -9.573e-04
38 1 -1.000e-01 -1.000e-01 0.000e+00 -1.170e-03 -4.511e-04 1.230e-03
39 1 -1.000e-01 1.000e-01 0.000e+00 1.484e-03 -4.232e-04 -1.434e-04
40 1 1.000e-01 0.000e+00 0.000e+00 -7.848e-04 -3.906e-04 -3.363e-04
41 1 -2.000e-01 0.000e+00 0.000e+00 2.903e-03 -1.545e-03 3.505e-04
42 1 2.000e-01 0.000e+00 0.000e+00 -9.199e-05 -1.435e-03 1.542e-03
43 1 0.000e+00 -1.000e-01 0.000e+00 8.116e-04 3.635e-04 4.849e-04
44 1 0.000e+00 -2.000e-01 0.000e+00 -4.409e-04 1.721e-03 1.833e-04
45 1 1.000e-01 1.000e-01 0.000e+00 -9.773e-04 2.039e-03 1.775e-03
46 1 1.000e-01 -1.000e-01 0.000e+00 -1.550e-03 -8.569e-04 1.493e-03
47 1 0.000e+00 1.000e-01 0.000e+00 -4.032e-04 2.618e-04 -1.739e-03
48 1 0.000e+00 0.000e+00 0.000e+00 -9.988e-02 -6.575e-04 7.887e-04
ITEM: TIMESTEP
0
ITEM: NUMBER OF ATOMS
12
ITEM: BOX BOUNDS xy xz yz pp pp pp
                     -5.00000000000000e-01 5.00000000000000e-01 0.00000000000000e+00
-5.00000000000000e-01	5.00000000000000e-01	0.00000000000000e+00
-5.00000000000000e-01	5.00000000000000e-01	0.00000000000000e+00
ITEM: ATOMS id type x y z DisplacementX DisplacementY DisplacementZ
49 1 -1.000e-01 0.000e+00 0.000e+00 4.621e-04 1.100e-03 9.055e-04
50 1 -2.000e-01 0.000e+00 0.000e+00 -1.123e-03 -1.440e-03 -7.080e-04
51 1 0.000e+00 1.000e-01 0.000e+00 -2.234e-04 1.808e-03 -7.189e-04
52 1 2.000e-01 0.000e+00 0.000e+00 1.158e-03 -6.529e-04 9.083e-04
53 1 0.000e+00 2.000e-01 0.000e+00 1.518e-03 3.866e-04 1.571e-04
54 1 1.000e-01 0.000e+00 0.000e+00 -1.088e-03 -1.189e-04 4.714e-04
55 1 1.000e-01 1.000e-01 0.000e+00 -5.130e-04 -5.565e-04 -7.908e-04
56 1 0.000e+00 0.000e+00 0.000e+00 -7.208e-05 -9.895e-02 -5.250e-04
57 1 -1.000e-01 1.000e-01 0.000e+00 2.098e-04 -1.685e-03 1.759e-03
58 1 -1.000e-01 -1.000e-01 0.000e+00 1.639e-03 -8.652e-04 -5.103e-04
59 1 1.000e-01 -1.000e-01 0.000e+00 1.118e-03 -5.860e-04 7.212e-04
60 1 0.000e+00 -2.000e-01 0.000e+00 1.409e-03 -3.989e-04 1.185e-03
ITEM: TIMESTEP
0
ITEM: NUMBER OF ATOMS
12
ITEM: BOX BOUNDS xy xz yz pp pp pp
                     -5.00000000000000e-01 5.00000000000000e-01 0.00000000000000e+00
-5.00000000000000e-01	5.00000000000000e-01	0.00000000000000e+00
-5.00000000000000e-01	5.00000000000000e-01	0.00000000000000e+00
ITEM: ATOMS id type x y z DisplacementX DisplacementY DisplacementZ
61 1 0.000e+00 1.000e-01 0.000e+00 -1.719e-04 -1.732e-04 5.086e-04
62 1 -2.000e-01 0.000e+00 0.000e+00 2.122e-03 -7.426e-04 9.709e-04
63 1 -1.000e-01 0.000e+00 0.000e+00 6.386e-04 -1.603e-03 1.709e-03
64 1 -1.000e-01 1.000e-01 0.000e+00 -9.197e-04 -2.111e-04 -8.352e-04
65 1 -1.000e-01 -1.000e-01 0.000e+00 2.815e-04 -1.203e-03 1.750e-03
66 1 0.000e+00 -2.000e-01 0.000e+00 1.466e-03 7.737e-05 3.463e-04
67 1 1.000e-01 1.000e-01 0.000e+00 1.413e-04 4.864e-04 3.221e-04
68 1 0.000e+00 2.000e-01 0.000e+00 5.216e-04 -1.192e-03 -9.746e-05
69 1 0.000e+00 0.000e+00 0.000e+00 9.909e-02 2.165e-04 2.456e-04
70 1 2.000e-01 0.000e+00 0.000e+00 -3.231e-04 1.888e-04 3.728e-04
71 1 1.000e-01 -1.000e-01 0.000e+00 9.045e-04 9.743e-04 5.682e-04
72 1 0.000e+00 -1.000e-01 0.000e+00 -6.222e-04 1.351e-03 -6.035e-04
ITEM: TIMESTEP
0
ITEM: NUMBER OF ATOMS
12
ITEM: BOX BOUNDS xy xz yz pp pp pp
                     -5.00000000000000e-01 5.00000000000000e-01 0.00000000000000e+00
-5.00000000000000e-01	5.00000000000000e-01	0.00000000000000e+00
-5.00000000000000e-01	5.00000000000000e-01	0.00000000000000e+00
ITEM: ATOMS id type x y z DisplacementX DisplacementY DisplacementZ
73 1 1.000e-01 0.000e+00 0.000e+00 7.393e-04 8.680e-04 -1.519e-03
74 1 1.000e-01 1.000e-01 0.000e+00 -1.527e-03 1.539e-04 -7.553e-04
75 1 0.000e+00 -1.000e-01 0.000e+00 1.508e-03 -5.850e-04 -2.089e-05
76 1 0.000e+00 1.000e-01 0.000e+00 -2.123e-04 1.206e-03 1.730e-04
77 1 0.000e+00 2.000e-01 0.000e+00 1.093e-04 -3.519e-04 -5.459e-04
78 1 -1.000e-01 1.000e-01 0.000e+00 1.463e-03 -8.519e-04 8.660e-04
79 1 -2.000e-01 0.000e+00 0.000e+00 -7.922e-05 -1.914e-05 -1.945e-03
80 1 1.000e-01 -1.000e-01 0.000e+00 -1.917e-03 1.365e-03 -3.579e-04
81 1 0.000e+00 0.000e+00 0.000e+00 -1.015e-01 -7.742e-04 -1.475e-03
82 1 -1.000e-01 -1.000e-01 0.000e+00 9.399e-04 -8.835e-04 5.455e-05
83 1 0.000e+00 -2.000e-01 0.000e+00 1.393e-03 -2.846e-04 -1.102e-03
84 1 2.000e-01 0.000e+00 0.000e+00 -5.893e-05 3.787e-04 -1.151e-03
ITEM: TIMESTEP
0
ITEM: NUMBER OF ATOMS
12
ITEM: BOX BOUNDS xy xz yz pp pp pp
                     -5.00000000000000e-01 5.00000000000000e-01 0.00000000000000e+00
-5.00000000000000e-01	5.00000000000000e-01	0.00000000000000e+00
-5.00000000000000e-01	5.00000000000000e-01	0.00000000000000e+00
ITEM: ATOMS id type x y z DisplacementX DisplacementY DisplacementZ
85 1 1.000e-01 0.000e+00 0.000e+00 -5.834e-04 -1.255e-03 1.013e-03
86 1 0.000e+00 -1.000e-01 0.000e+00 8.566e-04 -1.028e-03 2.612e-04
87 1 -2.000e-01 0.000e+00 0.000e+00 -6.556e-04 1.010e-03 -4.752e-04
88 1 -1.000e-01 -1.000e-01 0.000e+00 6.536e-04 5.799e-04 7.145e-04
89 1 0.000e+00 2.000e-01 0.000e+00 9.499e-04 -1.652e-04 6.571e-04
90 1 -1.000e-01 1.000e-01 0.000e+00 1.115e-04 -9.549e-04 1.172e-03
91 1 0.000e+00 -2.000e-01 0.000e+00 1.181e-03 7.712e-04 1.253e-04
92 1 2.000e-01 0.000e+00 0.000e+00 -7.297e-04 -1.068e-03 4.972e-04
93 1 1.000e-01 1.000e-01 0.000e+00 4.492e-05 2.895e-05 1.867e-03
94 1 0.000e+00 0.000e+00 0.000e+00 -1.181e-04 9.959e-02 -1.768e-03
95 1 -1.000e-01 0.000e+00 0.000e+00 -1.325e-03 -6.588e-04 2.843e-04
96 1 1.000e-01 -1.000e-01 0.000e+00 -9.024e-04 -1.055e-03 -6.415e-04
ITEM: TIMESTEP
0
ITEM: NUMBER OF ATOMS
12
ITEM: BOX BOUNDS xy xz yz pp pp pp
                     -5.00000000000000e-01 5.00000000000000e-01 0.00000000000000e+00
-5.00000000000000e-01	5.00000000000000e-01	0.00000000000000e+00
-5.00000000000000e-01	5.00000000000000e-01	0.00000000000000e+00
ITEM: ATOMS id type x y z DisplacementX DisplacementY DisplacementZ
97 1 -1.000e-01 1.000e-01 0.000e+00 -1.217e-03 -5.364e-04 -1.896e-03
98 1 -1.000e-01 0.000e+00 0.000e+00 -5.439e-04 -1.028e-04 -1.199e-03
99 1 2.000e-01 0.000e+00 0.000e+00 1.239e-03 5.371e-04 -7.816e-04
100 1 1.000e-01 0.000e+00 0.000e+00 4.170e-04 -7.035e-04 -3.630e-04
101 1 0.000e+00 0.000e+00 0.000e+00 1.553e-03 -1.006e-01 -7.051e-05
102 1 0.000e+00 -2.000e-01 0.000e+00 1.110e-03 -1.291e-03 1.116e-03
103 1 -1.000e-01 -1.000e-01 0.000e+00 -1.349e-03 -8.638e-04 -1.372e-03
104 1 0.000e+00 1.000e-01 0.000e+00 -9.838e-04 -3.144e-05 1.082e-03
105 1 1.000e-01 -1.000e-01 0.000e+00 1.227e-04 8.829e-04 1.511e-03
106 1 1.000e-01 1.000e-01 0.000e+00 1.850e-04 -1.887e-04 -3.251e-04
107 1 -2.000e-01 0.000e+00 0.000e+00 1.519e-04 -3.356e-04 -8.814e-04
108 1 0.000e+00 2.000e-01 0.000e+00 7.565e-04 4.277e-04 -8.501e-04
ITEM: TIMESTEP
0
ITEM: NUMBER OF ATOMS
12
ITEM: BOX BOUNDS xy xz yz pp pp pp
                     -5.00000000000000e-01 5.00000000000000e-01 0.00000000000000e+00
-5.00000000000000e-01	5.00000000000000e-01	0.00000000000000e+00
-5.00000000000000e-01	5.00000000000000e-01	0.00000000000000e+00
ITEM: ATOMS id type x y z DisplacementX DisplacementY DisplacementZ
109 1 2.000e-01 0.000e+00 0.000e+00 1.792e-03 3.666e-04 1.140e-04
110 1 1.000e-01 0.000e+00 0.000e+00 1.459e-04 -3.950e-04 -1.045e-03
111 1 0.000e+00 -2.000e-01 0.000e+00 -1.036e-03 6.323e-04 3.197e-04
112 1 0.000e+00 2.000e-01 0.000e+00 6.614e-04 -6.721e-04 -1.711e-03
113 1 -2.000e-01 0.000e+00 0.000e+00 8.226e-04 1.269e-03 -1.257e-03
114 1 0.000e+00 0.000e+00 0.000e+00 -1.082e-03 9.867e-02 -2.671e-05
115 1 -1.000e-01 1.000e-01 0.000e+00 -5.843e-04 -9.848e-04 2.003e-03
116 1 -1.000e-01 0.000e+00 0.000e+00 -1.430e-03 2.021e-03 6.006e-05
117 1 1.000e-01 1.000e-01 0.000e+00 -9.543e-04 6.124e-04 -7.564e-04
118 1 -1.000e-01 -1.000e-01 0.000e+00 9.074e-04 -7.750e-04 1.354e-03
119 1 1.000e-01 -1.000e-01 0.000e+00 -8.169e-04 1.144e-03 9.311e-04
120 1 0.000e+00 -1.000e-01 0.000e+00 3.783e-04 -8.020e-04 1.507e-04
ITEM: TIMESTEP
0
ITEM: NUMBER OF ATOMS
12
ITEM: BOX BOUNDS xy xz yz pp pp pp
                     -5.00000000000000e-01 5.00000000000000e-01 0.00000000000000e+00
-5.00000000000000e-01	5.00000000000000e-01	0.00000000000000e+00
-5.00000000000000e-01	5.00000000000000e-01	0.00000000000000e+00
ITEM: ATOMS id type x y z DisplacementX DisplacementY DisplacementZ
121 1 0.000e+00 2.000e-01 0.000e+00 -7.382e-04 -5.970e-04 -8.014e-04
122 1 0.000e+00 1.000e-01 0.000e+00 -1.365e-03 5.407e-04 -1.240e-03
123 1 1.000e-01 1.000e-01 0.000e+00 4.220e-04 -2.910e-04 -3.803e-04
124 1 -1.000e-01 -1.000e-01 0.000e+00 -8.211e-04 -6.247e-04 1.152e-03
125 1 1.000e-01 -1.000e-01 0.000e+00 -1.502e-04 -6.784e-04 -1.733e-03
126 1 0.000e+00 0.000e+00 0.000e+00 1.007e-01 2.332e-03 5.240e-04
127 1 0.000e+00 -1.000e-01 0.000e+00 5.725e-04 1.419e-03 -1.050e-03
128 1 -1.000e-01 0.000e+00 0.000e+00 -5.018e-04 4.896e-04 4.666e-04
129 1 -2.000e-01 0.000e+00 0.000e+00 -7.970e-04 -8.343e-04 -8.157e-05
130 1 2.000e-01 0.000e+00 0.000e+00 1.285e-03 2.775e-04 -1.895e-03
131 1 0.000e+00 -2.000e-01 0.000e+00 -2.232e-04 -2.627e-04 -6.916e-04
132 1 -1.000e-01 1.000e-01 0.000e+00 -7.274e-04 -4.585e-04 2.149e-03
ITEM: TIMESTEP
0
ITEM: NUMBER OF ATOMS
12
ITEM: BOX BOUNDS xy xz yz pp pp pp
                     -5.00000000000000e-01 5.00000000000000e-01 0.00000000000000e+00
-5.00000000000000e-01	5.00000000000000e-01	0.00000000000000e+00
-5.00000000000000e-01	5.00000000000000e-01	0.00000000000000e+00
ITEM: ATOMS id type x y z DisplacementX DisplacementY DisplacementZ
133 1 2.000e-01 0.000e+00 0.000e+00 -1.060e-03 1.552e-03 -2.550e-03
134 1 1.000e-01 -1.000e-01 0.000e+00 2.186e-05 -4.131e-04 -5.596e-04
135 1 1.000e-01 0.000e+00 0.000e+00 2.378e-04 7.133e-04 -4.594e-04
136 1 0.000e+00 -1.000e-01 0.000e+00 1.001e-03 3.989e-04 -9.205e-04
137 1 1.000e-01 1.000e-01 0.000e+00 1.415e-03 -1.929e-04 7.074e-04
138 1 0.000e+00 1.000e-01 0.000e+00 2.344e-03 1.205e-03 1.097e-03
139 1 -1.000e-01 1.000e-01 0.000e+00 1.742e-03 -1.001e-03 2.833e-04
140 1 -1.000e-01 -1.000e-01 0.000e+00 -3.422e-04 -9.015e-04 -2.649e-04
141 1 -2.000e-01 0.000e+00 0.000e+00 1.242e-03 -1.017e-03 -2.934e-04
142 1 0.000e+00 0.000e+00 0.000e+00 -9.963e-02 -6.644e-05 -1.133e-04
143 1 0.000e+00 2.000e-01 0.000e+00 -6.755e-04 4.427e-04 1.171e-03
144 1 0.000e+00 -2.000e-01 0.000e+00 7.699e-04 8.124e-05 1.677e-04
ITEM: TIMESTEP
0
ITEM: NUMBER OF ATOMS
12
ITEM: BOX BOUNDS xy xz yz pp pp pp
                     -5.00000000000000e-01 5.00000000000000e-01 0.00000000000000e+00
-5.00000000000000e-01	5.00000000000000e-01	0.00000000000000e+00
-5.00000000000000e-01	5.00000000000000e-01	0.00000000000000e+00
ITEM: ATOMS id type x y z DisplacementX DisplacementY DisplacementZ
145 1 0.000e+00 0.000e+00 0.000e+00 1.180e-03 -9.833e-02 1.096e-03
146 1 0.000e+00 -2.000e-01 0.000e+00 1.334e-04 -6.633e-04 5.671e-04
147 1 0.000e+00 1.000e-01 0.000e+00 1.820e-04 1.796e-03 -1.305e-03
148 1 -2.000e-01 0.000e+00 0.000e+00 -4.015e-04 7.881e-04 -1.574e-04
149 1 0.000e+00 2.000e-01 0.000e+00 7.426e-04 -4.612e-04 1.732e-04
150 1 -1.000e-01 -1.000e-01 0.000e+00 -8.043e-04 6.845e-04 1.777e-03
151 1 1.000e-01 0.000e+00 0.000e+00 2.744e-04 1.435e-03 -1.225e-03
152 1 1.000e-01 1.000e-01 0.000e+00 3.803e-04 1.226e-03 6.510e-04
153 1 -1.000e-01 0.000e+00 0.000e+00 1.457e-03 1.920e-03 1.143e-03
154 1 -1.000e-01 1.000e-01 0.000e+00 1.349e-03 1.598e-03 4.373e-04
155 1 1.000e-01 -1.000e-01 0.000e+00 -7.497e-04 -1.612e-03 -6.689e-04
156 1 2.000e-01 0.000e+00 0.000e+00 -1.604e-03 1.545e-04 1.082e-03
ITEM: TIMESTEP
0
ITEM: NUMBER OF ATOMS
12
ITEM: BOX BOUNDS xy xz yz pp pp pp
                     -5.00000000000000e-01 5.00000000000000e-01 0.00000000000000e+00
-5.00000000000000e-01	5.00000000000000e-01	0.00000000000000e+00
-5.00000000000000e-01	5.00000000000000e-01	0.00000000000000e+00
ITEM: ATOMS id type x y z DisplacementX DisplacementY DisplacementZ
157 1 0.000e+00 2.000e-01 0.000e+00 1.382e-03 1.117e-04 -1.650e-03
158 1 0.000e+00 0.000e+00 0.000e+00 9.325e-04 1.009e-01 -1.190e-04
159 1 -1.000e-01 -1.000e-01 0.000e+00 -9.258e-04 -1.876e-04 2.268e-04
160 1 0.000e+00 -2.000e-01 0.000e+00 -5.606e-04 -5.767e-04 -8.922e-04
161 1 1.000e-01 -1.000e-01 0.000e+00 1.128e-04 -8.364e-05 3.265e-04
162 1 -1.000e-01 1.000e-01 0.000e+00 -8.864e-04 -1.194e-03 -1.705e-03
163 1 -2.000e-01 0.000e+00 0.000e+00 1.229e-03 -5.542e-05 4.772e-04
164 1 -1.000e-01 0.000e+00 0.000e+00 -3.927e-04 4.969e-04 -1.134e-03
165 1 2.000e-01 0.000e+00 0.000e+00 -1.044e-04 4.902e-04 -1.232e-03
166 1 1.000e-01 1.000e-01 0.000e+00 -1.553e-03 1.760e-03 -7.313e-04
167 1 1.000e-01 0.000e+00 0.000e+00 3.329e-04 8.660e-04 -5.722e-04
168 1 0.000e+00 -1.000e-01 0.000e+00 -6.938e-04 8.052e-04 4.544e-04
ITEM: TIMESTEP
0
ITEM: NUMBER OF ATOMS
12
ITEM: BOX BOUNDS xy xz yz pp pp pp
                     -5.00000000000000e-01 5.00000000000000e-01 0.00000000000000e+00
-5.00000000000000e-01	5.00000000000000e-01	0.00000000000000e+00
-5.00000000000000e-01	5.00000000000000e-01	0.00000000000000e+00
ITEM: ATOMS id type x y z DisplacementX DisplacementY DisplacementZ
169 1 -2.000e-01 0.000e+00 0.000e+00 3.393e-04 5.128e-05 7.247e-04
170 1 -1.000e-01 0.000e+00 0.000e+00 2.089e-04 2.192e-03 -4.355e-04
171 1 1.000e-01 1.000e-01 0.000e+00 8.601e-04 1.081e-03 1.991e-04
172 1 1.000e-01 -1.000e-01 0.000e+00 -7.881e-05 1.249e-03 -1.895e-03
173 1 0.000e+00 -2.000e-01 0.000e+00 4.060e-04 8.529e-04 4.148e-04
174 1 -1.000e-01 1.000e-01 0.000e+00 9.750e-04 4.513e-04 -2.975e-04
175 1 0.000e+00 0.000e+00 0.000e+00 1.009e-01 -3.979e-05 -8.015e-04
176 1 0.000e+00 1.000e-01 0.000e+00 -4.336e-04 -1.607e-03 -6.183e-04
177 1 0.000e+00 2.000e-01 0.000e+00 1.082e-03 4.873e-04 1.021e-05
178 1 -1.000e-01 -1.000e-01 0.000e+00 -8.363e-04 1.360e-03 -6.008e-04
179 1 0.000e+00 -1.000e-01 0.000e+00 3.605e-04 -9.841e-04 -1.521e-03
180 1 2.000e-01 0.000e+00 0.000e+00 1.364e-03 9.670e-04 -5.947e-04
ITEM: TIMESTEP
0
ITEM: NUMBER OF ATOMS
12
ITEM: BOX BOUNDS xy xz yz pp pp pp
                     -5.00000000000000e-01 5.00000000000000e-01 0.00000000000000e+00
-5.00000000000000e-01	5.00000000000000e-01	0.00000000000000e+00
-5.00000000000000e-01	5.00000000000000e-01	0.00000000000000e+00
ITEM: ATOMS id type x y z DisplacementX DisplacementY DisplacementZ
181 1 -1.000e-01 1.000e-01 0.000e+00 -2.449e-04 1.373e-03 -8.264e-04
182 1 -1.000e-01 -1.000e-01 0.000e+00 -4.721e-04 1.345e-03 4.547e-04
183 1 1.000e-01 0.000e+00 0.000e+00 8.780e-04 -6.540e-05 1.223e-04
184 1 0.000e+00 -2.000e-01 0.000e+00 1.096e-03 4.072e-04 -1.156e-04
185 1 -2.000e-01 0.000e+00 0.000e+00 -1.224e-03 6.923e-05 2.377e-04
186 1 0.000e+00 1.000e-01 0.000e+00 -5.304e-04 3.870e-04 -5.279e-04
187 1 0.000e+00 2.000e-01 0.000e+00 -1.531e-03 8.320e-04 -2.191e-03
188 1 2.000e-01 0.000e+00 0.000e+00 -1.968e-03 9.615e-04 -1.439e-03
189 1 1.000e-01 -1.000e-01 0.000e+00 -8.523e-04 5.408e-05 2.407e-03
190 1 0.000e+00 0.000e+00 0.000e+00 -9.951e-02 -6.444e-05 -1.277e-03
191 1 0.000e+00 -1.000e-01 0.000e+00 1.652e-03 -5.718e-04 4.811e-04
192 1 1.000e-01 1.000e-01 0.000e+00 4.005e-04 7.583e-04 3.967e-04
ITEM: TIMESTEP
0
ITEM: NUMBER OF ATOMS
12
ITEM: BOX BOUNDS xy xz yz pp pp pp
                     -5.00000000000000e-01 5.00000000000000e-01 0.00000000000000e+00
-5.00000000000000e-01	5.00000000000000e-01	0.00000000000000e+00
-5.00000000000000e-01	5.00000000000000e-01	0.00000000000000e+00
ITEM: ATOMS id type x y z DisplacementX DisplacementY DisplacementZ
193 1 0.000e+00 1.000e-01 0.000e+00 6.281e-04 -1.063e-04 -6.829e-04
194 1 0.000e+00 2.000e-01 0.000e+00 3.656e-04 5.195e-04 1.001e-03
195 1 1.000e-01 1.000e-01 0.000e+00 7.486e-04 1.669e-05 4.742e-04
196 1 0.000e+00 0.000e+00 0.000e+00 5.593e-04 -1.007e-01 4.776e-04
197 1 -1.000e-01 0.000e+00 0.000e+00 2.617e-03 8.352e-04 -7.711e-04
198 1 1.000e-01 -1.000e-01 0.000e+00 -2.079e-03 -5.324e-04 -3.828e-04
199 1 1.000e-01 0.000e+00 0.000e+00 1.075e-03 1.144e-04 3.405e-04
200 1 0.000e+00 -2.000e-01 0.000e+00 2.625e-04 2.294e-04 -2.657e-04
201 1 -1.000e-01 -1.000e-01 0.000e+00 -3.533e-04 5.184e-04 -1.043e-03
202 1 -2.000e-01 0.000e+00 0.000e+00 1.299e-03 1.497e-03 -1.731e-03
203 1 -1.000e-01 1.000e-01 0.000e+00 2.243e-03 8.007e-04 -3.209e-05
204 1 2.000e-01 0.000e+00 0.000e+00 5.892e-04 2.408e-04 -4.043e-04
ITEM: TIMESTEP
0
ITEM: NUMBER OF ATOMS
12
ITEM: BOX BOUNDS xy xz yz pp pp pp
                     -5.00000000000000e-01 5.00000000000000e-01 0.00000000000000e+00
-5.00000000000000e-01	5.00000000000000e-01	0.00000000000000e+00
-5.00000000000000e-01	5.00000000000000e-01	0.00000000000000e+00
ITEM: ATOMS id type x y z DisplacementX DisplacementY DisplacementZ
205 1 0.000e+00 2.000e-01 0.000e+00 -5.770e-04 -1.244e-03 1.306e-03
206 1 -1.000e-01 1.000e-01 0.000e+00 -8.316e-05 -3.079e-04 7.174e-04
207 1 2.000e-01 0.000e+00 0.000e+00 1.063e-03 -1.406e-04 -2.136e-04
208 1 0.000e+00 0.000e+00 0.000e+00 -1.010e-01 2.650e-04 1.446e-04
209 1 0.000e+00 1.000e-01 0.000e+00 8.880e-04 -1.394e-03 -5.251e-04
210 1 1.000e-01 -1.000e-01 0.000e+00 7.651e-04 -1.438e-03 1.355e-04
211 1 -1.000e-01 -1.000e-01 0.000e+00 -2.673e-04 -2.552e-04 6.463e-05
212 1 1.000e-01 0.000e+00 0.000e+00 -4.785e-04 -1.556e-03 -4.375e-04
213 1 -2.000e-01 0.000e+00 0.000e+00 1.426e-03 -9.788e-04 -6.387e-04
214 1 0.000e+00 -1.000e-01 0.000e+00 -1.277e-04 4.672e-04 1.916e-03
215 1 0.000e+00 -2.000e-01 0.000e+00 -1.528e-03 1.431e-03 -2.764e-04
216 1 1.000e-01 1.000e-01 0.000e+00 1.027e-03 -2.247e-04 8.530e-04
ITEM: TIMESTEP
0
ITEM: NUMBER OF ATOMS
12
ITEM: BOX BOUNDS xy xz yz pp pp pp
                     -5.00000000000000e-01 5.00000000000000e-01 0.00000000000000e+00
-5.00000000000000e-01	5.00000000000000e-01	0.00000000000000e+00
-5.00000000000000e-01	5.00000000000000e-01	0.00000000000000e+00
ITEM: ATOMS id type x y z DisplacementX DisplacementY DisplacementZ
217 1 -1.000e-01 0.000e+00 0.000e+00 2.663e-04 -1.092e-03 1.087e-03
218 1 0.000e+00 2.000e-01 0.000e+00 -2.350e-05 2.764e-04 -2.215e-04
219 1 1.000e-01 1.000e-01 0.000e+00 -5.666e-04 -3.348e-04 -6.146e-05
220 1 0.000e+00 -2.000e-01 0.000e+00 -8.726e-04 -2.241e-03 7.228e-04
221 1 -2.000e-01 0.000e+00 0.000e+00 9.471e-04 2.232e-03 -1.276e-03
222 1 2.000e-01 0.000e+00 0.000e+00 -8.438e-04 -8.261e-07 9.078e-04
223 1 0.000e+00 0.000e+00 0.000e+00 -1.769e-03 9.978e-02 -4.440e-04
224 1 -1.000e-01 1.000e-01 0.000e+00 9.943e-04 6.388e-04 7.690e-04
225 1 1.000e-01 0.000e+00 0.000e+00 4.000e-04 -4.917e-04 -2.408e-04
226 1 -1.000e-01 -1.000e-01 0.000e+00 -5.910e-05 -9.781e-05 1.039e-03
227 1 0.000e+00 -1.000e-01 0.000e+00 1.760e-03 3.956e-04 -6.262e-04
228 1 1.000e-01 -1.000e-01 0.000e+00 1.063e-03 -2.505e-03 -6.206e-04
ITEM: TIMESTEP
0
ITEM: NUMBER OF ATOMS
12
ITEM: BOX BOUNDS xy xz yz pp pp pp
                     -5.00000000000000e-01 5.00000000000000e-01 0.00000000000000e+00
-5.00000000000000e-01	5.00000000000000e-01	0.00000000000000e+00
-5.00000000000000e-01	5.00000000000000e-01	0.00000000000000e+00
ITEM: ATOMS id type x y z DisplacementX DisplacementY DisplacementZ
229 1 0.000e+00 -1.000e-01 0.000e+00 5.863e-04 -2.995e-04 3.200e-04
230 1 1.000e-01 1.000e-01 0.000e+00 1.925e-04 1.088e-03 1.278e-04
231 1 0.000e+00 1.000e-01 0.000e+00 2.144e-04 -6.994e-04 1.072e-03
232 1 2.000e-01 0.000e+00 0.000e+00 -2.651e-03 -7.652e-05 1.103e-03
233 1 -1.000e-01 -1.000e-01 0.000e+00 4.958e-04 -5.732e-04 -1.289e-03
234 1 -2.000e-01 0.000e+00 0.000e+00 2.475e-03 1.583e-03 6.689e-05
235 1 1.000e-01 -1.000e-01 0.000e+00 -7.218e-04 -1.701e-03 -1.024e-03
236 1 0.000e+00 0.000e+00 0.000e+00 9.834e-02 3.113e-05 -1.486e-03
237 1 -1.000e-01 0.000e+00 0.000e+00 3.459e-05 -1.331e-03 6.299e-04
238 1 -1.000e-01 1.000e-01 0.000e+00 1.585e-03 8.116e-04 -1.672e-03
239 1 0.000e+00 -2.000e-01 0.000e+00 -1.580e-03 8.371e-04 2.028e-04
240 1 0.000e+00 2.000e-01 0.000e+00 -2.663e-04 -5.137e-04 2.178e-04
ITEM: TIMESTEP
0
ITEM: NUMBER OF ATOMS
12
ITEM: BOX BOUNDS xy xz yz pp pp pp
                     -5.00000000000000e-01 5.00000000000000e-01 0.00000000000000e+00
-5.00000000000000e-01	5.00000000000000e-01	0.00000000000000e+00
-5.00000000000000e-01	5.00000000000000e-01	0.00000000000000e+00
ITEM: ATOMS id type x y z DisplacementX DisplacementY DisplacementZ
241 1 0.000e+00 2.000e-01 0.000e+00 -4.187e-04 -5.208e-04 -1.163e-03
242 1 1.000e-01 0.000e+00 0.000e+00 8.490e-04 8.236e-04 1.299e-03
243 1 0.000e+00 -1.000e-01 0.000e+00 1.857e-04 7.363e-04 1.065e-03
244 1 0.000e+00 0.000e+00 0.000e+00 -9.978e-02 9.130e-04 1.060e-03
245 1 -1.000e-01 1.000e-01 0.000e+00 -1.342e-04 1.201e-03 1.655e-03
246 1 2.000e-01 0.000e+00 0.000e+00 -1.166e-04 7.290e-04 1.307e-03
247 1 1.000e-01 -1.000e-01 0.000e+00 -1.397e-03 -1.094e-03 -3.521e-04
248 1 0.000e+00 -2.000e-01 0.000e+00 -3.188e-05 -5.532e-04 -3.292e-04
249 1 -2.000e-01 0.000e+00 0.000e+00 -3.023e-03 -3.471e-04 2.221e-04
250 1 1.000e-01 1.000e-01 0.000e+00 1.644e-03 1.874e-04 1.546e-04
251 1 -1.000e-01 -1.000e-01 0.000e+00 -6.161e-05 3.710e-04 1.087e-03
252 1 0.000e+00 1.000e-01 0.000e+00 -2.527e-04 -4.057e-05 -6.148e-05
ITEM: TIMESTEP
0
ITEM: NUMBER OF ATOMS
12
ITEM: BOX BOUNDS xy xz yz pp pp pp
                     -5.00000000000000e-01 5.00000000000000e-01 0.00000000000000e+00
-5.00000000000000e-01	5.00000000000000e-01	0.00000000000000e+00
-5.00000000000000e-01	5.00000000000000e-01	0.00000000000000e+00
ITEM: ATOMS id type x y z DisplacementX DisplacementY DisplacementZ
253 1 1.000e-01 1.000e-01 0.000e+00 4.177e-04 2.469e-07 -4.428e-04
254 1 -1.000e-01 1.000e-01 0.000e+00 4.914e-04 -1.661e-05 1.199e-03
255 1 0.000e+00 2.000e-01 0.000e+00 -1.436e-04 -7.757e-05 8.566e-04
256 1 -1.000e-01 0.000e+00 0.000e+00 2.484e-04 1.084e-03 2.029e-04
257 1 1.000e-01 -1.000e-01 0.000e+00 -1.452e-03 -3.784e-04 -2.628e-04
258 1 0.000e+00 0.000e+00 0.000e+00 -1.185e-03 -1.001e-01 2.125e-03
259 1 0.000e+00 1.000e-01 0.000e+00 -8.832e-04 -2.927e-04 8.380e-04
260 1 -1.000e-01 -1.000e-01 0.000e+00 -1.435e-04 4.218e-04 1.713e-05
261 1 2.000e-01 0.000e+00 0.000e+00 8.376e-04 9.999e-04 -9.312e-04
262 1 0.000e+00 -2.000e-01 0.000e+00 8.622e-04 1.024e-03 -8.826e-04
263 1 1.000e-01 0.000e+00 0.000e+00 -2.399e-04 1.456e-03 4.316e-04
264 1 -2.000e-01 0.000e+00 0.000e+00 -1.510e-03 -1.703e-03 -5.988e-04
ITEM: TIMESTEP
0
ITEM: NUMBER OF ATOMS
12
ITEM: BOX BOUNDS xy xz yz pp pp pp
                     -5.00000000000000e-01 5.00000000000000e-01 0.00000000000000e+00
-5.00000000000000e-01	5.00000000000000e-01	0.00000000000000e+00
-5.00000000000000e-01	5.00000000000000e-01	0.00000000000000e+00
ITEM: ATOMS id type x y z DisplacementX DisplacementY DisplacementZ
265 1 0.000e+00 2.000e-01 0.000e+00 2.524e-05 7.369e-04 3.465e-04
266 1 0.000e+00 1.000e-01 0.000e+00 -3.541e-04 2.655e-04 -5.302e-04
267 1 2.000e-01 0.000e+00 0.000e+00 3.187e-04 -5.195e-04 -7.670e-04
268 1 -2.000e-01 0.000e+00 0.000e+00 7.382e-04 1.779e-03 -2.492e-04
269 1 1.000e-01 1.000e-01 0.000e+00 1.345e-03 -1.785e-03 3.631e-05
270 1 0.000e+00 -1.000e-01 0.000e+00 2.165e-04 6.380e-04 -1.576e-03
271 1 -1.000e-01 0.000e+00 0.000e+00 1.169e-04 -4.205e-05 7.559e-04
272 1 0.000e+00 0.000e+00 0.000e+00 1.029e-01 -9.214e-04 -9.061e-04
273 1 0.000e+00 -2.000e-01 0.000e+00 -4.107e-05 -2.151e-04 -1.005e-03
274 1 1.000e-01 -1.000e-01 0.000e+00 9.956e-04 7.564e-04 1.882e-04
275 1 -1.000e-01 -1.000e-01 0.000e+00 7.045e-04 -6.994e-05 4.485e-04
276 1 -1.000e-01 1.000e-01 0.000e+00 2.840e-04 1.546e-03 1.614e-03
ITEM: TIMESTEP
0
ITEM: NUMBER OF ATOMS
12
ITEM: BOX BOUNDS xy xz yz pp pp pp
                     -5.00000000000000e-01 5.00000000000000e-01 0.00000000000000e+00
-5.00000000000000e-01	5.00000000000000e-01	0.00000000000000e+00
-5.00000000000000e-01	5.00000000000000e-01	0.00000000000000e+00
ITEM: ATOMS id type x y z DisplacementX DisplacementY DisplacementZ
277 1 1.000e-01 0.000e+00 0.000e+00 5.418e-04 -7.760e-04 -3.931e-05
278 1 1.000e-01 1.000e-01 0.000e+00 4.442e-05 -5.931e-04 -2.791e-03
279 1 0.000e+00 -1.000e-01 0.000e+00 1.968e-03 -1.567e-03 -1.625e-03
280 1 0.000e+00 2.000e-01 0.000e+00 -1.178e-03 -1.252e-04 1.582e-03
281 1 2.000e-01 0.000e+00 0.000e+00 -1.727e-03 1.336e-03 -6.701e-04
282 1 -1.000e-01 0.000e+00 0.000e+00 8.909e-04 -9.860e-04 6.763e-04
283 1 1.000e-01 -1.000e-01 0.000e+00 -1.691e-04 -1.307e-03 5.640e-05
284 1 -1.000e-01 1.000e-01 0.000e+00 8.848e-04 -1.689e-03 -6.815e-05
285 1 0.000e+00 -2.000e-01 0.000e+00 -1.026e-03 -4.334e-04 8.162e-06
286 1 -1.000e-01 -1.000e-01 0.000e+00 -4.585e-04 -1.012e-03 1.092e-03
287 1 0.000e+00 0.000e+00 0.000e+00 2.844e-03 9.930e-02 9.050e-04
288 1 -2.000e-01 0.000e+00 0.000e+00 -3.227e-03 -2.314e-04 -5.869e-05
ITEM: TIMESTEP
0
ITEM: NUMBER OF ATOMS
12
ITEM: BOX BOUNDS xy xz yz pp pp pp
                     -5.00000000000000e-01 5.00000000000000e-01 0.00000000000000e+00
-5.00000000000000e-01	5.00000000000000e-01	0.00000000000000e+00
-5.00000000000000e-01	5.00000000000000e-01	0.00000000000000e+00
ITEM: ATOMS id type x y z DisplacementX DisplacementY DisplacementZ
289 1 0.000e+00 0.000e+00 0.000e+00 2.842e-04 -1.022e-01 -5.099e-04
290 1 -2.000e-01 0.000e+00 0.000e+00 7.746e-04 7.472e-04 1.641e-03
291 1 0.000e+00 2.000e-01 0.000e+00 -6.891e-04 4.889e-05 4.037e-04
292 1 -1.000e-01 0.000e+00 0.000e+00 -2.366e-04 -5.985e-04 1.897e-03
293 1 0.000e+00 -2.000e-01 0.000e+00 -1.794e-03 -5.350e-05 -1.373e-04
294 1 1.000e-01 0.000e+00 0.000e+00 8.249e-04 1.400e-04 1.452e-03
295 1 1.000e-01 1.000e-01 0.000e+00 9.207e-04 6.325e-04 6.372e-04
296 1 -1.000e-01 -1.000e-01 0.000e+00 1.385e-03 2.046e-04 5.223e-04
297 1 1.000e-01 -1.000e-01 0.000e+00 -1.693e-04 -3.694e-04 -5.927e-04
298 1 0.000e+00 1.000e-01 0.000e+00 -3.627e-04 1.369e-03 3.068e-05
299 1 -1.000e-01 1.000e-01 0.000e+00 2.369e-04 4.955e-04 -4.948e-04
300 1 2.000e-01 0.000e+00 0.000e+00 -7.361e-04 -2.856e-04 6.525e-04
ITEM: TIMESTEP
0
ITEM: NUMBER OF ATOMS
12
ITEM: BOX BOUNDS xy xz yz pp pp pp
                     -5.00000000000000e-01 5.00000000000000e-01 0.00000000000000e+00
-5.00000000000000e-01	5.00000000000000e-01	0.00000000000000e+00
-5.00000000000000e-01	5.00000000000000e-01	0.00000000000000e+00
ITEM: ATOMS id type x y z DisplacementX DisplacementY DisplacementZ
301 1 0.000e+00 2.000e-01 0.000e+00 5.442e-04 -2.766e-04 -9.934e-04
302 1 1.000e-01 0.000e+00 0.000e+00 7.589e-04 -1.530e-03 -1.132e-03
303 1 0.000e+00 0.000e+00 0.000e+00 -2.115e-03 9.918e-02 2.145e-03
304 1 1.000e-01 -1.000e-01 0.000e+00 -1.615e-03 -5.227e-04 -4.383e-04
305 1 0.000e+00 -2.000e-01 0.000e+00 1.252e-03 1.302e-03 -6.881e-04