ITEM: TIMESTEP
0
ITEM: NUMBER OF ATOMS
32
ITEM: BOX BOUNDS xy xz yz pp pp pp
                     -5.00000000000000e-01 5.00000000000000e-01 0.00000000000000e+00
-5.00000000000000e-01	5.00000000000000e-01	0.00000000000000e+00
-5.00000000000000e-01	5.00000000000000e-01	0.00000000000000e+00
ITEM: ATOMS id type x y z DisplacementX DisplacementY DisplacementZ
1 1 0.000e+00 -2.000e-01 2.000e-01 -2.128e-04 2.090e-04 6.824e-04
2 1 2.000e-01 2.000e-01 2.000e-01 7.406e-04 8.513e-04 -9.028e-04
3 1 0.000e+00 -2.000e-01 0.000e+00 -1.792e-03 -2.165e-04 1.223e-03
4 1 -2.000e-01 0.000e+00 2.000e-01 1.161e-03 -4.605e-04 2.726e-04
5 1 -2.000e-01 -2.000e-01 0.000e+00 2.000e-04 -1.168e-03 -5.756e-05
6 1 -2.000e-01 2.000e-01 0.000e+00 6.220e-05 1.967e-03 -8.795e-04
7 1 -2.000e-01 -2.000e-01 2.000e-01 -8.738e-04 4.717e-04 9.059e-04
8 1 0.000e+00 0.000e+00 0.000e+00 2.453e-04 -8.238e-04 -1.990e-01
9 1 2.000e-01 -2.000e-01 2.000e-01 2.642e-04 -1.342e-03 -1.043e-03
10 1 0.000e+00 4.000e-01 0.000e+00 7.471e-06 -1.244e-03 -1.188e-03
11 1 0.000e+00 2.000e-01 -2.000e-01 -6.502e-04 1.285e-04 -1.468e-03
12 1 -2.000e-01 2.000e-01 -2.000e-01 -1.004e-04 -8.172e-04 1.401e-03
13 1 -2.000e-01 -2.000e-01 -2.000e-01 -7.726e-04 8.733e-04 1.318e-03
14 1 -2.000e-01 0.000e+00 -2.000e-01 -2.205e-04 4.265e-04 1.236e-03
15 1 2.000e-01 -2.000e-01 -2.000e-01 4.741e-04 1.259e-03 1.312e-03
16 1 0.000e+00 2.000e-01 2.000e-01 -2.793e-04 6.002e-04 -1.199e-03
17 1 4.000e-01 0.000e+00 0.000e+00 -1.842e-04 1.392e-03 5.623e-04
18 1 -2.000e-01 2.000e-01 2.000e-01 -9.327e-06 1.006e-03 1.232e-03
19 1 2.000e-01 0.000e+00 -2.000e-01 9.560e-04 -1.210e-04 -3.561e-04
20 1 2.000e-01 0.000e+00 0.000e+00 7.743e-04 7.953e-04 3.372e-05
21 1 0.000e+00 -2.000e-01 -2.000e-01 1.759e-03 1.710e-04 3.605e-04
22 1 0.000e+00 2.000e-01 0.000e+00 -1.892e-03 -3.008e-04 7.457e-04
23 1 2.000e-01 2.000e-01 -2.000e-01 -1.015e-04 4.882e-04 4.069e-04
24 1 0.000e+00 -4.000e-01 0.000e+00 -2.514e-04 -1.863e-03 5.106e-04
25 1 0.000e+00 0.000e+00 -4.000e-01 1.917e-03 -1.055e-03 9.748e-04
26 1 2.000e-01 -2.000e-01 0.000e+00 -3.973e-04 2.618e-04 -1.110e-04
27 1 -2.000e-01 0.000e+00 0.000e+00 -3.836e-04 9.784e-04 -9.393e-04
28 1 0.000e+00 0.000e+00 4.000e-01 3.744e-04 -1.301e-03 7.484e-04
29 1 2.000e-01 2.000e-01 0.000e+00 9.323e-04 1.268e-04 -2.057e-04
30 1 0.000e+00 0.000e+00 2.000e-01 -7.250e-04 -1.718e-04 3.776e-04
31 1 -4.000e-01 0.000e+00 0.000e+00 -7.830e-04 -9.138e-04 2.449e-04
32 1 2.000e-01 0.000e+00 2.000e-01 7.060e-04 4.771e-04 1.544e-03
ITEM: TIMESTEP
0
ITEM: NUMBER OF ATOMS
32
ITEM: BOX BOUNDS xy xz yz pp pp pp
                     -5.00000000000000e-01 5.00000000000000e-01 0.00000000000000e+00
-5.00000000000000e-01	5.00000000000000e-01	0.00000000000000e+00
-5.00000000000000e-01	5.00000000000000e-01	0.00000000000000e+00
ITEM: ATOMS id type x y z DisplacementX DisplacementY DisplacementZ
33 1 0.000e+00 0.000e+00 -2.000e-01 -2.523e-03 3.583e-04 -1.359e-03
34 1 2.000e-01 2.000e-01 2.000e-01 -3.309e-04 2.794e-04 -3.841e-04
35 1 -2.000e-01 0.000e+00 2.000e-01 -7.610e-04 -2.812e-04 -5.998e-04
36 1 -2.000e-01 2.000e-01 0.000e+00 -1.809e-03 8.201e-04 2.759e-04
37 1 0.000e+00 -2.000e-01 2.000e-01 6.010e-04 -1.594e-04 3.736e-04
38 1 0.000e+00 2.000e-01 2.000e-01 8.246e-05 -1.961e-05 -4.529e-04
39 1 4.000e-01 0.000e+00 0.000e+00 8.467e-04 5.570e-04 1.677e-03
40 1 2.000e-01 -2.000e-01 -2.000e-01 1.887e-03 -5.607e-04 -8.950e-04
41 1 0.000e+00 0.000e+00 0.000e+00 -9.134e-04 -2.011e-01 -7.799e-05
42 1 0.000e+00 0.000e+00 -4.000e-01 7.600e-04 9.215e-04 1.312e-03
43 1 -2.000e-01 0.000e+00 0.000e+00 8.511e-04 -1.549e-04 -4.390e-04
44 1 -2.000e-01 0.000e+00 -2.000e-01 -1.158e-04 -3.805e-04 -8.559e-04
45 1 -2.000e-01 -2.000e-01 0.000e+00 8.980e-04 -1.090e-03 -9.449e-04
46 1 2.000e-01 2.000e-01 -2.000e-01 2.387e-04 -5.563e-04 1.051e-03
47 1 0.000e+00 0.000e+00 4.000e-01 -4.720e-04 5.889e-04 -1.829e-03
48 1 0.000e+00 4.000e-01 0.000e+00 -4.810e-04 1.117e-03 4.404e-04
49 1 2.000e-01 -2.000e-01 0.000e+00 6.838e-04 1.085e-03 -4.101e-04
50 1 2.000e-01 2.000e-01 0.000e+00 3.294e-04 -1.405e-05 -7.413e-04
51 1 2.000e-01 -2.000e-01 2.000e-01 2.696e-04 1.441e-03 1.129e-03
52 1 -2.000e-01 2.000e-01 -2.000e-01 6.403e-04 2.760e-04 -4.334e-04
53 1 -4.000e-01 0.000e+00 0.000e+00 -4.746e-05 7.156e-04 -6.960e-05
54 1 0.000e+00 -4.000e-01 0.000e+00 -4.674e-04 1.437e-03 1.696e-03
55 1 0.000e+00 2.000e-01 0.000e+00 -2.100e-03 1.135e-03 -6.449e-04
56 1 0.000e+00 0.000e+00 2.000e-01 2.455e-05 -8.027e-04 1.830e-03
57 1 -2.000e-01 -2.000e-01 -2.000e-01 -1.176e-03 1.266e-04 8.361e-04
58 1 2.000e-01 0.000e+00 0.000e+00 -1.168e-03 4.206e-04 5.797e-04
59 1 -2.000e-01 2.000e-01 2.000e-01 -1.175e-03 1.491e-03 2.370e-04
60 1 0.000e+00 2.000e-01 -2.000e-01 -3.064e-05 2.662e-04 1.110e-03
61 1 0.000e+00 -2.000e-01 -2.000e-01 1.315e-03 1.091e-03 1.197e-03
62 1 -2.000e-01 -2.000e-01 2.000e-01 8.452e-05 5.160e-04 -3.532e-05
63 1 2.000e-01 0.000e+00 2.000e-01 -1.175e-03 -1.343e-03 -1.489e-04
64 1 2.000e-01 0.000e+00 -2.000e-01 -3.378e-04 -1.672e-04 -4.325e-04
ITEM: TIMESTEP
0
ITEM: NUMBER OF ATOMS
32
ITEM: BOX BOUNDS xy xz yz pp pp pp
                     -5.00000000000000e-01 5.00000000000000e-01 0.00000000000000e+00
-5.00000000000000e-01	5.00000000000000e-01	0.00000000000000e+00
-5.00000000000000e-01	5.00000000000000e-01	0.00000000000000e+00
ITEM: ATOMS id type x y z DisplacementX DisplacementY DisplacementZ
65 1 -2.000e-01 2.000e-01 2.000e-01 1.427e-03 -5.585e-04 4.154e-04
66 1 2.000e-01 -2.000e-01 2.000e-01 -3.454e-04 -8.586e-04 -2.811e-04
67 1 0.000e+00 0.000e+00 4.000e-01 3.889e-04 -4.177e-04 6.106e-04
68 1 2.000e-01 2.000e-01 -2.000e-01 1.112e-03 6.269e-04 1.453e-03
69 1 0.000e+00 -2.000e-01 2.000e-01 -6.361e-04 -1.694e-03 6.544e-06
70 1 0.000e+00 2.000e-01 2.000e-01 1.192e-03 -1.593e-03 -2.877e-04
71 1 0.000e+00 -2.000e-01 -2.000e-01 -8.042e-04 -9.180e-04 -1.063e-04
72 1 0.000e+00 4.000e-01 0.000e+00 3.880e-04 -7.866e-04 -5.940e-04
73 1 2.000e-01 0.000e+00 2.000e-01 -1.188e-03 1.047e-03 2.778e-04
74 1 -2.000e-01 0.000e+00 0.000e+00 8.369e-04 4.808e-04 -2.175e-03
75 1 2.000e-01 2.000e-01 0.000e+00 -6.716e-04 -1.423e-03 -6.582e-04
76 1 0.000e+00 2.000e-01 0.000e+00 2.077e-04 -1.534e-03 9.992e-06
77 1 0.000e+00 -2.000e-01 0.000e+00 2.835e-04 -1.378e-04 2.056e-03
78 1 0.000e+00 2.000e-01 -2.000e-01 1.763e-03 -1.321e-04 2.630e-04
79 1 0.000e+00 0.000e+00 0.000e+00 1.997e-01 -1.285e-03 1.228e-03
80 1 -2.000e-01 0.000e+00 -2.000e-01 8.319e-04 3.381e-04 3.575e-04
81 1 -4.000e-01 0.000e+00 0.000e+00 3.862e-04 -4.116e-04 4.507e-04
82 1 4.000e-01 0.000e+00 0.000e+00 -1.657e-04 -1.634e-03 -7.276e-04
83 1 -2.000e-01 2.000e-01 0.000e+00 1.485e-03 7.103e-04 -4.136e-04
84 1 2.000e-01 -2.000e-01 0.000e+00 1.989e-04 -1.377e-03 -1.237e-04
85 1 -2.000e-01 -2.000e-01 -2.000e-01 -1.475e-03 2.648e-03 9.221e-04
86 1 2.000e-01 2.000e-01 2.000e-01 4.486e-04 7.601e-04 1.057e-03
87 1 0.000e+00 0.000e+00 -2.000e-01 1.575e-03 -9.110e-04 1.051e-03
88 1 0.000e+00 0.000e+00 -4.000e-01 3.134e-04 -3.389e-05 2.556e-05
89 1 0.000e+00 -4.000e-01 0.000e+00 -8.907e-04 1.569e-03 8.508e-04
90 1 2.000e-01 0.000e+00 -2.000e-01 -1.185e-03 8.649e-04 9.894e-06
91 1 0.000e+00 0.000e+00 2.000e-01 9.334e-04 -9.358e-04 -6.741e-04
92 1 2.000e-01 -2.000e-01 -2.000e-01 2.556e-04 1.572e-03 -1.814e-04
93 1 -2.000e-01 2.000e-01 -2.000e-01 -8.284e-04 -2.936e-04 -1.738e-03
94 1 -2.000e-01 -2.000e-01 2.000e-01 -3.716e-04 -2.122e-03 1.484e-03
95 1 -2.000e-01 0.000e+00 2.000e-01 -3.569e-03 -1.232e-04 -1.145e-03
96 1 -2.000e-01 -2.000e-01 0.000e+00 -5.020e-04 -6.198e-04 -8.877e-04
ITEM: TIMESTEP
0
ITEM: NUMBER OF ATOMS
32
ITEM: BOX BOUNDS xy xz yz pp pp pp
                     -5.00000000000000e-01 5.00000000000000e-01 0.00000000000000e+00
-5.00000000000000e-01	5.00000000000000e-01	0.00000000000000e+00
-5.00000000000000e-01	5.00000000000000e-01	0.00000000000000e+00
ITEM: ATOMS id type x y z DisplacementX DisplacementY DisplacementZ
97 1 -2.000e-01 -2.000e-01 2.000e-01 5.195e-05 -1.293e-03 -2.786e-05
98 1 -2.000e-01 2.000e-01 -2.000e-01 -7.919e-04 5.120e-04 -1.337e-03
99 1 -2.000e-01 0.000e+00 2.000e-01 -6.366e-04 -1.140e-04 1.027e-03
100 1 0.000e+00 -2.000e-01 -2.000e-01 1.777e-03 4.223e-04 9.788e-04
101 1 4.000e-01 0.000e+00 0.000e+00 -4.206e-04 1.020e-03 1.326e-03
102 1 2.000e-01 -2.000e-01 2.000e-01 3.714e-04 6.727e-04 3.922e-04
103 1 2.000e-01 2.000e-01 0.000e+00 3.359e-04 -1.117e-04 1.580e-04
104 1 0.000e+00 0.000e+00 -2.000e-01 -6.025e-04 -7.395e-06 -9.829e-04
105 1 -2.000e-01 2.000e-01 0.000e+00 -3.102e-04 1.072e-03 -3.637e-04
106 1 -4.000e-01 0.000e+00 0.000e+00 1.961e-03 1.071e-03 1.274e-03
107 1 0.000e+00 -2.000e-01 0.000e+00 -1.347e-03 -2.291e-03 -1.937e-03
108 1 2.000e-01 0.000e+00 2.000e-01 -8.231e-04 5.729e-04 -2.000e-03
109 1 2.000e-01 0.000e+00 0.000e+00 8.387e-04 6.052e-04 -3.231e-04
110 1 2.000e-01 -2.000e-01 -2.000e-01 3.612e-04 7.030e-04 -5.483e-04
111 1 0.000e+00 0.000e+00 0.000e+00 -1.986e-01 2.088e-03 -5.352e-04
112 1 2.000e-01 2.000e-01 -2.000e-01 1.586e-04 -9.602e-04 -1.937e-03
113 1 0.000e+00 4.000e-01 0.000e+00 -2.118e-04 1.651e-05 3.390e-04
114 1 0.000e+00 0.000e+00 2.000e-01 7.154e-04 6.437e-05 -7.370e-04
115 1 -2.000e-01 -2.000e-01 0.000e+00 -9.492e-04 8.013e-04 9.033e-04
116 1 0.000e+00 -4.000e-01 0.000e+00 -6.008e-05 7.250e-04 -1.257e-03
117 1 0.000e+00 0.000e+00 -4.000e-01 2.781e-04 -1.788e-03 1.171e-03
118 1 -2.000e-01 2.000e-01 2.000e-01 -2.647e-03 -8.821e-04 -2.742e-04
119 1 0.000e+00 2.000e-01 0.000e+00 9.493e-04 1.346e-03 1.268e-04
120 1 2.000e-01 2.000e-01 2.000e-01 -8.839e-04 -9.472e-04 -5.137e-04
121 1 -2.000e-01 0.000e+00 -2.000e-01 6.345e-04 6.185e-04 2.428e-04
122 1 0.000e+00 -2.000e-01 2.000e-01 9.007e-04 1.122e-03 1.193e-03
123 1 -2.000e-01 -2.000e-01 -2.000e-01 -1.161e-04 -1.698e-03 4.231e-05
124 1 2.000e-01 -2.000e-01 0.000e+00 1.841e-03 2.154e-04 -1.437e-03
125 1 0.000e+00 2.000e-01 2.000e-01 -6.771e-04 -2.277e-04 -5.199e-04
126 1 2.000e-01 0.000e+00 -2.000e-01 3.599e-04 -7.984e-04 1.211e-03
127 1 0.000e+00 0.000e+00 4.000e-01 -1.259e-03 4.152e-04 2.419e-04
128 1 0.000e+00 2.000e-01 -2.000e-01 -8.972e-04 -6.684e-05 -1.137e-03
ITEM: TIMESTEP
0
ITEM: NUMBER OF ATOMS
32
ITEM: BOX BOUNDS xy xz yz pp pp pp
                     -5.00000000000000e-01 5.00000000000000e-01 0.00000000000000e+00
-5.00000000000000e-01	5.00000000000000e-01	0.00000000000000e+00
-5.00000000000000e-01	5.00000000000000e-01	0.00000000000000e+00
ITEM: ATOMS id type x y z DisplacementX DisplacementY DisplacementZ
129 1 -2.000e-01 -2.000e-01 2.000e-01 -7.334e-04 2.156e-03 -7.619e-04
130 1 0.000e+00 0.000e+00 4.000e-01 2.359e-04 -1.007e-03 1.895e-03
131 1 0.000e+00 0.000e+00 2.000e-01 1.954e-03 3.957e-04 -1.570e-03
132 1 -2.000e-01 0.000e+00 2.000e-01 2.859e-04 4.272e-05 1.765e-03
133 1 -2.000e-01 0.000e+00 -2.000e-01 -4.626e-04 1.129e-03 -6.105e-05
134 1 0.000e+00 2.000e-01 2.000e-01 -3.754e-04 2.135e-03 -1.556e-03
135 1 2.000e-01 0.000e+00 -2.000e-01 -7.798e-05 -7.678e-04 -1.328e-03
136 1 2.000e-01 2.000e-01 -2.000e-01 -9.296e-06 5.795e-04 1.988e-04
137 1 0.000e+00 4.000e-01 0.000e+00 -5.243e-04 1.926e-03 3.699e-04
138 1 2.000e-01 -2.000e-01 2.000e-01 -1.369e-03 1.055e-03 -9.697e-04
139 1 -2.000e-01 0.000e+00 0.000e+00 -3.689e-04 -6.113e-04 -6.403e-04
140 1 -2.000e-01 2.000e-01 0.000e+00 1.631e-03 -2.298e-03 -3.277e-04
141 1 2.000e-01 0.000e+00 0.000e+00 -3.664e-04 -6.248e-05 -9.374e-04
142 1 0.000e+00 -2.000e-01 0.000e+00 -1.027e-03 -9.218e-04 1.059e-04
143 1 2.000e-01 2.000e-01 0.000e+00 -6.280e-04 -1.534e-03 -1.159e-03
144 1 2.000e-01 2.000e-01 2.000e-01 -1.436e-04 -6.311e-04 2.106e-04
145 1 0.000e+00 0.000e+00 0.000e+00 6.452e-04 1.997e-01 -5.202e-04
146 1 0.000e+00 -4.000e-01 0.000e+00 8.237e-04 -1.373e-04 -1.579e-04
147 1 2.000e-01 -2.000e-01 0.000e+00 7.324e-04 -1.711e-04 -1.413e-03
148 1 -2.000e-01 2.000e-01 -2.000e-01 -2.106e-04 2.010e-03 1.858e-03
149 1 0.000e+00 -2.000e-01 2.000e-01 -8.613e-04 1.451e-03 7.984e-04
150 1 -2.000e-01 -2.000e-01 0.000e+00 7.745e-05 7.938e-04 -2.212e-04
151 1 -2.000e-01 -2.000e-01 -2.000e-01 2.729e-04 -1.866e-03 -1.155e-03
152 1 0.000e+00 2.000e-01 -2.000e-01 1.916e-04 9.983e-04 -1.080e-03
153 1 2.000e-01 0.000e+00 2.000e-01 7.273e-05 -1.356e-03 -3.849e-04
154 1 -2.000e-01 2.000e-01 2.000e-01 -2.658e-04 -5.043e-04 -5.495e-04
155 1 0.000e+00 0.000e+00 -2.000e-01 -5.577e-04 -4.221e-04 1.533e-03
156 1 4.000e-01 0.000e+00 0.000e+00 5.050e-04 7.441e-05 1.185e-03
157 1 0.000e+00 -2.000e-01 -2.000e-01 1.778e-04 -8.229e-04 -8.139e-04
158 1 2.000e-01 -2.000e-01 -2.000e-01 -3.716e-06 2.592e-04 4.932e-04
159 1 -4.000e-01 0.000e+00 0.000e+00 4.352e-04 -5.974e-05 -2.712e-04
160 1 0.000e+00 0.000e+00 -4.000e-01 1.053e-03 -2.055e-03 -2.595e-04
ITEM: TIMESTEP
0
ITEM: NUMBER OF ATOMS
32
ITEM: BOX BOUNDS xy xz yz pp pp pp
                     -5.00000000000000e-01 5.00000000000000e-01 0.00000000000000e+00
-5.00000000000000e-01	5.00000000000000e-01	0.00000000000000e+00
-5.00000000000000e-01	5.00000000000000e-01	0.00000000000000e+00
ITEM: ATOMS id type x y z DisplacementX DisplacementY DisplacementZ
161 1 0.000e+00 2.000e-01 0.000e+00 -6.554e-04 5.416e-05 -2.147e-04
162 1 -2.000e-01 -2.000e-01 0.000e+00 5.767e-04 -6.461e-04 -1.318e-03
163 1 2.000e-01 2.000e-01 -2.000e-01 -3.494e-04 5.841e-05 -7.188e-04
164 1 0.000e+00 0.000e+00 4.000e-01 -5.019e-04 -6.001e-04 -3.374e-04
165 1 2.000e-01 -2.000e-01 0.000e+00 -4.491e-04 -9.703e-04 6.726e-04
166 1 -2.000e-01 -2.000e-01 -2.000e-01 7.355e-05 1.622e-03 -8.863e-04
167 1 2.000e-01 0.000e+00 0.000e+00 1.733e-03 -1.454e-03 -1.557e-03
168 1 0.000e+00 2.000e-01 2.000e-01 -2.088e-03 -6.257e-04 8.617e-04
169 1 0.000e+00 2.000e-01 -2.000e-01 -3.387e-04 -2.882e-03 -8.591e-04
170 1 -2.000e-01 2.000e-01 2.000e-01 1.479e-03 1.925e-03 8.547e-05
171 1 -2.000e-01 -2.000e-01 2.000e-01 3.792e-04 6.934e-04 6.887e-05
172 1 -2.000e-01 2.000e-01 0.000e+00 -2.073e-04 -3.315e-04 -2.842e-04
173 1 -2.000e-01 0.000e+00 2.000e-01 7.498e-04 -7.807e-04 -1.191e-03
174 1 -4.000e-01 0.000e+00 0.000e+00 -1.450e-04 -1.136e-03 6.541e-04
175 1 2.000e-01 -2.000e-01 2.000e-01 -4.737e-04 -8.551e-04 -6.465e-04
176 1 2.000e-01 0.000e+00 2.000e-01 -8.792e-04 2.621e-04 6.069e-04
177 1 -2.000e-01 2.000e-01 -2.000e-01 1.804e-03 -1.844e-04 4.639e-04
178 1 0.000e+00 -2.000e-01 2.000e-01 1.082e-03 -1.010e-03 6.430e-04
179 1 2.000e-01 0.000e+00 -2.000e-01 1.191e-03 1.667e-04 1.254e-03
180 1 -2.000e-01 0.000e+00 0.000e+00 -3.303e-04 2.865e-04 1.651e-03
181 1 -2.000e-01 0.000e+00 -2.000e-01 1.401e-03 -4.864e-04 -2.171e-04
182 1 2.000e-01 2.000e-01 2.000e-01 -1.120e-04 -6.979e-04 -2.836e-04
183 1 0.000e+00 4.000e-01 0.000e+00 8.356e-04 -8.728e-04 -6.361e-04
184 1 0.000e+00 0.000e+00 0.000e+00 2.341e-04 1.042e-03 1.979e-01
185 1 0.000e+00 -2.000e-01 0.000e+00 9.307e-04 1.474e-03 2.038e-03
186 1 0.000e+00 0.000e+00 -2.000e-01 6.665e-04 -2.234e-04 -7.491e-04
187 1 0.000e+00 -4.000e-01 0.000e+00 -1.194e-03 2.940e-04 -9.246e-04
188 1 0.000e+00 0.000e+00 -4.000e-01 6.212e-05 2.334e-03 -1.369e-03
189 1 2.000e-01 -2.000e-01 -2.000e-01 2.104e-05 -1.381e-03 -1.220e-03
190 1 4.000e-01 0.000e+00 0.000e+00 -5.770e-04 -6.496e-04 -5.829e-04
191 1 2.000e-01 2.000e-01 0.000e+00 -8.339e-04 6.198e-04 1.108e-03
192 1 0.000e+00 -2.000e-01 -2.000e-01 -6.037e-04 2.627e-04 2.528e-03
ITEM: TIMESTEP
0
ITEM: NUMBER OF ATOMS
32
ITEM: BOX BOUNDS xy xz yz pp pp pp
                     -5.00000000000000e-01 5.00000000000000e-01 0.00000000000000e+00
-5.00000000000000e-01	5.00000000000000e-01	0.00000000000000e+00
-5.00000000000000e-01	5.00000000000000e-01	0.00000000000000e+00
ITEM: ATOMS id type x y z DisplacementX DisplacementY DisplacementZ
193 1 -2.000e-01 -2.000e-01 2.000e-01 2.151e-04 6.299e-04 1.246e-03
194 1 -2.000e-01 2.000e-01 0.000e+00 3.832e-04 -1.563e-03 3.631e-04
195 1 0.000e+00 -2.000e-01 -2.000e-01 -1.512e-03 -2.492e-03 -1.112e-03
196 1 0.000e+00 0.000e+00 4.000e-01 -1.467e-04 -4.880e-04 -1.083e-03
197 1 0.000e+00 -4.000e-01 0.000e+00 -2.561e-03 -5.590e-05 -1.399e-04
198 1 0.000e+00 0.000e+00 0.000e+00 1.996e-01 9.615e-04 -1.570e-04
199 1 0.000e+00 2.000e-01 -2.000e-01 -6.396e-05 8.762e-04 -3.083e-05
200 1 -2.000e-01 -2.000e-01 -2.000e-01 -2.641e-04 2.193e-05 1.412e-04
201 1 2.000e-01 -2.000e-01 0.000e+00 -4.230e-04 6.912e-04 -6.314e-05
202 1 0.000e+00 0.000e+00 -2.000e-01 -2.158e-03 -1.413e-03 2.546e-05
203 1 -4.000e-01 0.000e+00 0.000e+00 -5.778e-04 -3.548e-04 2.974e-04
204 1 0.000e+00 4.000e-01 0.000e+00 4.493e-04 -2.589e-04 7.214e-05
205 1 0.000e+00 2.000e-01 0.000e+00 -3.315e-04 3.262e-04 -4.873e-04
206 1 -2.000e-01 0.000e+00 2.000e-01 3.552e-04 -1.539e-04 6.586e-04
207 1 -2.000e-01 2.000e-01 2.000e-01 7.533e-04 -1.113e-03 -1.544e-03
208 1 0.000e+00 -2.000e-01 0.000e+00 -9.321e-04 3.909e-04 -6.188e-04
209 1 -2.000e-01 2.000e-01 -2.000e-01 -2.619e-05 -6.775e-04 1.061e-06
210 1 0.000e+00 2.000e-01 2.000e-01 -1.693e-04 -1.448e-03 3.406e-04
211 1 2.000e-01 -2.000e-01 -2.000e-01 -8.030e-04 -4.332e-04 -3.607e-04
212 1 -2.000e-01 0.000e+00 -2.000e-01 8.974e-04 9.111e-04 -5.703e-04
213 1 2.000e-01 0.000e+00 -2.000e-01 -1.163e-04 -2.353e-04 7.921e-04
214 1 4.000e-01 0.000e+00 0.000e+00 -7.806e-04 1.440e-03 4.818e-04
215 1 2.000e-01 2.000e-01 2.000e-01 -1.165e-03 1.176e-04 -1.901e-03
216 1 2.000e-01 -2.000e-01 2.000e-01 9.704e-04 -2.903e-04 -1.075e-03
217 1 0.000e+00 0.000e+00 -4.000e-01 8.631e-04 1.051e-03 6.062e-05
218 1 0.000e+00 0.000e+00 2.000e-01 -4.995e-04 -6.318e-04 9.312e-04
219 1 -2.000e-01 -2.000e-01 0.000e+00 -1.236e-03 1.466e-03 6.756e-04
220 1 2.000e-01 2.000e-01 -2.000e-01 1.681e-03 -6.469e-04 1.693e-04
221 1 0.000e+00 -2.000e-01 2.000e-01 8.154e-05 5.014e-04 6.387e-04
222 1 -2.000e-01 0.000e+00 0.000e+00 1.643e-03 -8.295e-04 7.070e-04
223 1 2.000e-01 2.000e-01 0.000e+00 5.893e-05 -1.082e-03 -1.735e-04
224 1 2.000e-01 0.000e+00 2.000e-01 3.477e-04 -1.408e-03 8.112e-04
ITEM: TIMESTEP
0
ITEM: NUMBER OF ATOMS
32
ITEM: BOX BOUNDS xy xz yz pp pp pp
                     -5.00000000000000e-01 5.00000000000000e-01 0.00000000000000e+00
-5.00000000000000e-01	5.00000000000000e-01	0.00000000000000e+00
-5.00000000000000e-01	5.00000000000000e-01	0.00000000000000e+00
ITEM: ATOMS id type x y z DisplacementX DisplacementY DisplacementZ
225 1 2.000e-01 0.000e+00 -2.000e-01 -5.756e-04 -2.452e-03 3.138e-04
226 1 -2.000e-01 0.000e+00 -2.000e-01 6.037e-04 -5.328e-04 -7.088e-04
227 1 -2.000e-01 -2.000e-01 0.000e+00 6.681e-04 -5.088e-04 5.454e-04
228 1 -2.000e-01 2.000e-01 0.000e+00 2.305e-04 7.422e-04 3.281e-04
229 1 2.000e-01 -2.000e-01 2.000e-01 4.901e-04 -7.458e-04 1.254e-03
230 1 0.000e+00 -2.000e-01 0.000e+00 6.073e-04 -1.160e-04 -3.218e-04
231 1 0.000e+00 0.000e+00 0.000e+00 -7.641e-04 1.991e-01 8.203e-04
232 1 -2.000e-01 -2.000e-01 2.000e-01 6.301e-04 -1.609e-03 3.646e-04
233 1 0.000e+00 -2.000e-01 2.000e-01 1.854e-04 -2.236e-04 -7.511e-04
234 1 -2.000e-01 2.000e-01 -2.000e-01 -8.347e-04 1.639e-06 2.635e-04
235 1 0.000e+00 -2.000e-01 -2.000e-01 -2.030e-03 -6.175e-05 -7.676e-04
236 1 4.000e-01 0.000e+00 0.000e+00 4.991e-04 -3.017e-04 3.097e-04
237 1 2.000e-01 2.000e-01 -2.000e-01 -6.037e-04 -1.539e-03 1.550e-04
238 1 -2.000e-01 0.000e+00 0.000e+00 9.569e-04 9.274e-04 3.886e-04
239 1 2.000e-01 0.000e+00 2.000e-01 -8.827e-04 1.070e-04 -7.639e-04
240 1 0.000e+00 0.000e+00 -2.000e-01 -5.402e-04 -1.011e-03 -9.882e-04
241 1 0.000e+00 2.000e-01 -2.000e-01 3.629e-04 -8.590e-04 -7.051e-05
242 1 2.000e-01 2.000e-01 0.000e+00 -5.537e-05 4.604e-04 -1.081e-03
243 1 0.000e+00 0.000e+00 2.000e-01 -1.637e-04 2.226e-04 4.116e-05
244 1 0.000e+00 -4.000e-01 0.000e+00 -9.792e-04 -6.110e-04 2.659e-03
245 1 -2.000e-01 2.000e-01 2.000e-01 1.725e-03 -1.026e-03 -2.579e-03
246 1 2.000e-01 2.000e-01 2.000e-01 1.071e-03 -8.404e-04 1.276e-03
247 1 -2.000e-01 -2.000e-01 -2.000e-01 1.463e-03 5.420e-04 -1.205e-03
248 1 -4.000e-01 0.000e+00 0.000e+00 -2.215e-03 -1.905e-03 1.071e-03
249 1 0.000e+00 0.000e+00 4.000e-01 9.168e-04 -1.875e-03 1.142e-03
250 1 2.000e-01 -2.000e-01 -2.000e-01 7.929e-05 3.603e-04 1.876e-04
251 1 2.000e-01 0.000e+00 0.000e+00 4.355e-04 -1.632e-04 4.282e-04
252 1 -2.000e-01 0.000e+00 2.000e-01 -7.020e-04 7.941e-04 -1.827e-04
253 1 0.000e+00 4.000e-01 0.000e+00 -1.288e-03 -8.633e-04 9.440e-04
254 1 0.000e+00 0.000e+00 -4.000e-01 4.772e-04 7.561e-04 -6.740e-04
255 1 2.000e-01 -2.000e-01 0.000e+00 3.262e-04 7.840e-04 -2.723e-04
256 1 0.000e+00 2.000e-01 2.000e-01 -8.630e-04 -8.777e-04 -1.010e-04
ITEM: TIMESTEP
0
ITEM: NUMBER OF ATOMS
32
ITEM: BOX BOUNDS xy xz yz pp pp pp
                     -5.00000000000000e-01 5.00000000000000e-01 0.00000000000000e+00
-5.00000000000000e-01	5.00000000000000e-01	0.00000000000000e+00
-5.00000000000000e-01	5.00000000000000e-01	0.00000000000000e+00
ITEM: ATOMS id type x y z DisplacementX DisplacementY DisplacementZ
257 1 4.000e-01 0.000e+00 0.000e+00 2.486e-04 -9.728e-04 1.135e-04
258 1 2.000e-01 -2.000e-01 0.000e+00 -1.063e-03 -1.684e-03 1.606e-04
259 1 0.000e+00 4.000e-01 0.000e+00 -9.557e-04 -2.923e-04 -8.298e-04
260 1 -2.000e-01 -2.000e-01 0.000e+00 1.198e-03 -2.193e-03 -4.792e-04
261 1 -2.000e-01 0.000e+00 2.000e-01 1.792e-03 -1.605e-03 1.300e-03
262 1 -2.000e-01 2.000e-01 0.000e+00 -1.027e-03 -9.602e-04 -3.675e-04
263 1 2.000e-01 2.000e-01 2.000e-01 -1.742e-03 1.425e-03 1.187e-03
264 1 2.000e-01 2.000e-01 0.000e+00 8.029e-04 -5.991e-04 -1.666e-03
265 1 0.000e+00 -2.000e-01 2.000e-01 1.476e-03 -1.184e-03 3.803e-04
266 1 0.000e+00 0.000e+00 -4.000e-01 -1.084e-03 2.679e-05 -1.753e-03
267 1 -2.000e-01 0.000e+00 0.000e+00 -2.721e-04 -3.446e-04 8.132e-04
268 1 0.000e+00 -4.000e-01 0.000e+00 2.586e-04 1.626e-03 -1.468e-03
269 1 0.000e+00 2.000e-01 -2.000e-01 1.110e-03 1.529e-03 -7.712e-04
270 1 2.000e-01 0.000e+00 0.000e+00 3.270e-04 7.622e-04 -3.780e-05
271 1 -2.000e-01 2.000e-01 2.000e-01 -1.986e-03 -8.813e-04 -1.764e-03
272 1 -2.000e-01 2.000e-01 -2.000e-01 2.002e-03 1.226e-03 -1.278e-03
273 1 -2.000e-01 -2.000e-01 2.000e-01 3.917e-04 -7.637e-04 -4.132e-04
274 1 2.000e-01 0.000e+00 -2.000e-01 2.265e-04 -5.739e-04 7.001e-04
275 1 2.000e-01 2.000e-01 -2.000e-01 7.839e-05 -1.480e-03 1.079e-03
276 1 -2.000e-01 -2.000e-01 -2.000e-01 -2.907e-04 3.021e-04 -2.472e-04
277 1 0.000e+00 -2.000e-01 0.000e+00 2.552e-03 5.467e-04 -1.135e-04
278 1 -4.000e-01 0.000e+00 0.000e+00 6.538e-04 -1.843e-04 -1.056e-04
279 1 0.000e+00 0.000e+00 0.000e+00 -1.099e-03 1.347e-03 2.015e-01
280 1 2.000e-01 -2.000e-01 -2.000e-01 2.258e-03 -1.430e-03 1.597e-04
281 1 2.000e-01 0.000e+00 2.000e-01 1.194e-03 1.002e-03 1.143e-03
282 1 -2.000e-01 0.000e+00 -2.000e-01 -3.605e-04 -6.612e-04 -3.274e-04
283 1 0.000e+00 0.000e+00 -2.000e-01 1.142e-03 -1.681e-04 -1.215e-03
284 1 0.000e+00 2.000e-01 0.000e+00 -3.250e-04 -2.363e-04 1.013e-04
285 1 2.000e-01 -2.000e-01 2.000e-01 -3.099e-04 1.497e-03 7.392e-04
286 1 0.000e+00 2.000e-01 2.000e-01 -1.108e-05 -4.363e-04 -6.768e-04
287 1 0.000e+00 -2.000e-01 -2.000e-01 -3.465e-03 5.579e-04 7.964e-04
288 1 0.000e+00 0.000e+00 4.000e-01 -1.456e-03 -4.595e-04 -7.604e-05
ITEM: TIMESTEP
0
ITEM: NUMBER OF ATOMS
32
ITEM: BOX BOUNDS xy xz yz pp pp pp
                     -5.00000000000000e-01 5.00000000000000e-01 0.00000000000000e+00
-5.00000000000000e-01	5.00000000000000e-01	0.00000000000000e+00
-5.00000000000000e-01	5.00000000000000e-01	0.00000000000000e+00
ITEM: ATOMS id type x y z DisplacementX DisplacementY DisplacementZ
289 1 2.000e-01 0.000e+00 2.000e-01 -1.396e-03 -4.450e-04 -1.140e-04
290 1 2.000e-01 0.000e+00 -2.000e-01 1.705e-03 -3.968e-04 1.420e-04
291 1 0.000e+00 2.000e-01 2.000e-01 1.032e-03 -1.754e-03 4.672e-04
292 1 0.000e+00 -2.000e-01 -2.000e-01 -1.185e-04 1.023e-03 8.242e-04
293 1 -4.000e-01 0.000e+00 0.000e+00 1.795e-03 -6.732e-04 -2.010e-03
294 1 0.000e+00 2.000e-01 0.000e+00 4.016e-04 1.123e-03 3.563e-04
295 1 0.000e+00 0.000e+00 4.000e-01 -1.217e-03 3.856e-04 -7.027e-04
296 1 0.000e+00 2.000e-01 -2.000e-01 5.010e-04 -1.720e-03 -9.016e-04
297 1 -2.000e-01 -2.000e-01 0.000e+00 -9.695e-04 1.646e-03 1.053e-03
298 1 2.000e-01 0.000e+00 0.000e+00 8.050e-04 -5.359e-04 -1.089e-03
299 1 2.000e-01 -2.000e-01 0.000e+00 1.074e-03 -1.069e-03 2.626e-03
300 1 2.000e-01 2.000e-01 0.000e+00 -8.409e-04 -9.071e-04 -1.169e-03
301 1 0.000e+00 0.000e+00 -2.000e-01 -1.016e-03 8.183e-04 5.369e-04
302 1 2.000e-01 -2.000e-01 2.000e-01 4.083e-04 -4.078e-04 -1.638e-04
303 1 0.000e+00 4.000e-01 0.000e+00 -6.610e-04 -4.272e-04 2.713e-04
304 1 0.000e+00 -2.000e-01 2.000e-01 5.595e-05 1.322e-03 -1.029e-03
305 1 0.000e+00 0.000e+00 -4.000e-01 1.541e-03 1.083e-03 -9.244e-05
306 1 -2.000e-01 -2.000e-01 -2.000e-01 1.673e-03 -1.579e-03 7.778e-04
307 1 -2.000e-01 0.000e+00 -2.000e-01 -2.872e-04 -1.772e-03 1.925e-03
308 1 0.000e+00 0.000e+00 0.000e+00 -2.019e-01 -1.195e-04 -4.972e-04
309 1 -2.000e-01 2.000e-01 2.000e-01 8.120e-04 -1.010e-04 1.191e-04
310 1 2.000e-01 2.000e-01 -2.000e-01 -2.782e-04 1.095e-03 1.050e-03
311 1 -2.000e-01 -2.000e-01 2.000e-01 -4.241e-04 1.504e-03 1.193e-03
312 1 0.000e+00 0.000e+00 2.000e-01 -1.883e-03 3.343e-04 -1.021e-03
313 1 -2.000e-01 2.000e-01 -2.000e-01 -1.824e-03 -5.386e-04 7.611e-04
314 1 2.000e-01 2.000e-01 2.000e-01 1.067e-03 3.865e-04 2.183e-04
315 1 2.000e-01 -2.000e-01 -2.000e-01 1.750e-03 -1.197e-03 -5.022e-04
316 1 0.000e+00 -2.000e-01 0.000e+00 8.830e-04 -1.374e-03 -3.789e-04
317 1 4.000e-01 0.000e+00 0.000e+00 -6.261e-04 1.394e-03 1.104e-03
318 1 -2.000e-01 2.000e-01 0.000e+00 2.854e-04 1.751e-03 3.047e-04
319 1 0.000e+00 -4.000e-01 0.000e+00 8.859e-04 -2.067e-04 5.961e-04
320 1 -2.000e-01 0.000e+00 2.000e-01 6.505e-04 7.420e-04 -7.107e-04
ITEM: TIMESTEP
0
ITEM: NUMBER OF ATOMS
32
ITEM: BOX BOUNDS xy xz yz pp pp pp
                     -5.00000000000000e-01 5.00000000000000e-01 0.00000000000000e+00
-5.00000000000000e-01	5.00000000000000e-01	0.00000000000000e+00
-5.00000000000000e-01	5.00000000000000e-01	0.00000000000000e+00
ITEM: ATOMS id type x y z DisplacementX DisplacementY DisplacementZ
321 1 -4.000e-01 0.000e+00 0.000e+00 -3.352e-04 -1.252e-03 -5.532e-05
322 1 2.000e-01 0.000e+00 2.000e-01 3.265e-05 -2.030e-04 -1.619e-04
323 1 0.000e+00 2.000e-01 -2.000e-01 1.898e-03 -9.684e-05 1.312e-04
324 1 -2.000e-01 -2.000e-01 0.000e+00 -5.037e-05 3.060e-04 -1.421e-04
325 1 -2.000e-01 0.000e+00 -2.000e-01 8.100e-04 -4.480e-05 5.745e-04
326 1 2.000e-01 0.000e+00 0.000e+00 1.418e-03 2.494e-04 -2.205e-04
327 1 0.000e+00 4.000e-01 0.000e+00 -5.327e-04 9.663e-04 -1.262e-03
328 1 2.000e-01 0.000e+00 -2.000e-01 5.717e-04 1.850e-04 -8.372e-04
329 1 0.000e+00 -4.000e-01 0.000e+00 3.835e-04 4.687e-04 4.959e-04
330 1 -2.000e-01 2.000e-01 -2.000e-01 9.730e-04 -8.958e-04 -5.028e-04
331 1 -2.000e-01 -2.000e-01 -2.000e-01 -8.502e-04 4.211e-04 5.423e-04
332 1 4.000e-01 0.000e+00 0.000e+00 -5.489e-04 1.380e-03 6.069e-04
333 1 -2.000e-01 2.000e-01 0.000e+00 -3.423e-04 1.890e-03 -1.643e-04
334 1 0.000e+00 0.000e+00 -4.000e-01 4.002e-04 -4.975e-04 -2.052e-04
335 1 2.000e-01 -2.000e-01 -2.000e-01 4.239e-04 7.111e-04 -6.615e-04
336 1 -2.000e-01 0.000e+00 0.000e+00 5.136e-04 1.091e-03 3.466e-04
337 1 2.000e-01 2.000e-01 0.000e+00 1.828e-03 -1.278e-03 -2.801e-03
338 1 2.000e-01 2.000e-01 -2.000e-01 1.769e-03 4.687e-04 2.363e-03
339 1 -2.000e-01 0.000e+00 2.000e-01 -6.289e-04 2.628e-04 1.188e-03
340 1 0.000e+00 -2.000e-01 -2.000e-01 4.495e-04 -5.289e-04 -5.362e-05
341 1 2.000e-01 -2.000e-01 0.000e+00 2.554e-04 7.874e-04 1.365e-04
342 1 0.000e+00 0.000e+00 2.000e-01 -1.959e-04 6.772e-04 1.096e-03
343 1 -2.000e-01 2.000e-01 2.000e-01 2.495e-04 -2.368e-04 2.358e-04
344 1 0.000e+00 2.000e-01 0.000e+00 1.232e-03 1.601e-03 7.489e-04
345 1 -2.000e-01 -2.000e-01 2.000e-01 4.184e-04 9.789e-04 -1.056e-03
346 1 2.000e-01 -2.000e-01 2.000e-01 -1.455e-03 6.887e-04 6.729e-04
347 1 0.000e+00 2.000e-01 2.000e-01 -3.412e-04 -9.300e-04 3.565e-04
348 1 0.000e+00 0.000e+00 -2.000e-01 5.937e-04 -1.060e-04 4.668e-04
349 1 2.000e-01 2.000e-01 2.000e-01 5.464e-04 -1.339e-04 9.448e-04
350 1 0.000e+00 0.000e+00 4.000e-01 -2.283e-04 1.368e-03 -3.011e-04
351 1 0.000e+00 0.000e+00 0.000e+00 -2.334e-04 -1.981e-01 -4.698e-04
352 1 0.000e+00 -2.000e-01 2.000e-01 -2.623e-03 2.856e-04 5.938e-04
ITEM: TIMESTEP
0
ITEM: NUMBER OF ATOMS
32
ITEM: BOX BOUNDS xy xz yz pp pp pp
                     -5.00000000000000e-01 5.00000000000000e-01 0.00000000000000e+00
-5.00000000000000e-01	5.00000000000000e-01	0.00000000000000e+00
-5.00000000000000e-01	5.00000000000000e-01	0.00000000000000e+00
ITEM: ATOMS id type x y z DisplacementX DisplacementY DisplacementZ
353 1 4.000e-01 0.000e+00 0.000e+00 4.506e-04 1.229e-03 -7.022e-04
354 1 2.000e-01 2.000e-01 0.000e+00 -4.677e-04 1.033e-03 3.186e-04
355 1 -2.000e-01 0.000e+00 2.000e-01 8.784e-04 2.526e-04 -2.603e-04
356 1 -2.000e-01 0.000e+00 -2.000e-01 -1.554e-03 1.365e-04 -2.820e-04
357 1 2.000e-01 2.000e-01 -2.000e-01 5.730e-04 -5.089e-04 -3.448e-04
358 1 2.000e-01 0.000e+00 2.000e-01 6.536e-04 2.214e-04 -4.141e-04
359 1 0.000e+00 -2.000e-01 -2.000e-01 2.102e-03 1.241e-04 6.097e-04
360 1 0.000e+00 0.000e+00 2.000e-01 -6.487e-04 -7.458e-04 -1.155e-03
361 1 0.000e+00 -4.000e-01 0.000e+00 4.912e-04 1.114e-03 -2.611e-04
362 1 2.000e-01 -2.000e-01 2.000e-01 8.484e-05 2.700e-05 8.121e-04
363 1 -2.000e-01 2.000e-01 2.000e-01 1.479e-03 2.299e-04 -1.771e-03
364 1 2.000e-01 2.000e-01 2.000e-01 -1.003e-03 -6.012e-04 -5.830e-04
365 1 -2.000e-01 2.000e-01 -2.000e-01 3.712e-04 -5.481e-04 -9.572e-04
366 1 -4.000e-01 0.000e+00 0.000e+00 -5.526e-06 8.965e-04 5.322e-05
367 1 -2.000e-01 -2.000e-01 -2.000e-01 3.489e-04 -7.638e-04 3.955e-04
368 1 2.000e-01 -2.000e-01 0.000e+00 1.543e-04 -8.589e-04 -3.620e-04
369 1 -2.000e-01 2.000e-01 0.000e+00 5.872e-04 -8.174e-04 -3.120e-04
370 1 0.000e+00 0.000e+00 -4.000e-01 -6.153e-04 -1.564e-04 -4.746e-04
371 1 2.000e-01 0.000e+00 -2.000e-01 -5.754e-04 -9.107e-04 6.182e-04
372 1 0.000e+00 2.000e-01 0.000e+00 2.592e-03 1.389e-03 8.758e-04
373 1 0.000e+00 -2.000e-01 0.000e+00 -1.529e-03 -1.345e-03 -3.839e-07
374 1 -2.000e-01 0.000e+00 0.000e+00 -1.051e-03 -2.686e-04 3.108e-04
375 1 2.000e-01 0.000e+00 0.000e+00 7.053e-04 -1.231e-03 1.125e-04
376 1 0.000e+00 4.000e-01 0.000e+00 2.281e-04 1.177e-03 6.952e-05
377 1 0.000e+00 0.000e+00 4.000e-01 2.088e-03 2.274e-03 -4.013e-04