ITEM: TIMESTEP
0
ITEM: NUMBER OF ATOMS
12
ITEM: BOX BOUNDS xy xz yz pp pp pp
                     -5.00000000000000e-01 5.00000000000000e-01 0.00000000000000e+00
-5.00000000000000e-01	5.00000000000000e-01	0.00000000000000e+00
-5.00000000000000e-01	5.00000000000000e-01	0.00000000000000e+00
ITEM: ATOMS id type x y z DisplacementX DisplacementY DisplacementZ
1 1 2.000e-01 0.000e+00 0.000e+00 -4.757e-04 -1.210e-03 1.183e-03
2 1 -1.000e-01 0.000e+00 0.000e+00 -1.018e-03 1.628e-04 -1.991e-05
3 1 0.000e+00 0.000e+00 0.000e+00 -1.339e-05 -9.812e-02 -3.354e-05
4 1 1.000e-01 1.000e-01 0.000e+00 -8.848e-06 1.155e-03 -1.953e-03
5 1 1.000e-01 0.000e+00 0.000e+00 1.618e-03 -1.493e-03 -1.620e-03
6 1 -1.000e-01 -1.000e-01 0.000e+00 -2.424e-04 -7.171e-05 8.741e-04
7 1 1.000e-01 -1.000e-01 0.000e+00 -1.266e-05 -8.195e-04 4.858e-04
8 1 0.000e+00 -2.000e-01 0.000e+00 -1.273e-03 -2.620e-04 -4.726e-04
9 1 0.000e+00 1.000e-01 0.000e+00 -5.704e-05 -1.080e-03 -1.151e-03
10 1 -1.000e-01 1.000e-01 0.000e+00 4.511e-04 -5.958e-04 1.390e-03
11 1 0.000e+00 2.000e-01 0.000e+00 1.007e-03 1.452e-03 -1.286e-04
12 1 -2.000e-01 0.000e+00 0.000e+00 -6.964e-04 1.006e-03 -2.186e-04
ITEM: TIMESTEP
0
ITEM: NUMBER OF ATOMS
12
ITEM: BOX BOUNDS xy xz yz pp pp pp
                     -5.00000000000000e-01 5.00000000000000e-01 0.00000000000000e+00
-5.00000000000000e-01	5.00000000000000e-01	0.00000000000000e+00
-5.00000000000000e-01	5.00000000000000e-01	0.00000000000000e+00
ITEM: ATOMS id type x y z DisplacementX DisplacementY DisplacementZ
13 1 0.000e+00 1.000e-01 0.000e+00 3.321e-04 1.611e-03 1.293e-04
14 1 1.000e-01 1.000e-01 0.000e+00 -2.283e-04 -4.820e-04 -1.408e-03
15 1 0.000e+00 0.000e+00 0.000e+00 1.004e-01 -1.972e-03 1.256e-03
16 1 2.000e-01 0.000e+00 0.000e+00 1.689e-03 -3.763e-04 -7.157e-04
17 1 -2.000e-01 0.000e+00 0.000e+00 -6.575e-05 -1.376e-03 1.190e-03
18 1 -1.000e-01 -1.000e-01 0.000e+00 -8.674e-04 -8.431e-04 1.080e-03
19 1 0.000e+00 -2.000e-01 0.000e+00 -7.577e-04 7.237e-04 1.494e-04
20 1 1.000e-01 -1.000e-01 0.000e+00 -1.188e-03 -1.541e-04 -2.687e-04
21 1 0.000e+00 2.000e-01 0.000e+00 -8.577e-04 7.177e-04 1.051e-03
22 1 0.000e+00 -1.000e-01 0.000e+00 -2.841e-04 -1.362e-04 2.147e-03
23 1 -1.000e-01 1.000e-01 0.000e+00 -3.166e-04 1.085e-03 -3.838e-05
24 1 -1.000e-01 0.000e+00 0.000e+00 1.080e-03 7.415e-04 -6.069e-04
