ITEM: TIMESTEP
0
ITEM: NUMBER OF ATOMS
4
ITEM: BOX BOUNDS xy xz yz pp pp pp
                     -5.00000000000000e-01 5.00000000000000e-01 0.00000000000000e+00
-5.00000000000000e-01	5.00000000000000e-01	0.00000000000000e+00
-5.00000000000000e-01	5.00000000000000e-01	0.00000000000000e+00
ITEM: ATOMS id type x y z DisplacementX DisplacementY DisplacementZ
1 1 0.000e+00 -1.000e-01 0.000e+00 7.472e-04 6.008e-04 -4.327e-04
2 1 0.000e+00 0.000e+00 0.000e+00 1.007e-01 -9.778e-05 4.629e-04
3 1 -1.000e-01 0.000e+00 0.000e+00 4.040e-04 -4.246e-04 -1.157e-03
4 1 0.000e+00 1.000e-01 0.000e+00 -5.248e-04 1.588e-04 9.005e-04
ITEM: TIMESTEP
0
ITEM: NUMBER OF ATOMS
4
ITEM: BOX BOUNDS xy xz yz pp pp pp
                     -5.00000000000000e-01 5.00000000000000e-01 0.00000000000000e+00
-5.00000000000000e-01	5.00000000000000e-01	0.00000000000000e+00
-5.00000000000000e-01	5.00000000000000e-01	0.00000000000000e+00
ITEM: ATOMS id type x y z DisplacementX DisplacementY DisplacementZ
5 1 0.000e+00 0.000e+00 0.000e+00 -2.089e-03 -9.845e-02 -4.763e-05
6 1 0.000e+00 1.000e-01 0.000e+00 8.273e-04 -1.025e-03 -7.893e-05
7 1 -1.000e-01 0.000e+00 0.000e+00 7.318e-04 6.512e-04 -1.078e-03
8 1 1.000e-01 0.000e+00 0.000e+00 1.069e-03 -8.124e-04 -1.685e-04
ITEM: TIMESTEP
0
ITEM: NUMBER OF ATOMS
4
ITEM: BOX BOUNDS xy xz yz pp pp pp
                     -5.00000000000000e-01 5.00000000000000e-01 0.00000000000000e+00
-5.00000000000000e-01	5.00000000000000e-01	0.00000000000000e+00
-5.00000000000000e-01	5.00000000000000e-01	0.00000000000000e+00
ITEM: ATOMS id type x y z DisplacementX DisplacementY DisplacementZ
9 1 0.000e+00 -1.000e-01 0.000e+00 6.811e-04 1.463e-04 4.498e-04
10 1 0.000e+00 0.000e+00 0.000e+00 -1.019e-01 1.051e-03 -1.729e-03
11 1 0.000e+00 1.000e-01 0.000e+00 -4.832e-04 -6.540e-04 1.508e-03
12 1 1.000e-01 0.000e+00 0.000e+00 8.064e-04 5.131e-04 -1.290e-04
ITEM: TIMESTEP
0
ITEM: NUMBER OF ATOMS
4
ITEM: BOX BOUNDS xy xz yz pp pp pp
                     -5.00000000000000e-01 5.00000000000000e-01 0.00000000000000e+00
-5.00000000000000e-01	5.00000000000000e-01	0.00000000000000e+00
-5.00000000000000e-01	5.00000000000000e-01	0.00000000000000e+00
ITEM: ATOMS id type x y z DisplacementX DisplacementY DisplacementZ
13 1 1.000e-01 0.000e+00 0.000e+00 2.277e-04 -3.089e-04 1.059e-03
14 1 -1.000e-01 0.000e+00 0.000e+00 -4.906e-04 -1.322e-03 -1.360e-04
15 1 0.000e+00 -1.000e-01 0.000e+00 -8.968e-04 -9.287e-04 1.428e-03
16 1 0.000e+00 0.000e+00 0.000e+00 4.486e-04 1.002e-01 1.033e-03
ITEM: TIMESTEP
0
ITEM: NUMBER OF ATOMS
4
ITEM: BOX BOUNDS xy xz yz pp pp pp
                     -5.00000000000000e-01 5.00000000000000e-01 0.00000000000000e+00
-5.00000000000000e-01	5.00000000000000e-01	0.00000000000000e+00
-5.00000000000000e-01	5.00000000000000e-01	0.00000000000000e+00
ITEM: ATOMS id type x y z DisplacementX DisplacementY DisplacementZ
17 1 0.000e+00 0.000e+00 0.000e+00 -9.208e-04 -1.001e-01 3.550e-04
18 1 -1.000e-01 0.000e+00 0.000e+00 4.196e-04 1.852e-03 5.174e-04
19 1 1.000e-01 0.000e+00 0.000e+00 1.480e-03 6.873e-04 1.254e-03
20 1 0.000e+00 1.000e-01 0.000e+00 -6.374e-04 8.573e-04 -3.403e-04
ITEM: TIMESTEP
0
ITEM: NUMBER OF ATOMS
4
ITEM: BOX BOUNDS xy xz yz pp pp pp
                     -5.00000000000000e-01 5.00000000000000e-01 0.00000000000000e+00
-5.00000000000000e-01	5.00000000000000e-01	0.00000000000000e+00
-5.00000000000000e-01	5.00000000000000e-01	0.00000000000000e+00
ITEM: ATOMS id type x y z DisplacementX DisplacementY DisplacementZ
21 1 1.000e-01 0.000e+00 0.000e+00 1.193e-03 6.112e-04 -2.675e-05
22 1 0.000e+00 0.000e+00 0.000e+00 -2.292e-05 9.930e-02 -1.163e-03
23 1 -1.000e-01 0.000e+00 0.000e+00 -1.657e-03 1.849e-03 8.329e-04
24 1 0.000e+00 -1.000e-01 0.000e+00 -5.472e-04 -9.786e-05 -8.463e-04
ITEM: TIMESTEP
0
ITEM: NUMBER OF ATOMS
4
ITEM: BOX BOUNDS xy xz yz pp pp pp
                     -5.00000000000000e-01 5.00000000000000e-01 0.00000000000000e+00
-5.00000000000000e-01	5.00000000000000e-01	0.00000000000000e+00
-5.00000000000000e-01	5.00000000000000e-01	0.00000000000000e+00
ITEM: ATOMS id type x y z DisplacementX DisplacementY DisplacementZ
25 1 -1.000e-01 0.000e+00 0.000e+00 -5.822e-04 1.420e-03 -1.308e-03
26 1 0.000e+00 -1.000e-01 0.000e+00 1.215e-03 -1.717e-03 -1.818e-04
27 1 0.000e+00 1.000e-01 0.000e+00 -2.679e-04 -2.134e-03 1.937e-03
28 1 0.000e+00 0.000e+00 0.000e+00 1.023e-01 3.566e-04 1.798e-03
ITEM: TIMESTEP
0
ITEM: NUMBER OF ATOMS
4
ITEM: BOX BOUNDS xy xz yz pp pp pp
                     -5.00000000000000e-01 5.00000000000000e-01 0.00000000000000e+00
-5.00000000000000e-01	5.00000000000000e-01	0.00000000000000e+00
-5.00000000000000e-01	5.00000000000000e-01	0.00000000000000e+00
ITEM: ATOMS id type x y z DisplacementX DisplacementY DisplacementZ
29 1 0.000e+00 -1.000e-01 0.000e+00 -1.863e-03 3.792e-04 -2.066e-03
30 1 1.000e-01 0.000e+00 0.000e+00 1.525e-03 -6.830e-04 7.420e-04
31 1 0.000e+00 1.000e-01 0.000e+00 -2.287e-05 7.612e-05 -1.060e-03
32 1 0.000e+00 0.000e+00 0.000e+00 -1.003e-01 -1.251e-03 -1.145e-03
ITEM: TIMESTEP
0
ITEM: NUMBER OF ATOMS
4
ITEM: BOX BOUNDS xy xz yz pp pp pp
                     -5.00000000000000e-01 5.00000000000000e-01 0.00000000000000e+00
-5.00000000000000e-01	5.00000000000000e-01	0.00000000000000e+00
-5.00000000000000e-01	5.00000000000000e-01	0.00000000000000e+00
ITEM: ATOMS id type x y z DisplacementX DisplacementY DisplacementZ
33 1 0.000e+00 1.000e-01 0.000e+00 -7.049e-04 1.112e-03 -4.692e-04
34 1 0.000e+00 0.000e+00 0.000e+00 -9.837e-02 1.412e-03 -8.899e-05
35 1 0.000e+00 -1.000e-01 0.000e+00 1.924e-03 -1.757e-03 1.361e-04
36 1 1.000e-01 0.000e+00 0.000e+00 -2.370e-03 4.243e-04 -5.487e-04
ITEM: TIMESTEP
0
ITEM: NUMBER OF ATOMS
4
ITEM: BOX BOUNDS xy xz yz pp pp pp
                     -5.00000000000000e-01 5.00000000000000e-01 0.00000000000000e+00
-5.00000000000000e-01	5.00000000000000e-01	0.00000000000000e+00
-5.00000000000000e-01	5.00000000000000e-01	0.00000000000000e+00
ITEM: ATOMS id type x y z DisplacementX DisplacementY DisplacementZ
37 1 -1.000e-01 0.000e+00 0.000e+00 -6.063e-04 -6.393e-04 2.584e-04
38 1 0.000e+00 1.000e-01 0.000e+00 5.776e-04 5.827e-04 1.541e-03
39 1 1.000e-01 0.000e+00 0.000e+00 -1.209e-03 -7.016e-04 -1.602e-04
40 1 0.000e+00 0.000e+00 0.000e+00 -4.912e-04 -9.944e-02 -2.938e-04
ITEM: TIMESTEP
0
ITEM: NUMBER OF ATOMS
4
ITEM: BOX BOUNDS xy xz yz pp pp pp
                     -5.00000000000000e-01 5.00000000000000e-01 0.00000000000000e+00
-5.00000000000000e-01	5.00000000000000e-01	0.00000000000000e+00
-5.00000000000000e-01	5.00000000000000e-01	0.00000000000000e+00
ITEM: ATOMS id type x y z DisplacementX DisplacementY DisplacementZ
41 1 -1.000e-01 0.000e+00 0.000e+00 -6.783e-04 7.701e-04 -8.793e-04
42 1 0.000e+00 1.000e-01 0.000e+00 -1.004e-03 3.269e-04 3.947e-04
43 1 0.000e+00 -1.000e-01 0.000e+00 -1.202e-03 -1.411e-03 -6.998e-04
44 1 0.000e+00 0.000e+00 0.000e+00 1.009e-01 -1.511e-03 -2.361e-03
ITEM: TIMESTEP
0
ITEM: NUMBER OF ATOMS
4
ITEM: BOX BOUNDS xy xz yz pp pp pp
                     -5.00000000000000e-01 5.00000000000000e-01 0.00000000000000e+00
-5.00000000000000e-01	5.00000000000000e-01	0.00000000000000e+00
-5.00000000000000e-01	5.00000000000000e-01	0.00000000000000e+00
ITEM: ATOMS id type x y z DisplacementX DisplacementY DisplacementZ
45 1 1.000e-01 0.000e+00 0.000e+00 -6.181e-04 1.274e-04 -9.577e-04
46 1 -1.000e-01 0.000e+00 0.000e+00 -1.075e-03 7.805e-04 2.916e-04
47 1 0.000e+00 -1.000e-01 0.000e+00 7.043e-04 3.860e-04 -1.201e-03
48 1 0.000e+00 0.000e+00 0.000e+00 -6.631e-04 1.003e-01 5.093e-04
ITEM: TIMESTEP
0
ITEM: NUMBER OF ATOMS
4
ITEM: BOX BOUNDS xy xz yz pp pp pp
                     -5.00000000000000e-01 5.00000000000000e-01 0.00000000000000e+00
-5.00000000000000e-01	5.00000000000000e-01	0.00000000000000e+00
-5.00000000000000e-01	5.00000000000000e-01	0.00000000000000e+00
ITEM: ATOMS id type x y z DisplacementX DisplacementY DisplacementZ
49 1 0.000e+00 1.000e-01 0.000e+00 2.893e-03 -3.101e-05 -1.063e-03
50 1 0.000e+00 0.000e+00 0.000e+00 4.949e-04 -1.011e-01 -5.824e-04
51 1 1.000e-01 0.000e+00 0.000e+00 -1.813e-03 -9.400e-04 -3.451e-04
52 1 -1.000e-01 0.000e+00 0.000e+00 9.101e-04 -4.739e-04 -3.840e-04
ITEM: TIMESTEP
0
ITEM: NUMBER OF ATOMS
4
ITEM: BOX BOUNDS xy xz yz pp pp pp
                     -5.00000000000000e-01 5.00000000000000e-01 0.00000000000000e+00
-5.00000000000000e-01	5.00000000000000e-01	0.00000000000000e+00
-5.00000000000000e-01	5.00000000000000e-01	0.00000000000000e+00
ITEM: ATOMS id type x y z DisplacementX DisplacementY DisplacementZ
53 1 -1.000e-01 0.000e+00 0.000e+00 1.277e-03 -3.020e-04 7.514e-04
54 1 1.000e-01 0.000e+00 0.000e+00 -6.614e-04 -4.483e-04 1.737e-03
55 1 0.000e+00 0.000e+00 0.000e+00 1.207e-03 9.993e-02 -2.626e-04
56 1 0.000e+00 -1.000e-01 0.000e+00 1.041e-04 -8.474e-04 -1.578e-03
ITEM: TIMESTEP
0
ITEM: NUMBER OF ATOMS
4
ITEM: BOX BOUNDS xy xz yz pp pp pp
                     -5.00000000000000e-01 5.00000000000000e-01 0.00000000000000e+00
-5.00000000000000e-01	5.00000000000000e-01	0.00000000000000e+00
-5.00000000000000e-01	5.00000000000000e-01	0.00000000000000e+00
ITEM: ATOMS id type x y z DisplacementX DisplacementY DisplacementZ
57 1 0.000e+00 1.000e-01 0.000e+00 -8.327e-04 -5.146e-04 -1.375e-03
58 1 1.000e-01 0.000e+00 0.000e+00 1.204e-03 -8.982e-04 -7.304e-04
59 1 0.000e+00 -1.000e-01 0.000e+00 4.687e-04 4.764e-04 7.314e-04
60 1 0.000e+00 0.000e+00 0.000e+00 -1.006e-01 -1.530e-03 -9.838e-04
ITEM: TIMESTEP
0
ITEM: NUMBER OF ATOMS
4
ITEM: BOX BOUNDS xy xz yz pp pp pp
                     -5.00000000000000e-01 5.00000000000000e-01 0.00000000000000e+00
-5.00000000000000e-01	5.00000000000000e-01	0.00000000000000e+00
-5.00000000000000e-01	5.00000000000000e-01	0.00000000000000e+00
ITEM: ATOMS id type x y z DisplacementX DisplacementY DisplacementZ
61 1 0.000e+00 -1.000e-01 0.000e+00 -2.336e-03 6.035e-04 6.961e-04
62 1 -1.000e-01 0.000e+00 0.000e+00 -7.916e-04 -3.796e-04 -8.206e-04
63 1 0.000e+00 0.000e+00 0.000e+00 1.004e-01 -8.688e-04 -1.974e-04
64 1 0.000e+00 1.000e-01 0.000e+00 -2.350e-04 9.485e-04 -1.431e-03
ITEM: TIMESTEP
0
ITEM: NUMBER OF ATOMS
4
ITEM: BOX BOUNDS xy xz yz pp pp pp
                     -5.00000000000000e-01 5.00000000000000e-01 0.00000000000000e+00
-5.00000000000000e-01	5.00000000000000e-01	0.00000000000000e+00
-5.00000000000000e-01	5.00000000000000e-01	0.00000000000000e+00
ITEM: ATOMS id type x y z DisplacementX DisplacementY DisplacementZ
65 1 1.000e-01 0.000e+00 0.000e+00 -1.060e-03 2.174e-04 -7.966e-04
66 1 -1.000e-01 0.000e+00 0.000e+00 -1.821e-03 -1.267e-04 -1.962e-03
67 1 0.000e+00 0.000e+00 0.000e+00 -1.030e-03 -1.008e-01 -4.430e-04
68 1 0.000e+00 1.000e-01 0.000e+00 3.567e-04 -9.595e-04 9.436e-05
ITEM: TIMESTEP
0
ITEM: NUMBER OF ATOMS
4
ITEM: BOX BOUNDS xy xz yz pp pp pp
                     -5.00000000000000e-01 5.00000000000000e-01 0.00000000000000e+00
-5.00000000000000e-01	5.00000000000000e-01	0.00000000000000e+00
-5.00000000000000e-01	5.00000000000000e-01	0.00000000000000e+00
ITEM: ATOMS id type x y z DisplacementX DisplacementY DisplacementZ
69 1 0.000e+00 1.000e-01 0.000e+00 1.582e-03 -7.992e-05 -9.722e-04
70 1 0.000e+00 0.000e+00 0.000e+00 1.006e-01 1.093e-03 2.062e-03
71 1 -1.000e-01 0.000e+00 0.000e+00 -1.346e-03 -3.806e-04 -6.348e-04
72 1 0.000e+00 -1.000e-01 0.000e+00 -2.136e-04 1.010e-03 -9.940e-04
ITEM: TIMESTEP
0
ITEM: NUMBER OF ATOMS
4
ITEM: BOX BOUNDS xy xz yz pp pp pp
                     -5.00000000000000e-01 5.00000000000000e-01 0.00000000000000e+00
-5.00000000000000e-01	5.00000000000000e-01	0.00000000000000e+00
-5.00000000000000e-01	5.00000000000000e-01	0.00000000000000e+00
ITEM: ATOMS id type x y z DisplacementX DisplacementY DisplacementZ
73 1 0.000e+00 1.000e-01 0.000e+00 1.945e-03 8.116e-05 5.559e-04
74 1 0.000e+00 -1.000e-01 0.000e+00 -1.020e-03 -1.098e-03 -7.743e-04
75 1 0.000e+00 0.000e+00 0.000e+00 -9.993e-02 1.029e-03 -5.839e-06
76 1 1.000e-01 0.000e+00 0.000e+00 -8.118e-04 5.381e-04 2.842e-03
ITEM: TIMESTEP
0
ITEM: NUMBER OF ATOMS
4
ITEM: BOX BOUNDS xy xz yz pp pp pp
                     -5.00000000000000e-01 5.00000000000000e-01 0.00000000000000e+00
-5.00000000000000e-01	5.00000000000000e-01	0.00000000000000e+00
-5.00000000000000e-01	5.00000000000000e-01	0.00000000000000e+00
ITEM: ATOMS id type x y z DisplacementX DisplacementY DisplacementZ
77 1 0.000e+00 -1.000e-01 0.000e+00 -1.456e-04 -2.001e-03 6.543e-04
78 1 1.000e-01 0.000e+00 0.000e+00 1.296e-03 6.486e-04 -9.507e-04
79 1 0.000e+00 0.000e+00 0.000e+00 1.922e-03 9.903e-02 -4.931e-05
80 1 -1.000e-01 0.000e+00 0.000e+00 -2.537e-04 -1.665e-03 -1.130e-04
ITEM: TIMESTEP
0
ITEM: NUMBER OF ATOMS
4
ITEM: BOX BOUNDS xy xz yz pp pp pp
                     -5.00000000000000e-01 5.00000000000000e-01 0.00000000000000e+00
-5.00000000000000e-01	5.00000000000000e-01	0.00000000000000e+00
-5.00000000000000e-01	5.00000000000000e-01	0.00000000000000e+00
ITEM: ATOMS id type x y z DisplacementX DisplacementY DisplacementZ
81 1 0.000e+00 -1.000e-01 0.000e+00 -3.995e-04 -3.879e-04 5.215e-04
82 1 0.000e+00 0.000e+00 0.000e+00 9.896e-02 9.696e-05 -1.513e-04
83 1 -1.000e-01 0.000e+00 0.000e+00 -8.857e-04 1.507e-03 1.171e-03
84 1 0.000e+00 1.000e-01 0.000e+00 1.213e-03 7.097e-04 7.471e-04
ITEM: TIMESTEP
0
ITEM: NUMBER OF ATOMS
4
ITEM: BOX BOUNDS xy xz yz pp pp pp
                     -5.00000000000000e-01 5.00000000000000e-01 0.00000000000000e+00
-5.00000000000000e-01	5.00000000000000e-01	0.00000000000000e+00
-5.00000000000000e-01	5.00000000000000e-01	0.00000000000000e+00
ITEM: ATOMS id type x y z DisplacementX DisplacementY DisplacementZ
85 1 0.000e+00 0.000e+00 0.000e+00 -9.842e-02 -1.214e-03 -1.490e-04
86 1 1.000e-01 0.000e+00 0.000e+00 -2.301e-03 -1.608e-03 -3.287e-04
87 1 0.000e+00 -1.000e-01 0.000e+00 4.970e-05 -2.509e-03 1.595e-04
88 1 0.000e+00 1.000e-01 0.000e+00 6.464e-05 -1.145e-04 2.837e-04
ITEM: TIMESTEP
0
ITEM: NUMBER OF ATOMS
4
ITEM: BOX BOUNDS xy xz yz pp pp pp
                     -5.00000000000000e-01 5.00000000000000e-01 0.00000000000000e+00
-5.00000000000000e-01	5.00000000000000e-01	0.00000000000000e+00
-5.00000000000000e-01	5.00000000000000e-01	0.00000000000000e+00
ITEM: ATOMS id type x y z DisplacementX DisplacementY DisplacementZ
89 1 -1.000e-01 0.000e+00 0.000e+00 -1.116e-04 1.025e-03 -7.217e-04
90 1 0.000e+00 -1.000e-01 0.000e+00 -7.833e-04 -4.799e-05 1.708e-03
91 1 1.000e-01 0.000e+00 0.000e+00 -6.660e-04 -8.380e-04 1.717e-03
92 1 0.000e+00 0.000e+00 0.000e+00 -7.620e-04 1.004e-01 1.446e-03
ITEM: TIMESTEP
0
ITEM: NUMBER OF ATOMS
4
ITEM: BOX BOUNDS xy xz yz pp pp pp
                     -5.00000000000000e-01 5.00000000000000e-01 0.00000000000000e+00
-5.00000000000000e-01	5.00000000000000e-01	0.00000000000000e+00
-5.00000000000000e-01	5.00000000000000e-01	0.00000000000000e+00
ITEM: ATOMS id type x y z DisplacementX DisplacementY DisplacementZ
93 1 -1.000e-01 0.000e+00 0.000e+00 -2.732e-04 -3.140e-04 -6.230e-04
94 1 0.000e+00 1.000e-01 0.000e+00 -2.585e-04 1.214e-03 1.484e-04
95 1 1.000e-01 0.000e+00 0.000e+00 8.640e-04 -1.069e-03 -1.236e-03
96 1 0.000e+00 0.000e+00 0.000e+00 2.620e-04 -1.002e-01 -2.924e-04
ITEM: TIMESTEP
0
ITEM: NUMBER OF ATOMS
4
ITEM: BOX BOUNDS xy xz yz pp pp pp
                     -5.00000000000000e-01 5.00000000000000e-01 0.00000000000000e+00
-5.00000000000000e-01	5.00000000000000e-01	0.00000000000000e+00
-5.00000000000000e-01	5.00000000000000e-01	0.00000000000000e+00
ITEM: ATOMS id type x y z DisplacementX DisplacementY DisplacementZ
97 1 0.000e+00 -1.000e-01 0.000e+00 1.499e-04 2.070e-03 -9.230e-04
98 1 0.000e+00 0.000e+00 0.000e+00 -1.009e-01 -1.348e-03 1.978e-03
99 1 0.000e+00 1.000e-01 0.000e+00 -2.258e-04 -6.114e-04 1.524e-03
100 1 1.000e-01 0.000e+00 0.000e+00 8.681e-05 -3.591e-04 -9.982e-04
ITEM: TIMESTEP
0
ITEM: NUMBER OF ATOMS
4
ITEM: BOX BOUNDS xy xz yz pp pp pp
                     -5.00000000000000e-01 5.00000000000000e-01 0.00000000000000e+00
-5.00000000000000e-01	5.00000000000000e-01	0.00000000000000e+00
-5.00000000000000e-01	5.00000000000000e-01	0.00000000000000e+00
ITEM: ATOMS id type x y z DisplacementX DisplacementY DisplacementZ
101 1 1.000e-01 0.000e+00 0.000e+00 7.818e-04 -1.654e-03 9.324e-04
102 1 0.000e+00 0.000e+00 0.000e+00 7.926e-04 9.983e-02 3.645e-04
103 1 0.000e+00 -1.000e-01 0.000e+00 -1.763e-03 3.432e-04 -1.448e-03
104 1 -1.000e-01 0.000e+00 0.000e+00 -1.413e-04 -1.455e-03 -8.381e-04
ITEM: TIMESTEP
0
ITEM: NUMBER OF ATOMS
4
ITEM: BOX BOUNDS xy xz yz pp pp pp
                     -5.00000000000000e-01 5.00000000000000e-01 0.00000000000000e+00
-5.00000000000000e-01	5.00000000000000e-01	0.00000000000000e+00
-5.00000000000000e-01	5.00000000000000e-01	0.00000000000000e+00
ITEM: ATOMS id type x y z DisplacementX DisplacementY DisplacementZ
105 1 -1.000e-01 0.000e+00 0.000e+00 -1.494e-03 -1.245e-03 6.363e-04
106 1 1.000e-01 0.000e+00 0.000e+00 7.199e-04 2.360e-04 -1.471e-03
107 1 0.000e+00 0.000e+00 0.000e+00 1.923e-03 -9.871e-02 1.092e-03
108 1 0.000e+00 1.000e-01 0.000e+00 5.174e-04 1.277e-03 1.018e-03
ITEM: TIMESTEP
0
ITEM: NUMBER OF ATOMS
4
ITEM: BOX BOUNDS xy xz yz pp pp pp
                     -5.00000000000000e-01 5.00000000000000e-01 0.00000000000000e+00
-5.00000000000000e-01	5.00000000000000e-01	0.00000000000000e+00
-5.00000000000000e-01	5.00000000000000e-01	0.00000000000000e+00
ITEM: ATOMS id type x y z DisplacementX DisplacementY DisplacementZ
109 1 0.000e+00 1.000e-01 0.000e+00 3.881e-04 -2.159e-04 -9.576e-04
110 1 -1.000e-01 0.000e+00 0.000e+00 1.367e-04 7.226e-04 -4.623e-04
111 1 0.000e+00 0.000e+00 0.000e+00 9.937e-02 -7.286e-04 8.905e-05
112 1 0.000e+00 -1.000e-01 0.000e+00 1.154e-03 -8.361e-04 6.915e-04
ITEM: TIMESTEP
0
ITEM: NUMBER OF ATOMS
4
ITEM: BOX BOUNDS xy xz yz pp pp pp
                     -5.00000000000000e-01 5.00000000000000e-01 0.00000000000000e+00
-5.00000000000000e-01	5.00000000000000e-01	0.00000000000000e+00
-5.00000000000000e-01	5.00000000000000e-01	0.00000000000000e+00
ITEM: ATOMS id type x y z DisplacementX DisplacementY DisplacementZ
113 1 0.000e+00 1.000e-01 0.000e+00 -1.359e-04 6.818e-04 2.726e-05
114 1 0.000e+00 0.000e+00 0.000e+00 9.950e-02 3.429e-05 -1.544e-03
115 1 0.000e+00 -1.000e-01 0.000e+00 1.457e-03 1.094e-03 1.234e-04
116 1 -1.000e-01 0.000e+00 0.000e+00 1.077e-03 -1.853e-04 -6.456e-04
ITEM: TIMESTEP
0
ITEM: NUMBER OF ATOMS
4
ITEM: BOX BOUNDS xy xz yz pp pp pp
                     -5.00000000000000e-01 5.00000000000000e-01 0.00000000000000e+00
-5.00000000000000e-01	5.00000000000000e-01	0.00000000000000e+00
-5.00000000000000e-01	5.00000000000000e-01	0.00000000000000e+00
ITEM: ATOMS id type x y z DisplacementX DisplacementY DisplacementZ
117 1 -1.000e-01 0.000e+00 0.000e+00 -1.688e-03 1.782e-03 -2.253e-03
118 1 0.000e+00 1.000e-01 0.000e+00 3.788e-04 1.133e-03 -6.820e-04
119 1 0.000e+00 0.000e+00 0.000e+00 1.570e-03 -9.891e-02 4.635e-04
120 1 1.000e-01 0.000e+00 0.000e+00 1.782e-04 7.460e-04 1.240e-04
ITEM: TIMESTEP
0
ITEM: NUMBER OF ATOMS
4
ITEM: BOX BOUNDS xy xz yz pp pp pp
                     -5.00000000000000e-01 5.00000000000000e-01 0.00000000000000e+00
-5.00000000000000e-01	5.00000000000000e-01	0.00000000000000e+00
-5.00000000000000e-01	5.00000000000000e-01	0.00000000000000e+00
ITEM: ATOMS id type x y z DisplacementX DisplacementY DisplacementZ
121 1 0.000e+00 -1.000e-01 0.000e+00 9.892e-04 -4.767e-04 -2.726e-04
122 1 0.000e+00 1.000e-01 0.000e+00 1.078e-03 -8.053e-04 -5.272e-04
123 1 1.000e-01 0.000e+00 0.000e+00 -1.718e-03 2.748e-05 2.247e-04
124 1 0.000e+00 0.000e+00 0.000e+00 -9.971e-02 -1.341e-04 -8.350e-04
ITEM: TIMESTEP
0
ITEM: NUMBER OF ATOMS
4
ITEM: BOX BOUNDS xy xz yz pp pp pp
                     -5.00000000000000e-01 5.00000000000000e-01 0.00000000000000e+00
-5.00000000000000e-01	5.00000000000000e-01	0.00000000000000e+00
-5.00000000000000e-01	5.00000000000000e-01	0.00000000000000e+00
ITEM: ATOMS id type x y z DisplacementX DisplacementY DisplacementZ
125 1 1.000e-01 0.000e+00 0.000e+00 3.395e-04 2.231e-04 7.234e-04
126 1 -1.000e-01 0.000e+00 0.000e+00 2.551e-03 1.271e-03 -1.251e-03
127 1 0.000e+00 -1.000e-01 0.000e+00 1.345e-03 4.029e-04 4.860e-04
128 1 0.000e+00 0.000e+00 0.000e+00 7.302e-04 9.982e-02 -1.062e-04
ITEM: TIMESTEP
0
ITEM: NUMBER OF ATOMS
4
ITEM: BOX BOUNDS xy xz yz pp pp pp
                     -5.00000000000000e-01 5.00000000000000e-01 0.00000000000000e+00
-5.00000000000000e-01	5.00000000000000e-01	0.00000000000000e+00
-5.00000000000000e-01	5.00000000000000e-01	0.00000000000000e+00
ITEM: ATOMS id type x y z DisplacementX DisplacementY DisplacementZ
129 1 0.000e+00 1.000e-01 0.000e+00 1.135e-03 -1.617e-03 -6.341e-04
130 1 0.000e+00 0.000e+00 0.000e+00 -1.097e-03 -1.004e-01 -4.140e-04
131 1 -1.000e-01 0.000e+00 0.000e+00 7.411e-04 -1.127e-04 -1.310e-04
132 1 1.000e-01 0.000e+00 0.000e+00 4.648e-04 3.817e-04 -1.121e-03
ITEM: TIMESTEP
0
ITEM: NUMBER OF ATOMS
4
ITEM: BOX BOUNDS xy xz yz pp pp pp
                     -5.00000000000000e-01 5.00000000000000e-01 0.00000000000000e+00
-5.00000000000000e-01	5.00000000000000e-01	0.00000000000000e+00
-5.00000000000000e-01	5.00000000000000e-01	0.00000000000000e+00
ITEM: ATOMS id type x y z DisplacementX DisplacementY DisplacementZ
133 1 0.000e+00 0.000e+00 0.000e+00 -9.882e-02 -5.140e-04 -2.142e-03
134 1 1.000e-01 0.000e+00 0.000e+00 -6.654e-04 -5.178e-04 5.909e-04
135 1 0.000e+00 -1.000e-01 0.000e+00 -4.534e-04 2.065e-03 1.023e-03
136 1 0.000e+00 1.000e-01 0.000e+00 1.643e-03 7.412e-04 9.078e-04
ITEM: TIMESTEP
0
ITEM: NUMBER OF ATOMS
4
ITEM: BOX BOUNDS xy xz yz pp pp pp
                     -5.00000000000000e-01 5.00000000000000e-01 0.00000000000000e+00
-5.00000000000000e-01	5.00000000000000e-01	0.00000000000000e+00
-5.00000000000000e-01	5.00000000000000e-01	0.00000000000000e+00
ITEM: ATOMS id type x y z DisplacementX DisplacementY DisplacementZ
137 1 0.000e+00 -1.000e-01 0.000e+00 -6.311e-04 1.846e-06 -1.345e-03
138 1 -1.000e-01 0.000e+00 0.000e+00 -1.420e-03 -7.487e-04 -3.084e-04
139 1 0.000e+00 0.000e+00 0.000e+00 -1.793e-03 9.989e-02 2.023e-04
140 1 1.000e-01 0.000e+00 0.000e+00 -8.331e-04 2.426e-04 -6.810e-04
ITEM: TIMESTEP
0
ITEM: NUMBER OF ATOMS
4
ITEM: BOX BOUNDS xy xz yz pp pp pp
                     -5.00000000000000e-01 5.00000000000000e-01 0.00000000000000e+00
-5.00000000000000e-01	5.00000000000000e-01	0.00000000000000e+00
-5.00000000000000e-01	5.00000000000000e-01	0.00000000000000e+00
ITEM: ATOMS id type x y z DisplacementX DisplacementY DisplacementZ
141 1 -1.000e-01 0.000e+00 0.000e+00 3.155e-04 9.313e-04 4.307e-04
142 1 0.000e+00 -1.000e-01 0.000e+00 3.510e-04 -1.084e-03 -2.011e-03
143 1 0.000e+00 1.000e-01 0.000e+00 1.669e-04 1.960e-04 -2.870e-03
144 1 0.000e+00 0.000e+00 0.000e+00 1.003e-01 4.236e-04 -5.998e-04
ITEM: TIMESTEP
0
ITEM: NUMBER OF ATOMS
4
ITEM: BOX BOUNDS xy xz yz pp pp pp
                     -5.00000000000000e-01 5.00000000000000e-01 0.00000000000000e+00
-5.00000000000000e-01	5.00000000000000e-01	0.00000000000000e+00
-5.00000000000000e-01	5.00000000000000e-01	0.00000000000000e+00
ITEM: ATOMS id type x y z DisplacementX DisplacementY DisplacementZ
145 1 -1.000e-01 0.000e+00 0.000e+00 -3.494e-04 1.808e-03 -2.743e-04
146 1 0.000e+00 -1.000e-01 0.000e+00 5.592e-04 4.685e-05 -8.860e-04
147 1 1.000e-01 0.000e+00 0.000e+00 1.957e-03 2.090e-04 3.345e-05
148 1 0.000e+00 0.000e+00 0.000e+00 8.352e-04 9.773e-02 -5.650e-04
ITEM: TIMESTEP
0
ITEM: NUMBER OF ATOMS
4
ITEM: BOX BOUNDS xy xz yz pp pp pp
                     -5.00000000000000e-01 5.00000000000000e-01 0.00000000000000e+00
-5.00000000000000e-01	5.00000000000000e-01	0.00000000000000e+00
-5.00000000000000e-01	5.00000000000000e-01	0.00000000000000e+00
ITEM: ATOMS id type x y z DisplacementX DisplacementY DisplacementZ
149 1 0.000e+00 -1.000e-01 0.000e+00 1.861e-04 -5.747e-04 -5.422e-06
150 1 0.000e+00 0.000e+00 0.000e+00 9.941e-02 8.058e-05 -1.246e-03
151 1 0.000e+00 1.000e-01 0.000e+00 1.076e-03 9.175e-04 -5.739e-04
152 1 -1.000e-01 0.000e+00 0.000e+00 7.022e-04 3.067e-04 -2.347e-04
ITEM: TIMESTEP
0
ITEM: NUMBER OF ATOMS
4
ITEM: BOX BOUNDS xy xz yz pp pp pp
                     -5.00000000000000e-01 5.00000000000000e-01 0.00000000000000e+00
-5.00000000000000e-01	5.00000000000000e-01	0.00000000000000e+00
-5.00000000000000e-01	5.00000000000000e-01	0.00000000000000e+00
ITEM: ATOMS id type x y z DisplacementX DisplacementY DisplacementZ
153 1 0.000e+00 -1.000e-01 0.000e+00 2.392e-04 6.643e-04 1.843e-03
154 1 1.000e-01 0.000e+00 0.000e+00 1.356e-03 7.833e-05 -2.724e-03
155 1 0.000e+00 1.000e-01 0.000e+00 4.807e-04 -2.270e-04 9.324e-05
156 1 0.000e+00 0.000e+00 0.000e+00 -9.937e-02 7.234e-04 4.504e-04
ITEM: TIMESTEP
0
ITEM: NUMBER OF ATOMS
4
ITEM: BOX BOUNDS xy xz yz pp pp pp
                     -5.00000000000000e-01 5.00000000000000e-01 0.00000000000000e+00
-5.00000000000000e-01	5.00000000000000e-01	0.00000000000000e+00
-5.00000000000000e-01	5.00000000000000e-01	0.00000000000000e+00
ITEM: ATOMS id type x y z DisplacementX DisplacementY DisplacementZ
157 1 -1.000e-01 0.000e+00 0.000e+00 1.988e-04 1.362e-03 -1.363e-03
158 1 0.000e+00 1.000e-01 0.000e+00 1.229e-07 -3.468e-04 7.682e-04
159 1 1.000e-01 0.000e+00 0.000e+00 7.470e-04 1.337e-03 1.683e-03
160 1 0.000e+00 0.000e+00 0.000e+00 -1.518e-03 -1.004e-01 1.196e-03
ITEM: TIMESTEP
0
ITEM: NUMBER OF ATOMS
4
ITEM: BOX BOUNDS xy xz yz pp pp pp
                     -5.00000000000000e-01 5.00000000000000e-01 0.00000000000000e+00
-5.00000000000000e-01	5.00000000000000e-01	0.00000000000000e+00
-5.00000000000000e-01	5.00000000000000e-01	0.00000000000000e+00
ITEM: ATOMS id type x y z DisplacementX DisplacementY DisplacementZ
161 1 0.000e+00 0.000e+00 0.000e+00 -1.000e-01 -6.954e-04 -2.230e-04
162 1 0.000e+00 1.000e-01 0.000e+00 -2.090e-03 1.519e-03 -4.592e-04
163 1 0.000e+00 -1.000e-01 0.000e+00 -8.964e-04 -9.784e-04 -3.062e-04
164 1 1.000e-01 0.000e+00 0.000e+00 2.393e-05 -1.772e-03 -1.147e-03
ITEM: TIMESTEP
0
ITEM: NUMBER OF ATOMS
4
ITEM: BOX BOUNDS xy xz yz pp pp pp
                     -5.00000000000000e-01 5.00000000000000e-01 0.00000000000000e+00
-5.00000000000000e-01	5.00000000000000e-01	0.00000000000000e+00
-5.00000000000000e-01	5.00000000000000e-01	0.00000000000000e+00
ITEM: ATOMS id type x y z DisplacementX DisplacementY DisplacementZ
165 1 -1.000e-01 0.000e+00 0.000e+00 -1.563e-03 1.136e-04 -5.402e-04
166 1 0.000e+00 0.000e+00 0.000e+00 2.412e-04 9.746e-02 -7.117e-04
167 1 1.000e-01 0.000e+00 0.000e+00 6.363e-04 -1.005e-03 1.346e-03
168 1 0.000e+00 -1.000e-01 0.000e+00 -1.051e-03 1.156e-04 -1.225e-03
ITEM: TIMESTEP
0
ITEM: NUMBER OF ATOMS
4
ITEM: BOX BOUNDS xy xz yz pp pp pp
                     -5.00000000000000e-01 5.00000000000000e-01 0.00000000000000e+00
-5.00000000000000e-01	5.00000000000000e-01	0.00000000000000e+00
-5.00000000000000e-01	5.00000000000000e-01	0.00000000000000e+00
ITEM: ATOMS id type x y z DisplacementX DisplacementY DisplacementZ
169 1 0.000e+00 1.000e-01 0.000e+00 -7.136e-04 3.211e-04 3.202e-04
170 1 1.000e-01 0.000e+00 0.000e+00 -6.252e-04 3.014e-04 2.217e-03
171 1 -1.000e-01 0.000e+00 0.000e+00 -4.510e-04 7.448e-04 -1.584e-04
172 1 0.000e+00 0.000e+00 0.000e+00 -1.883e-03 -9.916e-02 -8.052e-04
ITEM: TIMESTEP
0
ITEM: NUMBER OF ATOMS
4
ITEM: BOX BOUNDS xy xz yz pp pp pp
                     -5.00000000000000e-01 5.00000000000000e-01 0.00000000000000e+00
-5.00000000000000e-01	5.00000000000000e-01	0.00000000000000e+00
-5.00000000000000e-01	5.00000000000000e-01	0.00000000000000e+00
ITEM: ATOMS id type x y z DisplacementX DisplacementY DisplacementZ
173 1 0.000e+00 1.000e-01 0.000e+00 3.683e-04 6.711e-05 -1.337e-03
174 1 0.000e+00 -1.000e-01 0.000e+00 3.833e-04 -7.749e-04 1.892e-03
175 1 -1.000e-01 0.000e+00 0.000e+00 -1.027e-03 -1.972e-03 -2.606e-04
176 1 0.000e+00 0.000e+00 0.000e+00 1.008e-01 -1.184e-03 -1.388e-03
ITEM: TIMESTEP
0
ITEM: NUMBER OF ATOMS
4
ITEM: BOX BOUNDS xy xz yz pp pp pp
                     -5.00000000000000e-01 5.00000000000000e-01 0.00000000000000e+00
-5.00000000000000e-01	5.00000000000000e-01	0.00000000000000e+00
-5.00000000000000e-01	5.00000000000000e-01	0.00000000000000e+00
ITEM: ATOMS id type x y z DisplacementX DisplacementY DisplacementZ
177 1 0.000e+00 0.000e+00 0.000e+00 -9.799e-02 5.449e-04 -4.042e-04
178 1 0.000e+00 1.000e-01 0.000e+00 6.444e-04 1.018e-03 1.027e-03
179 1 1.000e-01 0.000e+00 0.000e+00 -1.113e-04 4.242e-04 -1.784e-03
180 1 0.000e+00 -1.000e-01 0.000e+00 1.808e-03 8.655e-04 -1.649e-04
ITEM: TIMESTEP
0
ITEM: NUMBER OF ATOMS
4
ITEM: BOX BOUNDS xy xz yz pp pp pp
                     -5.00000000000000e-01 5.00000000000000e-01 0.00000000000000e+00
-5.00000000000000e-01	5.00000000000000e-01	0.00000000000000e+00
-5.00000000000000e-01	5.00000000000000e-01	0.00000000000000e+00
ITEM: ATOMS id type x y z DisplacementX DisplacementY DisplacementZ
181 1 0.000e+00 0.000e+00 0.000e+00 9.993e-02 1.635e-03 -8.742e-06
182 1 -1.000e-01 0.000e+00 0.000e+00 -5.751e-04 5.440e-04 1.660e-04
183 1 0.000e+00 1.000e-01 0.000e+00 -1.093e-03 -1.064e-03 5.169e-04
184 1 0.000e+00 -1.000e-01 0.000e+00 9.887e-04 -7.522e-04 -1.264e-03
ITEM: TIMESTEP
0
ITEM: NUMBER OF ATOMS
4
ITEM: BOX BOUNDS xy xz yz pp pp pp
                     -5.00000000000000e-01 5.00000000000000e-01 0.00000000000000e+00
-5.00000000000000e-01	5.00000000000000e-01	0.00000000000000e+00
-5.00000000000000e-01	5.00000000000000e-01	0.00000000000000e+00
ITEM: ATOMS id type x y z DisplacementX DisplacementY DisplacementZ
185 1 0.000e+00 -1.000e-01 0.000e+00 2.623e-03 9.119e-04 -4.803e-04
186 1 0.000e+00 0.000e+00 0.000e+00 2.255e-04 9.920e-02 9.868e-04
187 1 1.000e-01 0.000e+00 0.000e+00 -5.289e-04 -4.642e-04 -4.816e-04
188 1 -1.000e-01 0.000e+00 0.000e+00 4.339e-04 -1.735e-03 -1.182e-03
ITEM: TIMESTEP
0
ITEM: NUMBER OF ATOMS
4
ITEM: BOX BOUNDS xy xz yz pp pp pp
                     -5.00000000000000e-01 5.00000000000000e-01 0.00000000000000e+00
-5.00000000000000e-01	5.00000000000000e-01	0.00000000000000e+00
-5.00000000000000e-01	5.00000000000000e-01	0.00000000000000e+00
ITEM: ATOMS id type x y z DisplacementX DisplacementY DisplacementZ
189 1 1.000e-01 0.000e+00 0.000e+00 1.702e-03 1.165e-03 1.555e-03
190 1 0.000e+00 1.000e-01 0.000e+00 -1.471e-04 -7.337e-04 -8.702e-05