ITEM: TIMESTEP
0
ITEM: NUMBER OF ATOMS
4
ITEM: BOX BOUNDS xy xz yz pp pp pp
                     -5.00000000000000e-01 5.00000000000000e-01 0.00000000000000e+00
-5.00000000000000e-01	5.00000000000000e-01	0.00000000000000e+00
-5.00000000000000e-01	5.00000000000000e-01	0.00000000000000e+00
ITEM: ATOMS id type x y z DisplacementX DisplacementY DisplacementZ
1 1 0.000e+00 -1.000e-01 0.000e+00 5.834e-04 1.168e-04 -1.798e-03
2 1 0.000e+00 0.000e+00 0.000e+00 -4.202e-04 1.003e-01 5.160e-04
3 1 1.000e-01 0.000e+00 0.000e+00 -7.432e-04 6.239e-04 6.779e-04
4 1 -1.000e-01 0.000e+00 0.000e+00 9.659e-04 1.961e-04 -1.825e-03
ITEM: TIMESTEP
0
ITEM: NUMBER OF ATOMS
4
ITEM: BOX BOUNDS xy xz yz pp pp pp
                     -5.00000000000000e-01 5.00000000000000e-01 0.00000000000000e+00
-5.00000000000000e-01	5.00000000000000e-01	0.00000000000000e+00
-5.00000000000000e-01	5.00000000000000e-01	0.00000000000000e+00
ITEM: ATOMS id type x y z DisplacementX DisplacementY DisplacementZ
5 1 -1.000e-01 0.000e+00 0.000e+00 3.037e-04 4.583e-04 -2.006e-04
6 1 1.000e-01 0.000e+00 0.000e+00 -2.788e-04 8.627e-04 -4.175e-04
7 1 0.000e+00 0.000e+00 0.000e+00 2.130e-03 -1.000e-01 3.909e-05
8 1 0.000e+00 1.000e-01 0.000e+00 -3.214e-04 1.573e-03 6.402e-04
ITEM: TIMESTEP
0
ITEM: NUMBER OF ATOMS
4
ITEM: BOX BOUNDS xy xz yz pp pp pp
                     -5.00000000000000e-01 5.00000000000000e-01 0.00000000000000e+00
-5.00000000000000e-01	5.00000000000000e-01	0.00000000000000e+00
-5.00000000000000e-01	5.00000000000000e-01	0.00000000000000e+00
ITEM: ATOMS id type x y z DisplacementX DisplacementY DisplacementZ
9 1 0.000e+00 1.000e-01 0.000e+00 1.230e-03 1.201e-03 -1.054e-03
10 1 0.000e+00 -1.000e-01 0.000e+00 -1.126e-03 -1.897e-03 -1.933e-03
11 1 0.000e+00 0.000e+00 0.000e+00 -9.946e-02 -1.425e-03 2.064e-03
12 1 1.000e-01 0.000e+00 0.000e+00 1.690e-03 9.480e-04 9.812e-04
ITEM: TIMESTEP
0
ITEM: NUMBER OF ATOMS
4
ITEM: BOX BOUNDS xy xz yz pp pp pp
                     -5.00000000000000e-01 5.00000000000000e-01 0.00000000000000e+00
-5.00000000000000e-01	5.00000000000000e-01	0.00000000000000e+00
-5.00000000000000e-01	5.00000000000000e-01	0.00000000000000e+00
ITEM: ATOMS id type x y z DisplacementX DisplacementY DisplacementZ
13 1 -1.000e-01 0.000e+00 0.000e+00 3.801e-04 -2.579e-04 -8.085e-04
14 1 0.000e+00 1.000e-01 0.000e+00 1.429e-03 5.566e-04 1.796e-04
15 1 0.000e+00 -1.000e-01 0.000e+00 -1.588e-03 2.372e-04 -6.717e-04
16 1 0.000e+00 0.000e+00 0.000e+00 1.008e-01 6.281e-04 -8.227e-04
ITEM: TIMESTEP
0
ITEM: NUMBER OF ATOMS
4
ITEM: BOX BOUNDS xy xz yz pp pp pp
                     -5.00000000000000e-01 5.00000000000000e-01 0.00000000000000e+00
-5.00000000000000e-01	5.00000000000000e-01	0.00000000000000e+00
-5.00000000000000e-01	5.00000000000000e-01	0.00000000000000e+00
ITEM: ATOMS id type x y z DisplacementX DisplacementY DisplacementZ
17 1 1.000e-01 0.000e+00 0.000e+00 -7.283e-04 -1.254e-03 6.609e-04
18 1 0.000e+00 0.000e+00 0.000e+00 -3.990e-04 -9.942e-02 -8.231e-04
19 1 -1.000e-01 0.000e+00 0.000e+00 1.539e-03 -1.146e-03 1.394e-03
20 1 0.000e+00 1.000e-01 0.000e+00 1.393e-03 4.667e-04 1.706e-03
ITEM: TIMESTEP
0
ITEM: NUMBER OF ATOMS
4
ITEM: BOX BOUNDS xy xz yz pp pp pp
                     -5.00000000000000e-01 5.00000000000000e-01 0.00000000000000e+00
-5.00000000000000e-01	5.00000000000000e-01	0.00000000000000e+00
-5.00000000000000e-01	5.00000000000000e-01	0.00000000000000e+00
ITEM: ATOMS id type x y z DisplacementX DisplacementY DisplacementZ
21 1 0.000e+00 1.000e-01 0.000e+00 9.588e-04 3.423e-04 1.414e-03
22 1 1.000e-01 0.000e+00 0.000e+00 4.256e-04 2.642e-04 4.991e-04
23 1 0.000e+00 0.000e+00 0.000e+00 -9.976e-02 -1.390e-04 -6.579e-04
24 1 0.000e+00 -1.000e-01 0.000e+00 -3.897e-04 2.034e-04 -1.445e-03
ITEM: TIMESTEP
0
ITEM: NUMBER OF ATOMS
4
ITEM: BOX BOUNDS xy xz yz pp pp pp
                     -5.00000000000000e-01 5.00000000000000e-01 0.00000000000000e+00
-5.00000000000000e-01	5.00000000000000e-01	0.00000000000000e+00
-5.00000000000000e-01	5.00000000000000e-01	0.00000000000000e+00
ITEM: ATOMS id type x y z DisplacementX DisplacementY DisplacementZ
25 1 0.000e+00 -1.000e-01 0.000e+00 -1.988e-03 3.218e-03 2.902e-05
26 1 0.000e+00 0.000e+00 0.000e+00 9.921e-02 2.519e-04 -9.861e-04
27 1 0.000e+00 1.000e-01 0.000e+00 1.308e-03 -8.174e-04 -1.118e-03
28 1 -1.000e-01 0.000e+00 0.000e+00 -3.896e-04 6.463e-05 -4.087e-04
ITEM: TIMESTEP
0
ITEM: NUMBER OF ATOMS
4
ITEM: BOX BOUNDS xy xz yz pp pp pp
                     -5.00000000000000e-01 5.00000000000000e-01 0.00000000000000e+00
-5.00000000000000e-01	5.00000000000000e-01	0.00000000000000e+00
-5.00000000000000e-01	5.00000000000000e-01	0.00000000000000e+00
ITEM: ATOMS id type x y z DisplacementX DisplacementY DisplacementZ
29 1 -1.000e-01 0.000e+00 0.000e+00 -4.232e-04 1.038e-03 1.211e-03
30 1 0.000e+00 -1.000e-01 0.000e+00 2.200e-04 -2.077e-04 1.175e-05
31 1 0.000e+00 0.000e+00 0.000e+00 1.699e-03 1.002e-01 -3.472e-06
32 1 1.000e-01 0.000e+00 0.000e+00 1.991e-03 -1.355e-03 -6.093e-04
ITEM: TIMESTEP
0
ITEM: NUMBER OF ATOMS
4
ITEM: BOX BOUNDS xy xz yz pp pp pp
                     -5.00000000000000e-01 5.00000000000000e-01 0.00000000000000e+00
-5.00000000000000e-01	5.00000000000000e-01	0.00000000000000e+00
-5.00000000000000e-01	5.00000000000000e-01	0.00000000000000e+00
ITEM: ATOMS id type x y z DisplacementX DisplacementY DisplacementZ
33 1 0.000e+00 0.000e+00 0.000e+00 -9.984e-02 8.211e-04 -1.486e-03
34 1 0.000e+00 1.000e-01 0.000e+00 8.294e-04 8.615e-04 5.482e-04
35 1 0.000e+00 -1.000e-01 0.000e+00 -4.335e-04 -7.380e-04 6.494e-04
36 1 1.000e-01 0.000e+00 0.000e+00 -3.476e-04 -1.508e-03 -5.008e-04
ITEM: TIMESTEP
0
ITEM: NUMBER OF ATOMS
4
ITEM: BOX BOUNDS xy xz yz pp pp pp
                     -5.00000000000000e-01 5.00000000000000e-01 0.00000000000000e+00
-5.00000000000000e-01	5.00000000000000e-01	0.00000000000000e+00
-5.00000000000000e-01	5.00000000000000e-01	0.00000000000000e+00
ITEM: ATOMS id type x y z DisplacementX DisplacementY DisplacementZ
37 1 1.000e-01 0.000e+00 0.000e+00 -1.645e-04 9.772e-04 -8.378e-04
38 1 0.000e+00 0.000e+00 0.000e+00 -4.839e-04 9.940e-02 -2.046e-03
39 1 0.000e+00 -1.000e-01 0.000e+00 -3.722e-04 -3.000e-04 -1.634e-04
40 1 -1.000e-01 0.000e+00 0.000e+00 -1.060e-03 -3.045e-04 1.053e-03
ITEM: TIMESTEP
0
ITEM: NUMBER OF ATOMS
4
ITEM: BOX BOUNDS xy xz yz pp pp pp
                     -5.00000000000000e-01 5.00000000000000e-01 0.00000000000000e+00
-5.00000000000000e-01	5.00000000000000e-01	0.00000000000000e+00
-5.00000000000000e-01	5.00000000000000e-01	0.00000000000000e+00
ITEM: ATOMS id type x y z DisplacementX DisplacementY DisplacementZ
41 1 1.000e-01 0.000e+00 0.000e+00 4.190e-04 3.756e-04 2.318e-04
42 1 0.000e+00 0.000e+00 0.000e+00 -3.755e-04 -9.986e-02 -1.062e-03
43 1 -1.000e-01 0.000e+00 0.000e+00 -1.691e-03 -4.585e-04 -1.238e-03
44 1 0.000e+00 1.000e-01 0.000e+00 2.180e-05 -1.177e-03 7.654e-04
ITEM: TIMESTEP
0
ITEM: NUMBER OF ATOMS
4
ITEM: BOX BOUNDS xy xz yz pp pp pp
                     -5.00000000000000e-01 5.00000000000000e-01 0.00000000000000e+00
-5.00000000000000e-01	5.00000000000000e-01	0.00000000000000e+00
-5.00000000000000e-01	5.00000000000000e-01	0.00000000000000e+00
ITEM: ATOMS id type x y z DisplacementX DisplacementY DisplacementZ
45 1 -1.000e-01 0.000e+00 0.000e+00 -6.191e-05 5.743e-04 -1.088e-03
46 1 0.000e+00 1.000e-01 0.000e+00 1.090e-03 -9.366e-04 1.275e-03
47 1 0.000e+00 0.000e+00 0.000e+00 1.013e-01 -1.269e-03 -4.736e-04
48 1 0.000e+00 -1.000e-01 0.000e+00 2.305e-03 2.598e-04 1.082e-03
ITEM: TIMESTEP
0
ITEM: NUMBER OF ATOMS
4
ITEM: BOX BOUNDS xy xz yz pp pp pp
                     -5.00000000000000e-01 5.00000000000000e-01 0.00000000000000e+00
-5.00000000000000e-01	5.00000000000000e-01	0.00000000000000e+00
-5.00000000000000e-01	5.00000000000000e-01	0.00000000000000e+00
ITEM: ATOMS id type x y z DisplacementX DisplacementY DisplacementZ
49 1 0.000e+00 -1.000e-01 0.000e+00 -2.185e-04 2.952e-03 2.017e-05
50 1 0.000e+00 1.000e-01 0.000e+00 2.842e-04 8.060e-05 1.434e-03
51 1 0.000e+00 0.000e+00 0.000e+00 -1.005e-01 4.475e-04 -1.469e-03
52 1 1.000e-01 0.000e+00 0.000e+00 -9.329e-04 -1.451e-03 -7.365e-04
ITEM: TIMESTEP
0
ITEM: NUMBER OF ATOMS
4
ITEM: BOX BOUNDS xy xz yz pp pp pp
                     -5.00000000000000e-01 5.00000000000000e-01 0.00000000000000e+00
-5.00000000000000e-01	5.00000000000000e-01	0.00000000000000e+00
-5.00000000000000e-01	5.00000000000000e-01	0.00000000000000e+00
ITEM: ATOMS id type x y z DisplacementX DisplacementY DisplacementZ
53 1 1.000e-01 0.000e+00 0.000e+00 7.816e-04 -1.267e-03 -5.287e-04
54 1 -1.000e-01 0.000e+00 0.000e+00 5.111e-04 3.665e-04 -3.574e-04
55 1 0.000e+00 -1.000e-01 0.000e+00 5.172e-04 -8.832e-04 5.923e-04
56 1 0.000e+00 0.000e+00 0.000e+00 1.473e-04 9.990e-02 6.403e-04
ITEM: TIMESTEP
0
ITEM: NUMBER OF ATOMS
4
ITEM: BOX BOUNDS xy xz yz pp pp pp
                     -5.00000000000000e-01 5.00000000000000e-01 0.00000000000000e+00
-5.00000000000000e-01	5.00000000000000e-01	0.00000000000000e+00
-5.00000000000000e-01	5.00000000000000e-01	0.00000000000000e+00
ITEM: ATOMS id type x y z DisplacementX DisplacementY DisplacementZ
57 1 1.000e-01 0.000e+00 0.000e+00 -9.109e-04 -1.329e-04 4.572e-04
58 1 -1.000e-01 0.000e+00 0.000e+00 1.650e-03 -1.106e-03 2.680e-04
59 1 0.000e+00 0.000e+00 0.000e+00 -8.113e-04 -9.960e-02 2.233e-04
60 1 0.000e+00 1.000e-01 0.000e+00 -4.106e-04 5.408e-04 -7.017e-04
ITEM: TIMESTEP
0
ITEM: NUMBER OF ATOMS
4
ITEM: BOX BOUNDS xy xz yz pp pp pp
                     -5.00000000000000e-01 5.00000000000000e-01 0.00000000000000e+00
-5.00000000000000e-01	5.00000000000000e-01	0.00000000000000e+00
-5.00000000000000e-01	5.00000000000000e-01	0.00000000000000e+00
ITEM: ATOMS id type x y z DisplacementX DisplacementY DisplacementZ
61 1 0.000e+00 -1.000e-01 0.000e+00 -2.027e-03 -1.500e-03 2.256e-03
62 1 0.000e+00 1.000e-01 0.000e+00 4.526e-04 3.982e-04 6.804e-04
63 1 0.000e+00 0.000e+00 0.000e+00 9.964e-02 5.310e-04 -8.185e-04
64 1 -1.000e-01 0.000e+00 0.000e+00 2.445e-03 6.198e-04 3.890e-04
ITEM: TIMESTEP
0
ITEM: NUMBER OF ATOMS
4
ITEM: BOX BOUNDS xy xz yz pp pp pp
                     -5.00000000000000e-01 5.00000000000000e-01 0.00000000000000e+00
-5.00000000000000e-01	5.00000000000000e-01	0.00000000000000e+00
-5.00000000000000e-01	5.00000000000000e-01	0.00000000000000e+00
ITEM: ATOMS id type x y z DisplacementX DisplacementY DisplacementZ
65 1 0.000e+00 0.000e+00 0.000e+00 -1.526e-03 1.007e-01 7.995e-04
66 1 -1.000e-01 0.000e+00 0.000e+00 -1.721e-03 4.889e-05 3.742e-04
67 1 0.000e+00 -1.000e-01 0.000e+00 -8.113e-04 -1.397e-03 1.553e-03
68 1 1.000e-01 0.000e+00 0.000e+00 9.949e-04 -2.047e-04 7.739e-04
ITEM: TIMESTEP
0
ITEM: NUMBER OF ATOMS
4
ITEM: BOX BOUNDS xy xz yz pp pp pp
                     -5.00000000000000e-01 5.00000000000000e-01 0.00000000000000e+00
-5.00000000000000e-01	5.00000000000000e-01	0.00000000000000e+00
-5.00000000000000e-01	5.00000000000000e-01	0.00000000000000e+00
ITEM: ATOMS id type x y z DisplacementX DisplacementY DisplacementZ
69 1 0.000e+00 1.000e-01 0.000e+00 1.277e-03 -8.590e-04 -3.616e-04
70 1 1.000e-01 0.000e+00 0.000e+00 1.457e-03 -7.672e-04 3.183e-05
71 1 0.000e+00 0.000e+00 0.000e+00 -1.004e-01 1.471e-03 -4.541e-04
72 1 0.000e+00 -1.000e-01 0.000e+00 4.849e-04 9.717e-04 2.565e-03
ITEM: TIMESTEP
0
ITEM: NUMBER OF ATOMS
4
ITEM: BOX BOUNDS xy xz yz pp pp pp
                     -5.00000000000000e-01 5.00000000000000e-01 0.00000000000000e+00
-5.00000000000000e-01	5.00000000000000e-01	0.00000000000000e+00
-5.00000000000000e-01	5.00000000000000e-01	0.00000000000000e+00
ITEM: ATOMS id type x y z DisplacementX DisplacementY DisplacementZ
73 1 0.000e+00 1.000e-01 0.000e+00 6.016e-04 -1.294e-03 -9.839e-04
74 1 -1.000e-01 0.000e+00 0.000e+00 -6.821e-04 -1.905e-03 4.950e-04
75 1 0.000e+00 -1.000e-01 0.000e+00 -2.673e-04 1.242e-03 -7.142e-04
76 1 0.000e+00 0.000e+00 0.000e+00 1.001e-01 1.007e-03 -4.721e-04
ITEM: TIMESTEP
0
ITEM: NUMBER OF ATOMS
4
ITEM: BOX BOUNDS xy xz yz pp pp pp
                     -5.00000000000000e-01 5.00000000000000e-01 0.00000000000000e+00
-5.00000000000000e-01	5.00000000000000e-01	0.00000000000000e+00
-5.00000000000000e-01	5.00000000000000e-01	0.00000000000000e+00
ITEM: ATOMS id type x y z DisplacementX DisplacementY DisplacementZ
77 1 -1.000e-01 0.000e+00 0.000e+00 1.943e-03 1.039e-03 1.619e-03
78 1 1.000e-01 0.000e+00 0.000e+00 6.031e-04 6.333e-04 -9.454e-04
79 1 0.000e+00 1.000e-01 0.000e+00 -3.766e-04 -5.585e-04 6.734e-07
80 1 0.000e+00 0.000e+00 0.000e+00 7.012e-04 -1.005e-01 9.717e-04
