ITEM: TIMESTEP
0
ITEM: NUMBER OF ATOMS
107
ITEM: BOX BOUNDS xy xz yz pp pp pp
                     0.00000000000000e+00 1.06000000000000e+01 0.00000000000000e+00
0.00000000000000e+00	1.06000000000000e+01	0.00000000000000e+00
0.00000000000000e+00	1.06000000000000e+01	0.00000000000000e+00
ITEM: ATOMS id type x y z DisplacementX DisplacementY DisplacementZ
1 1 3.509e-01 3.524e-01 3.546e-01 1.206e-03 7.526e-04 2.060e-03
2 1 2.125e+00 2.123e+00 3.555e-01 -2.297e-03 8.901e-04 6.125e-05
3 1 2.125e+00 3.535e-01 2.125e+00 1.976e-04 -2.862e-03 -2.767e-04
4 1 3.518e-01 2.124e+00 2.123e+00 -2.653e-03 -1.334e-02 -1.663e-02
5 1 3.895e+00 3.524e-01 3.567e-01 1.600e-03 -7.563e-04 -5.816e-04
6 1 5.666e+00 2.123e+00 3.547e-01 1.157e-03 -1.459e-02 -1.737e-02
7 1 5.666e+00 3.512e-01 2.125e+00 -3.634e-03 -1.508e-02 -1.907e-02
8 1 3.897e+00 2.123e+00 2.126e+00 4.191e-03 -1.266e-02 -1.762e-02
9 1 7.434e+00 3.514e-01 3.562e-01 -4.003e-04 -1.360e-02 -2.186e-02
10 1 9.203e+00 2.123e+00 3.553e-01 -5.092e-04 -1.456e-02 -1.499e-02
11 1 9.203e+00 3.528e-01 2.125e+00 3.235e-03 -1.328e-02 -2.017e-02
12 1 7.433e+00 2.123e+00 2.122e+00 4.452e-04 -2.649e-02 -1.535e-02
13 1 3.532e-01 3.895e+00 3.548e-01 -2.792e-03 -1.578e-02 -1.577e-02
14 1 2.125e+00 3.895e+00 2.125e+00 -4.612e-04 -1.848e-02 -1.661e-02
15 1 3.894e+00 3.894e+00 3.559e-01 3.477e-04 -1.565e-02 -1.686e-02
16 1 5.666e+00 3.897e+00 2.126e+00 6.391e-03 -9.818e-03 -1.734e-02
17 1 7.435e+00 3.898e+00 3.566e-01 -1.586e-04 -1.180e-02 -1.059e-02
18 1 9.201e+00 3.897e+00 2.124e+00 -6.214e-03 -1.010e-02 -1.837e-02
19 1 3.515e-01 3.507e-01 3.894e+00 1.161e-03 1.432e-03 -9.040e-04
20 1 2.124e+00 2.123e+00 3.894e+00 2.496e-04 -2.742e-03 -4.832e-04
21 1 3.897e+00 3.496e-01 3.895e+00 3.582e-04 -1.375e-03 -1.771e-03
22 1 5.662e+00 2.126e+00 3.893e+00 3.373e-03 -1.519e-02 -1.766e-02
23 1 7.435e+00 3.637e-01 3.894e+00 -5.719e-04 -2.624e-02 -1.561e-02
24 1 9.206e+00 2.124e+00 3.895e+00 -4.267e-03 -1.475e-02 -1.854e-02
25 1 3.524e-01 3.900e+00 3.896e+00 -4.921e-04 -1.840e-02 -1.888e-02
26 1 3.898e+00 3.896e+00 3.893e+00 8.970e-05 -1.854e-02 -1.896e-02
27 1 7.432e+00 3.885e+00 3.894e+00 -7.225e-04 1.698e-03 -2.299e-02
28 1 2.125e+00 3.541e-01 5.664e+00 7.530e-04 5.020e-05 2.111e-03
29 1 3.531e-01 2.125e+00 5.663e+00 7.511e-04 2.671e-03 -1.608e-03
30 1 5.666e+00 3.507e-01 5.664e+00 -1.151e-03 4.505e-04 -1.738e-03
31 1 3.893e+00 2.123e+00 5.663e+00 -1.975e-03 8.516e-04 -9.639e-04
32 1 9.204e+00 3.506e-01 5.659e+00 -1.040e-03 8.167e-04 5.539e-04
33 1 7.433e+00 2.123e+00 5.667e+00 2.771e-04 -1.143e-02 -2.107e-02
34 1 2.124e+00 3.894e+00 5.662e+00 -3.564e-04 7.785e-04 2.895e-04
35 1 5.665e+00 3.897e+00 5.664e+00 -5.591e-04 -1.863e-02 -1.606e-02
36 1 9.202e+00 3.897e+00 5.662e+00 -1.460e-04 -1.535e-02 -1.591e-02
37 1 3.529e-01 3.539e-01 7.434e+00 1.093e-03 -7.989e-04 1.118e-03
38 1 2.124e+00 2.124e+00 7.434e+00 -2.556e-04 -1.304e-04 -1.542e-03
39 1 2.123e+00 3.540e-01 9.204e+00 8.301e-05 -1.123e-03 5.557e-05
40 1 3.527e-01 2.124e+00 9.204e+00 1.062e-03 -1.519e-03 7.396e-04
41 1 3.894e+00 3.540e-01 7.434e+00 -2.264e-03 -2.454e-04 5.417e-04
42 1 5.664e+00 2.123e+00 7.432e+00 -9.266e-04 -6.575e-04 -6.855e-04
43 1 5.665e+00 3.534e-01 9.205e+00 -7.227e-04 -1.075e-03 1.900e-03
44 1 3.895e+00 2.124e+00 9.205e+00 -1.597e-03 -1.303e-04 -1.433e-03
45 1 7.434e+00 3.515e-01 7.430e+00 1.804e-03 -3.240e-04 -1.258e-03
46 1 9.205e+00 2.123e+00 7.433e+00 1.060e-03 7.514e-04 -1.972e-03
47 1 9.204e+00 3.549e-01 9.204e+00 -9.777e-04 -1.763e-03 -1.364e-03
48 1 7.433e+00 2.124e+00 9.204e+00 2.081e-03 -1.485e-02 -1.457e-02
49 1 3.536e-01 3.894e+00 7.434e+00 -1.052e-03 3.689e-04 -1.212e-03
50 1 2.124e+00 3.894e+00 9.204e+00 3.191e-04 -1.017e-03 -8.726e-04
51 1 3.896e+00 3.896e+00 7.434e+00 -2.003e-03 -3.321e-04 -1.342e-03
52 1 5.665e+00 3.896e+00 9.205e+00 1.797e-03 -1.736e-02 -1.427e-02
53 1 7.434e+00 3.898e+00 7.428e+00 -6.404e-04 -2.169e-02 -1.383e-02
54 1 9.203e+00 3.894e+00 9.204e+00 -2.275e-03 -1.465e-02 -1.462e-02
55 1 2.123e+00 5.665e+00 3.540e-01 5.960e-04 -1.506e-02 -1.845e-02
56 1 3.530e-01 5.666e+00 2.126e+00 1.184e-02 -1.731e-02 -1.943e-02
57 1 5.665e+00 5.666e+00 3.546e-01 6.802e-03 -1.853e-02 -1.142e-02
58 1 3.898e+00 5.666e+00 2.127e+00 -1.231e-02 -1.723e-02 -1.784e-02
59 1 9.202e+00 5.667e+00 3.569e-01 -6.395e-03 -1.755e-02 -9.712e-03
60 1 7.434e+00 5.673e+00 2.131e+00 6.449e-04 1.735e+00 1.735e+00
61 1 3.489e-01 7.431e+00 3.556e-01 -8.420e-04 -1.918e-02 -1.779e-02
62 1 2.125e+00 9.203e+00 3.535e-01 -1.085e-03 9.512e-04 -1.576e-03
63 1 2.126e+00 7.435e+00 2.123e+00 -2.752e-04 -1.477e-02 -1.415e-02
64 1 3.510e-01 9.202e+00 2.126e+00 6.974e-05 -1.739e-02 -1.720e-02
65 1 3.899e+00 7.434e+00 3.578e-01 6.295e-04 -1.870e-02 -1.805e-02
66 1 5.665e+00 9.202e+00 3.565e-01 -2.242e-03 -1.828e-02 -1.720e-02
67 1 5.674e+00 7.434e+00 2.132e+00 1.115e-03 -2.574e-02 -2.493e-02
68 1 3.896e+00 9.202e+00 2.126e+00 7.145e-04 -1.856e-02 -1.888e-02
69 1 7.434e+00 7.435e+00 3.455e-01 -1.254e-03 -2.614e-02 4.707e-04
70 1 9.202e+00 9.204e+00 3.581e-01 2.175e-04 -1.657e-02 -1.810e-02
71 1 9.195e+00 7.432e+00 2.133e+00 1.381e-03 -2.724e-02 -2.469e-02
72 1 7.435e+00 9.195e+00 2.133e+00 -5.178e-04 3.576e-03 -2.732e-02
73 1 2.123e+00 5.663e+00 3.894e+00 1.749e-03 -1.752e-02 -1.486e-02
74 1 5.673e+00 5.673e+00 3.894e+00 9.973e-04 -2.673e-02 -2.586e-02
75 1 9.195e+00 5.672e+00 3.895e+00 -1.426e-03 -2.483e-02 -2.586e-02
76 1 3.630e-01 7.434e+00 3.896e+00 -1.237e-02 -1.768e-02 -1.826e-02
77 1 2.125e+00 9.206e+00 3.893e+00 2.797e-04 -1.085e-03 -6.580e-04
78 1 3.884e+00 7.435e+00 3.893e+00 1.270e-02 -1.818e-02 -1.740e-02
79 1 5.672e+00 9.196e+00 3.894e+00 -6.276e-03 -9.297e-03 -1.792e-02
80 1 9.194e+00 9.195e+00 3.894e+00 8.008e-03 -8.273e-03 -1.710e-02
81 1 3.524e-01 5.666e+00 5.661e+00 -1.307e-04 -1.779e-02 -1.843e-02
82 1 3.897e+00 5.665e+00 5.663e+00 1.133e-03 -1.776e-02 -1.924e-02
83 1 7.435e+00 5.674e+00 5.655e+00 -2.156e-04 -2.536e-02 1.979e-03
84 1 2.124e+00 7.435e+00 5.666e+00 -8.190e-04 -1.748e-03 9.231e-04
85 1 3.515e-01 9.201e+00 5.662e+00 -2.088e-04 2.458e-05 -6.118e-04
86 1 5.674e+00 7.433e+00 5.655e+00 -6.982e-03 -2.018e-02 -9.292e-03
87 1 3.897e+00 9.202e+00 5.663e+00 -1.331e-03 -1.023e-04 -2.133e-04
88 1 9.195e+00 7.435e+00 5.654e+00 7.527e-03 -1.812e-02 -1.231e-02
89 1 7.436e+00 9.196e+00 5.655e+00 -1.016e-03 -1.051e-02 -9.350e-03
90 1 2.124e+00 5.663e+00 7.433e+00 2.723e-04 1.209e-05 1.469e-03
91 1 3.532e-01 5.665e+00 9.206e+00 -2.892e-03 -1.802e-02 -1.292e-02
92 1 5.668e+00 5.667e+00 7.432e+00 -3.223e-03 -1.906e-02 -1.549e-02
93 1 3.894e+00 5.664e+00 9.203e+00 4.453e-03 -1.571e-02 -1.244e-02
94 1 9.204e+00 5.665e+00 7.431e+00 2.644e-03 -1.835e-02 -1.486e-02
95 1 7.436e+00 5.664e+00 9.203e+00 -1.125e-03 -1.539e-02 -2.657e-02
96 1 3.492e-01 7.433e+00 7.432e+00 -8.642e-04 4.420e-04 8.854e-04
97 1 2.126e+00 9.203e+00 7.434e+00 7.587e-04 -1.893e-04 9.970e-04
98 1 2.124e+00 7.435e+00 9.202e+00 -5.621e-04 1.480e-03 -2.277e-03
99 1 3.536e-01 9.203e+00 9.204e+00 1.029e-03 1.349e-03 1.291e-03
100 1 3.897e+00 7.435e+00 7.431e+00 -1.572e-03 -8.225e-04 -7.466e-04
101 1 5.665e+00 9.202e+00 7.431e+00 1.218e-03 -5.940e-04 -3.625e-04
102 1 5.663e+00 7.433e+00 9.205e+00 5.331e-03 -1.711e-02 -1.504e-02
103 1 3.894e+00 9.202e+00 9.202e+00 -5.589e-04 1.450e-03 -1.626e-04
104 1 7.435e+00 7.434e+00 7.444e+00 -1.038e-03 -1.412e-02 -2.572e-02
105 1 9.203e+00 9.204e+00 7.432e+00 -4.533e-04 9.458e-04 -2.223e-04
106 1 9.207e+00 7.435e+00 9.204e+00 -5.247e-03 -1.751e-02 -1.571e-02
107 1 7.434e+00 9.207e+00 9.203e+00 -1.004e-03 -2.097e-02 -1.401e-02
ITEM: TIMESTEP
0
ITEM: NUMBER OF ATOMS
107
ITEM: BOX BOUNDS xy xz yz pp pp pp
                     0.00000000000000e+00 1.06000000000000e+01 0.00000000000000e+00
0.00000000000000e+00	1.06000000000000e+01	0.00000000000000e+00
0.00000000000000e+00	1.06000000000000e+01	0.00000000000000e+00
ITEM: ATOMS id type x y z DisplacementX DisplacementY DisplacementZ
1 1 3.509e-01 3.524e-01 3.546e-01 -1.777e-04 -2.221e-04 5.577e-04
2 1 2.125e+00 2.123e+00 3.555e-01 -9.204e-04 -6.368e-06 1.598e-04
3 1 2.125e+00 3.535e-01 2.125e+00 -1.383e-02 -3.579e-03 -1.634e-02
4 1 3.518e-01 2.124e+00 2.123e+00 4.043e-04 -1.128e-04 3.547e-04
5 1 3.895e+00 3.524e-01 3.567e-01 -1.566e-02 -1.639e-03 -1.639e-02
6 1 5.666e+00 2.123e+00 3.547e-01 -1.476e-02 1.458e-04 -1.654e-02
7 1 5.666e+00 3.512e-01 2.125e+00 -1.930e-02 1.205e-02 -1.706e-02
8 1 3.897e+00 2.123e+00 2.126e+00 -2.025e-02 3.404e-05 -1.660e-02
9 1 7.434e+00 3.514e-01 3.562e-01 -1.837e-02 -2.062e-04 -1.873e-02
10 1 9.203e+00 2.123e+00 3.553e-01 6.129e-05 -7.683e-04 1.028e-03
11 1 9.203e+00 3.528e-01 2.125e+00 -1.752e-02 -8.132e-04 -1.795e-02
12 1 7.433e+00 2.123e+00 2.122e+00 -1.602e-02 2.735e-04 -1.493e-02
13 1 3.532e-01 3.895e+00 3.548e-01 -1.593e-04 1.701e-03 5.633e-04
14 1 2.125e+00 3.895e+00 2.125e+00 -1.283e-02 3.201e-03 -1.714e-02
15 1 3.894e+00 3.894e+00 3.559e-01 -1.419e-02 2.806e-03 -1.668e-02
16 1 5.666e+00 3.897e+00 2.126e+00 -1.674e-02 -1.004e-02 -1.772e-02
17 1 7.435e+00 3.898e+00 3.566e-01 -1.831e-02 -9.772e-05 -1.763e-02
18 1 9.201e+00 3.897e+00 2.124e+00 -1.913e-02 6.920e-04 -1.846e-02
19 1 3.515e-01 3.507e-01 3.894e+00 -2.054e-04 3.444e-04 7.973e-04
20 1 2.124e+00 2.123e+00 3.894e+00 -2.997e-04 1.415e-03 1.174e-03
21 1 3.897e+00 3.496e-01 3.895e+00 -1.751e-02 9.836e-04 -1.836e-02
22 1 5.662e+00 2.126e+00 3.893e+00 -1.495e-02 1.649e-03 -1.448e-02
23 1 7.435e+00 3.637e-01 3.894e+00 -1.834e-02 -1.126e-02 -1.721e-02
24 1 9.206e+00 2.124e+00 3.895e+00 3.254e-04 1.903e-04 1.195e-03
25 1 3.524e-01 3.900e+00 3.896e+00 -1.968e-04 8.187e-04 1.336e-03
26 1 3.898e+00 3.896e+00 3.893e+00 -1.863e-02 -2.284e-04 -1.810e-02
27 1 7.432e+00 3.885e+00 3.894e+00 -1.901e-02 1.231e-02 -1.899e-02
28 1 2.125e+00 3.541e-01 5.664e+00 -5.893e-04 1.029e-03 8.374e-04
29 1 3.531e-01 2.125e+00 5.663e+00 5.748e-04 7.386e-04 -1.180e-03
30 1 5.666e+00 3.507e-01 5.664e+00 -1.900e-02 -2.169e-03 -1.722e-02
31 1 3.893e+00 2.123e+00 5.663e+00 5.934e-04 -1.407e-03 -4.234e-04
32 1 9.204e+00 3.506e-01 5.659e+00 -1.418e-03 5.855e-04 1.149e-03
33 1 7.433e+00 2.123e+00 5.667e+00 2.516e-04 -6.919e-04 -2.365e-03
34 1 2.124e+00 3.894e+00 5.662e+00 -5.611e-04 6.116e-04 -7.568e-04
35 1 5.665e+00 3.897e+00 5.664e+00 -1.815e-02 -5.295e-05 -1.757e-02
36 1 9.202e+00 3.897e+00 5.662e+00 2.869e-04 1.213e-03 8.606e-04
37 1 3.529e-01 3.539e-01 7.434e+00 -1.226e-03 7.777e-05 7.042e-05
38 1 2.124e+00 2.124e+00 7.434e+00 -1.973e-03 -1.521e-03 -1.725e-04
39 1 2.123e+00 3.540e-01 9.204e+00 3.549e-04 -2.932e-04 1.006e-03
40 1 3.527e-01 2.124e+00 9.204e+00 -5.557e-04 -8.226e-04 2.465e-03
41 1 3.894e+00 3.540e-01 7.434e+00 3.932e-04 1.684e-03 -2.614e-03
42 1 5.664e+00 2.123e+00 7.432e+00 -4.962e-04 7.163e-04 6.520e-04
43 1 5.665e+00 3.534e-01 9.205e+00 -1.837e-02 -3.114e-03 -1.387e-02
44 1 3.895e+00 2.124e+00 9.205e+00 1.034e-04 -7.680e-04 1.014e-04
45 1 7.434e+00 3.515e-01 7.430e+00 2.191e-04 -1.560e-03 -1.098e-03
46 1 9.205e+00 2.123e+00 7.433e+00 -1.104e-03 4.407e-04 2.205e-03
47 1 9.204e+00 3.549e-01 9.204e+00 -7.372e-04 1.926e-03 -4.170e-04
48 1 7.433e+00 2.124e+00 9.204e+00 -4.214e-04 -2.157e-04 -1.796e-03
49 1 3.536e-01 3.894e+00 7.434e+00 -1.624e-03 3.560e-04 9.793e-06
50 1 2.124e+00 3.894e+00 9.204e+00 -4.582e-04 -2.502e-03 1.156e-04
51 1 3.896e+00 3.896e+00 7.434e+00 -2.825e-04 -1.390e-03 3.888e-04
52 1 5.665e+00 3.896e+00 9.205e+00 -1.945e-02 2.614e-03 -1.162e-02
53 1 7.434e+00 3.898e+00 7.428e+00 -6.225e-04 6.767e-04 -1.625e-03
54 1 9.203e+00 3.894e+00 9.204e+00 2.334e-04 -5.534e-04 1.848e-03
55 1 2.123e+00 5.665e+00 3.540e-01 -1.431e-02 2.034e-03 -1.379e-02
56 1 3.530e-01 5.666e+00 2.126e+00 -1.562e-02 -4.151e-03 -1.874e-02
57 1 5.665e+00 5.666e+00 3.546e-01 -1.824e-02 9.117e-03 -1.107e-02
58 1 3.898e+00 5.666e+00 2.127e+00 -8.411e-03 7.399e-03 -1.682e-02
59 1 9.202e+00 5.667e+00 3.569e-01 -1.917e-02 -1.041e-04 -1.810e-02
60 1 7.434e+00 5.673e+00 2.131e+00 -2.551e-02 1.910e-04 -2.544e-02
61 1 3.489e-01 7.431e+00 3.556e-01 -1.173e-02 1.228e-03 -2.408e-02
62 1 2.125e+00 9.203e+00 3.535e-01 -1.285e-02 -2.135e-03 -1.396e-02
63 1 2.126e+00 7.435e+00 2.123e+00 -2.552e-02 4.797e-04 -1.380e-02
64 1 3.510e-01 9.202e+00 2.126e+00 -1.570e-02 3.962e-03 -1.772e-02
65 1 3.899e+00 7.434e+00 3.578e-01 -1.070e-02 -1.240e-03 -1.081e-02
66 1 5.665e+00 9.202e+00 3.565e-01 -1.550e-02 -7.670e-03 -9.017e-03
67 1 5.674e+00 7.434e+00 2.132e+00 1.735e+00 -3.220e-04 1.735e+00
68 1 3.896e+00 9.202e+00 2.126e+00 -9.714e-03 -8.703e-03 -1.733e-02
69 1 7.434e+00 7.435e+00 3.455e-01 -2.496e-02 4.362e-04 2.564e-03
70 1 9.202e+00 9.204e+00 3.581e-01 -1.796e-02 1.281e-03 -1.900e-02
71 1 9.195e+00 7.432e+00 2.133e+00 3.422e-03 -2.794e-03 -2.509e-02
72 1 7.435e+00 9.195e+00 2.133e+00 -2.568e-02 -1.692e-03 -2.542e-02
73 1 2.123e+00 5.663e+00 3.894e+00 -1.432e-02 2.650e-03 -1.821e-02
74 1 5.673e+00 5.673e+00 3.894e+00 -2.590e-02 1.508e-03 -2.576e-02
75 1 9.195e+00 5.672e+00 3.895e+00 -1.026e-02 -5.897e-03 -1.865e-02
76 1 3.630e-01 7.434e+00 3.896e+00 -2.583e-02 7.240e-04 -1.458e-02
77 1 2.125e+00 9.206e+00 3.893e+00 -1.384e-02 -3.511e-03 -1.948e-02
78 1 3.884e+00 7.435e+00 3.893e+00 3.180e-03 -7.530e-04 -2.452e-02
79 1 5.672e+00 9.196e+00 3.894e+00 -2.621e-02 5.510e-04 -2.508e-02
80 1 9.194e+00 9.195e+00 3.894e+00 -1.010e-02 6.957e-03 -1.988e-02
81 1 3.524e-01 5.666e+00 5.661e+00 5.323e-04 4.354e-04 1.507e-03
82 1 3.897e+00 5.665e+00 5.663e+00 -1.606e-02 9.837e-05 -1.688e-02
83 1 7.435e+00 5.674e+00 5.655e+00 -1.780e-02 -7.272e-03 -9.739e-03
84 1 2.124e+00 7.435e+00 5.666e+00 -1.416e-02 -2.113e-04 -2.123e-02
85 1 3.515e-01 9.201e+00 5.662e+00 2.015e-04 -1.065e-04 5.639e-04
86 1 5.674e+00 7.433e+00 5.655e+00 -2.440e-02 7.976e-04 1.732e-03
87 1 3.897e+00 9.202e+00 5.663e+00 -1.695e-02 2.267e-03 -1.845e-02
88 1 9.195e+00 7.435e+00 5.654e+00 -1.130e-02 -7.633e-04 -9.932e-03
89 1 7.436e+00 9.196e+00 5.655e+00 -1.759e-02 5.813e-03 -1.037e-02
90 1 2.124e+00 5.663e+00 7.433e+00 6.310e-04 -2.255e-04 -2.316e-04
91 1 3.532e-01 5.665e+00 9.206e+00 -1.025e-03 1.143e-04 -9.240e-04
92 1 5.668e+00 5.667e+00 7.432e+00 -1.865e-02 -2.776e-03 -1.416e-02
93 1 3.894e+00 5.664e+00 9.203e+00 -1.515e-02 1.700e-03 -1.442e-02
94 1 9.204e+00 5.665e+00 7.431e+00 3.102e-04 -5.290e-04 -1.369e-03
95 1 7.436e+00 5.664e+00 9.203e+00 -1.873e-02 3.507e-03 -1.423e-02
96 1 3.492e-01 7.433e+00 7.432e+00 1.923e-03 -2.379e-04 7.353e-05
97 1 2.126e+00 9.203e+00 7.434e+00 -1.291e-03 -7.305e-04 -1.464e-04
98 1 2.124e+00 7.435e+00 9.202e+00 -1.536e-02 -4.106e-04 -1.425e-02
99 1 3.536e-01 9.203e+00 9.204e+00 4.098e-04 1.312e-03 5.998e-04
100 1 3.897e+00 7.435e+00 7.431e+00 -2.288e-02 -6.211e-04 -1.330e-02
101 1 5.665e+00 9.202e+00 7.431e+00 -1.901e-02 5.096e-03 -1.483e-02
102 1 5.663e+00 7.433e+00 9.205e+00 -1.651e-02 -4.847e-04 -2.717e-02
103 1 3.894e+00 9.202e+00 9.202e+00 -1.719e-02 -1.657e-03 -1.231e-02
104 1 7.435e+00 7.434e+00 7.444e+00 -1.430e-02 -8.195e-04 -2.533e-02
105 1 9.203e+00 9.204e+00 7.432e+00 2.177e-04 -5.187e-04 -8.882e-04
106 1 9.207e+00 7.435e+00 9.204e+00 -2.035e-02 -2.785e-04 -1.423e-02
107 1 7.434e+00 9.207e+00 9.203e+00 -1.866e-02 -5.141e-03 -1.410e-02
ITEM: TIMESTEP
0
ITEM: NUMBER OF ATOMS
107
ITEM: BOX BOUNDS xy xz yz pp pp pp
                     0.00000000000000e+00 1.06000000000000e+01 0.00000000000000e+00
0.00000000000000e+00	1.06000000000000e+01	0.00000000000000e+00
0.00000000000000e+00	1.06000000000000e+01	0.00000000000000e+00
ITEM: ATOMS id type x y z DisplacementX DisplacementY DisplacementZ
1 1 3.509e-01 3.524e-01 3.546e-01 1.676e-02 -1.071e-03 -1.531e-02
2 1 2.125e+00 2.123e+00 3.555e-01 7.498e-04 1.252e-03 -6.597e-04
3 1 2.125e+00 3.535e-01 2.125e+00 1.496e-02 -1.906e-03 -1.779e-02
4 1 3.518e-01 2.124e+00 2.123e+00 2.039e-02 -7.969e-05 -1.788e-02
5 1 3.895e+00 3.524e-01 3.567e-01 -1.566e-03 6.079e-04 -2.842e-04
6 1 5.666e+00 2.123e+00 3.547e-01 -7.668e-04 2.603e-04 -1.184e-04
7 1 5.666e+00 3.512e-01 2.125e+00 1.741e-02 -2.374e-04 -2.026e-02
8 1 3.897e+00 2.123e+00 2.126e+00 7.782e-04 -1.469e-03 1.640e-03
9 1 7.434e+00 3.514e-01 3.562e-01 1.810e-02 1.986e-03 -1.920e-02
10 1 9.203e+00 2.123e+00 3.553e-01 1.559e-02 1.243e-03 -1.791e-02
11 1 9.203e+00 3.528e-01 2.125e+00 1.716e-02 1.187e-02 -1.618e-02
12 1 7.433e+00 2.123e+00 2.122e+00 1.369e-02 -6.010e-04 -1.378e-02
13 1 3.532e-01 3.895e+00 3.548e-01 1.622e-02 5.559e-04 -1.591e-02
14 1 2.125e+00 3.895e+00 2.125e+00 1.289e-02 3.423e-03 -1.732e-02
15 1 3.894e+00 3.894e+00 3.559e-01 4.147e-04 1.358e-03 -1.922e-03
16 1 5.666e+00 3.897e+00 2.126e+00 1.723e-02 1.897e-03 -1.885e-02
17 1 7.435e+00 3.898e+00 3.566e-01 1.712e-02 -2.739e-03 -1.787e-02
18 1 9.201e+00 3.897e+00 2.124e+00 1.903e-02 -1.153e-02 -1.637e-02
19 1 3.515e-01 3.507e-01 3.894e+00 1.722e-02 1.318e-03 -1.757e-02
20 1 2.124e+00 2.123e+00 3.894e+00 7.910e-04 1.708e-03 2.231e-03
21 1 3.897e+00 3.496e-01 3.895e+00 1.348e-04 1.153e-03 -1.843e-03
22 1 5.662e+00 2.126e+00 3.893e+00 3.537e-04 1.244e-03 -5.203e-04
23 1 7.435e+00 3.637e-01 3.894e+00 1.826e-02 -1.304e-02 -1.779e-02
24 1 9.206e+00 2.124e+00 3.895e+00 1.582e-02 -3.917e-04 -1.563e-02
25 1 3.524e-01 3.900e+00 3.896e+00 1.721e-02 -3.826e-04 -1.897e-02
26 1 3.898e+00 3.896e+00 3.893e+00 -6.402e-04 -1.728e-03 -9.461e-04
27 1 7.432e+00 3.885e+00 3.894e+00 1.788e-02 1.171e-02 -1.746e-02
28 1 2.125e+00 3.541e-01 5.664e+00 1.125e-03 4.501e-04 2.585e-04
29 1 3.531e-01 2.125e+00 5.663e+00 1.343e-03 -1.272e-04 -8.624e-04
30 1 5.666e+00 3.507e-01 5.664e+00 2.352e-04 1.506e-03 9.813e-04
31 1 3.893e+00 2.123e+00 5.663e+00 -9.320e-04 -3.958e-04 -5.417e-04
32 1 9.204e+00 3.506e-01 5.659e+00 1.925e-02 -1.455e-03 -1.974e-02
33 1 7.433e+00 2.123e+00 5.667e+00 -5.454e-04 -5.216e-04 -9.191e-04
34 1 2.124e+00 3.894e+00 5.662e+00 5.138e-04 1.066e-04 2.815e-04
35 1 5.665e+00 3.897e+00 5.664e+00 -4.746e-04 1.374e-03 7.022e-04
36 1 9.202e+00 3.897e+00 5.662e+00 1.539e-02 7.914e-04 -1.864e-02
37 1 3.529e-01 3.539e-01 7.434e+00 1.564e-03 -1.165e-03 -7.088e-04
38 1 2.124e+00 2.124e+00 7.434e+00 1.146e-03 -5.218e-04 -2.226e-03
39 1 2.123e+00 3.540e-01 9.204e+00 -8.447e-04 3.295e-04 -7.960e-04
40 1 3.527e-01 2.124e+00 9.204e+00 -1.368e-03 -6.925e-04 -1.129e-03
41 1 3.894e+00 3.540e-01 7.434e+00 4.376e-05 2.096e-03 1.443e-04
42 1 5.664e+00 2.123e+00 7.432e+00 1.604e-03 -1.471e-04 -1.648e-03
43 1 5.665e+00 3.534e-01 9.205e+00 -1.485e-03 -4.163e-04 -1.018e-03
44 1 3.895e+00 2.124e+00 9.205e+00 1.961e-03 -4.974e-04 -1.667e-03
45 1 7.434e+00 3.515e-01 7.430e+00 -5.289e-04 -3.221e-04 2.849e-04
46 1 9.205e+00 2.123e+00 7.433e+00 9.837e-04 2.536e-03 1.379e-03
47 1 9.204e+00 3.549e-01 9.204e+00 1.771e-02 -4.474e-03 -1.361e-02
48 1 7.433e+00 2.124e+00 9.204e+00 -8.856e-05 -1.278e-03 -1.238e-03
49 1 3.536e-01 3.894e+00 7.434e+00 -3.852e-04 -7.248e-04 6.751e-04
50 1 2.124e+00 3.894e+00 9.204e+00 -1.523e-03 1.557e-03 3.749e-04
51 1 3.896e+00 3.896e+00 7.434e+00 3.096e-04 -6.022e-04 -1.435e-03
52 1 5.665e+00 3.896e+00 9.205e+00 -1.806e-03 -3.212e-04 -7.768e-04
53 1 7.434e+00 3.898e+00 7.428e+00 1.013e-05 -5.916e-04 5.895e-04
54 1 9.203e+00 3.894e+00 9.204e+00 1.472e-02 2.159e-03 -1.335e-02
55 1 2.123e+00 5.665e+00 3.540e-01 1.268e-02 3.417e-03 -1.588e-02
56 1 3.530e-01 5.666e+00 2.126e+00 1.040e-02 8.610e-03 -1.931e-02
57 1 5.665e+00 5.666e+00 3.546e-01 1.748e-02 -8.875e-05 -1.693e-02
58 1 3.898e+00 5.666e+00 2.127e+00 1.275e-02 -2.117e-03 -1.771e-02
59 1 9.202e+00 5.667e+00 3.569e-01 1.990e-02 6.620e-03 -1.043e-02
60 1 7.434e+00 5.673e+00 2.131e+00 2.509e-02 -9.729e-04 -2.623e-02
61 1 3.489e-01 7.431e+00 3.556e-01 1.124e-02 -7.973e-04 -1.046e-02
62 1 2.125e+00 9.203e+00 3.535e-01 1.350e-02 -6.121e-04 -1.565e-02
63 1 2.126e+00 7.435e+00 2.123e+00 2.557e-02 -2.257e-03 -1.365e-02
64 1 3.510e-01 9.202e+00 2.126e+00 8.385e-03 -6.265e-03 -1.917e-02
65 1 3.899e+00 7.434e+00 3.578e-01 1.458e-02 2.316e-03 -2.185e-02
66 1 5.665e+00 9.202e+00 3.565e-01 1.916e-02 -1.470e-06 -1.791e-02
67 1 5.674e+00 7.434e+00 2.132e+00 1.377e-03 -3.749e-06 -2.472e-02
68 1 3.896e+00 9.202e+00 2.126e+00 1.317e-02 3.226e-03 -1.697e-02
69 1 7.434e+00 7.435e+00 3.455e-01 2.514e-02 -5.537e-04 -4.183e-04
70 1 9.202e+00 9.204e+00 3.581e-01 1.797e-02 -7.709e-03 -8.943e-03
71 1 9.195e+00 7.432e+00 2.133e+00 -1.733e+00 -2.306e-03 1.735e+00
72 1 7.435e+00 9.195e+00 2.133e+00 2.676e-02 -4.453e-04 -2.619e-02
73 1 2.123e+00 5.663e+00 3.894e+00 1.462e-02 3.044e-03 -1.852e-02
74 1 5.673e+00 5.673e+00 3.894e+00 9.508e-03 -5.047e-03 -1.830e-02
75 1 9.195e+00 5.672e+00 3.895e+00 2.542e-02 1.764e-03 -2.519e-02
76 1 3.630e-01 7.434e+00 3.896e+00 -2.657e-04 -9.011e-04 -2.618e-02
77 1 2.125e+00 9.206e+00 3.893e+00 1.607e-02 -4.126e-03 -1.677e-02
78 1 3.884e+00 7.435e+00 3.893e+00 2.475e-02 5.135e-04 -1.519e-02
79 1 5.672e+00 9.196e+00 3.894e+00 9.576e-03 7.550e-03 -1.773e-02
80 1 9.194e+00 9.195e+00 3.894e+00 2.620e-02 -3.441e-04 -2.631e-02
81 1 3.524e-01 5.666e+00 5.661e+00 1.599e-02 1.710e-04 -1.577e-02
82 1 3.897e+00 5.665e+00 5.663e+00 -6.776e-04 1.638e-03 6.760e-04
83 1 7.435e+00 5.674e+00 5.655e+00 1.761e-02 -8.451e-03 -1.022e-02
84 1 2.124e+00 7.435e+00 5.666e+00 1.421e-02 -9.796e-04 -2.041e-02
85 1 3.515e-01 9.201e+00 5.662e+00 1.649e-02 1.349e-03 -1.573e-02
86 1 5.674e+00 7.433e+00 5.655e+00 9.185e-03 -5.437e-04 -9.255e-03
87 1 3.897e+00 9.202e+00 5.663e+00 -7.007e-04 6.204e-04 -1.401e-03
88 1 9.195e+00 7.435e+00 5.654e+00 2.645e-02 -5.421e-04 1.997e-03
89 1 7.436e+00 9.196e+00 5.655e+00 1.845e-02 7.924e-03 -8.621e-03
90 1 2.124e+00 5.663e+00 7.433e+00 8.211e-04 -4.506e-04 -1.189e-03
91 1 3.532e-01 5.665e+00 9.206e+00 1.408e-02 1.737e-03 -1.267e-02
92 1 5.668e+00 5.667e+00 7.432e+00 -3.245e-03 1.231e-03 -1.844e-05
93 1 3.894e+00 5.664e+00 9.203e+00 7.191e-04 -8.415e-04 6.444e-04
94 1 9.204e+00 5.665e+00 7.431e+00 1.667e-02 -4.041e-03 -1.303e-02
95 1 7.436e+00 5.664e+00 9.203e+00 1.812e-02 4.248e-03 -1.638e-02
96 1 3.492e-01 7.433e+00 7.432e+00 1.986e-02 -4.385e-04 -1.260e-02
97 1 2.126e+00 9.203e+00 7.434e+00 1.633e-04 1.588e-03 -3.888e-04
98 1 2.124e+00 7.435e+00 9.202e+00 1.418e-02 -8.731e-04 -1.435e-02
99 1 3.536e-01 9.203e+00 9.204e+00 1.642e-02 -8.140e-04 -1.515e-02
100 1 3.897e+00 7.435e+00 7.431e+00 7.674e-04 -1.090e-04 -1.001e-03
101 1 5.665e+00 9.202e+00 7.431e+00 -8.687e-04 -5.065e-05 1.393e-03
102 1 5.663e+00 7.433e+00 9.205e+00 1.999e-02 6.171e-04 -1.253e-02
103 1 3.894e+00 9.202e+00 9.202e+00 1.935e-04 6.261e-04 6.991e-04
104 1 7.435e+00 7.434e+00 7.444e+00 1.364e-02 7.119e-04 -2.528e-02
105 1 9.203e+00 9.204e+00 7.432e+00 1.827e-02 1.115e-03 -1.352e-02
106 1 9.207e+00 7.435e+00 9.204e+00 1.587e-02 9.374e-05 -2.403e-02
107 1 7.434e+00 9.207e+00 9.203e+00 1.789e-02 -2.247e-03 -1.236e-02
ITEM: TIMESTEP
0
ITEM: NUMBER OF ATOMS
107
ITEM: BOX BOUNDS xy xz yz pp pp pp
                     0.00000000000000e+00 1.06000000000000e+01 0.00000000000000e+00
0.00000000000000e+00	1.06000000000000e+01	0.00000000000000e+00
0.00000000000000e+00	1.06000000000000e+01	0.00000000000000e+00
ITEM: ATOMS id type x y z DisplacementX DisplacementY DisplacementZ
1 1 3.509e-01 3.524e-01 3.546e-01 -2.226e-03 1.666e-02 -1.512e-02
2 1 2.125e+00 2.123e+00 3.555e-01 -4.865e-04 -7.650e-04 2.345e-04
3 1 2.125e+00 3.535e-01 2.125e+00 -3.223e-04 2.012e-02 -1.621e-02
4 1 3.518e-01 2.124e+00 2.123e+00 -3.298e-03 1.216e-02 -1.811e-02
5 1 3.895e+00 3.524e-01 3.567e-01 1.684e-03 1.445e-02 -1.509e-02
6 1 5.666e+00 2.123e+00 3.547e-01 3.612e-03 1.397e-02 -1.595e-02
7 1 5.666e+00 3.512e-01 2.125e+00 6.982e-03 9.274e-03 -1.734e-02
8 1 3.897e+00 2.123e+00 2.126e+00 2.926e-03 1.417e-02 -1.837e-02
9 1 7.434e+00 3.514e-01 3.562e-01 1.440e-03 1.179e-02 -9.849e-03
10 1 9.203e+00 2.123e+00 3.553e-01 -1.062e-03 1.393e-02 -1.358e-02
11 1 9.203e+00 3.528e-01 2.125e+00 -6.467e-03 8.281e-03 -1.799e-02
12 1 7.433e+00 2.123e+00 2.122e+00 -8.198e-04 2.500e-02 -1.493e-02
13 1 3.532e-01 3.895e+00 3.548e-01 -1.554e-03 -1.250e-03 8.480e-04
14 1 2.125e+00 3.895e+00 2.125e+00 1.137e-03 -7.766e-04 1.448e-03
15 1 3.894e+00 3.894e+00 3.559e-01 2.252e-04 -3.812e-04 -1.868e-03
16 1 5.666e+00 3.897e+00 2.126e+00 -3.063e-03 1.338e-02 -1.868e-02
17 1 7.435e+00 3.898e+00 3.566e-01 -1.741e-03 1.349e-02 -2.355e-02
18 1 9.201e+00 3.897e+00 2.124e+00 3.887e-03 1.353e-02 -1.883e-02
19 1 3.515e-01 3.507e-01 3.894e+00 -1.557e-03 1.947e-02 -1.923e-02
20 1 2.124e+00 2.123e+00 3.894e+00 1.369e-03 -2.021e-03 7.241e-04
21 1 3.897e+00 3.496e-01 3.895e+00 -6.819e-04 1.676e-02 -1.850e-02
22 1 5.662e+00 2.126e+00 3.893e+00 3.339e-03 1.406e-02 -1.850e-02
23 1 7.435e+00 3.637e-01 3.894e+00 1.598e-04 -1.695e-03 -2.546e-02
24 1 9.206e+00 2.124e+00 3.895e+00 -4.441e-03 1.417e-02 -1.765e-02
25 1 3.524e-01 3.900e+00 3.896e+00 -8.196e-04 5.920e-04 1.369e-03
26 1 3.898e+00 3.896e+00 3.893e+00 -2.041e-04 -6.389e-04 -1.377e-04
27 1 7.432e+00 3.885e+00 3.894e+00 -8.863e-04 2.583e-02 -1.456e-02
28 1 2.125e+00 3.541e-01 5.664e+00 -1.921e-03 -1.835e-03 -4.349e-05
29 1 3.531e-01 2.125e+00 5.663e+00 -7.060e-04 2.109e-03 -4.687e-04
30 1 5.666e+00 3.507e-01 5.664e+00 1.134e-03 1.696e-02 -1.798e-02
31 1 3.893e+00 2.123e+00 5.663e+00 1.563e-03 -1.088e-03 1.292e-03
32 1 9.204e+00 3.506e-01 5.659e+00 -3.056e-04 1.482e-02 -1.701e-02
33 1 7.433e+00 2.123e+00 5.667e+00 7.547e-04 1.299e-02 -1.994e-02
34 1 2.124e+00 3.894e+00 5.662e+00 -9.444e-04 5.464e-04 -1.543e-04
35 1 5.665e+00 3.897e+00 5.664e+00 1.172e-03 1.135e-03 -3.409e-04
36 1 9.202e+00 3.897e+00 5.662e+00 -2.489e-04 1.342e-03 2.636e-03
37 1 3.529e-01 3.539e-01 7.434e+00 -7.266e-04 1.768e-03 -1.374e-03
38 1 2.124e+00 2.124e+00 7.434e+00 -3.079e-05 1.098e-03 -1.384e-03
39 1 2.123e+00 3.540e-01 9.204e+00 -5.757e-04 -1.060e-03 -9.947e-04
40 1 3.527e-01 2.124e+00 9.204e+00 -7.434e-04 9.095e-04 1.309e-03
41 1 3.894e+00 3.540e-01 7.434e+00 2.600e-03 -9.075e-04 -1.004e-03
42 1 5.664e+00 2.123e+00 7.432e+00 -1.888e-03 5.574e-04 5.959e-04
43 1 5.665e+00 3.534e-01 9.205e+00 9.011e-04 1.595e-02 -1.319e-02
44 1 3.895e+00 2.124e+00 9.205e+00 1.859e-03 -5.207e-04 -2.552e-04
45 1 7.434e+00 3.515e-01 7.430e+00 8.810e-04 2.202e-02 -1.403e-02
46 1 9.205e+00 2.123e+00 7.433e+00 -1.644e-03 1.155e-03 -7.745e-04
47 1 9.204e+00 3.549e-01 9.204e+00 -1.400e-03 1.709e-02 -1.367e-02
48 1 7.433e+00 2.124e+00 9.204e+00 -4.573e-04 1.383e-02 -1.477e-02
49 1 3.536e-01 3.894e+00 7.434e+00 -3.142e-04 -1.609e-03 2.291e-04
50 1 2.124e+00 3.894e+00 9.204e+00 6.627e-04 -7.583e-04 5.193e-04
51 1 3.896e+00 3.896e+00 7.434e+00 -5.246e-04 1.417e-04 -5.435e-04
52 1 5.665e+00 3.896e+00 9.205e+00 7.086e-04 2.539e-04 3.578e-04
53 1 7.434e+00 3.898e+00 7.428e+00 -2.309e-03 4.325e-04 -1.371e-03
54 1 9.203e+00 3.894e+00 9.204e+00 -1.093e-03 2.837e-04 6.901e-04
55 1 2.123e+00 5.665e+00 3.540e-01 -1.624e-03 4.500e-04 2.731e-04
56 1 3.530e-01 5.666e+00 2.126e+00 -1.677e-03 1.864e-02 -1.799e-02
57 1 5.665e+00 5.666e+00 3.546e-01 9.780e-04 1.495e-02 -1.595e-02
58 1 3.898e+00 5.666e+00 2.127e+00 1.355e-04 1.786e-02 -1.891e-02
59 1 9.202e+00 5.667e+00 3.569e-01 7.090e-04 1.637e-02 -1.722e-02
60 1 7.434e+00 5.673e+00 2.131e+00 -5.372e-04 -1.789e-03 -2.624e-02
61 1 3.489e-01 7.431e+00 3.556e-01 2.584e-03 1.785e-02 -1.941e-02
62 1 2.125e+00 9.203e+00 3.535e-01 2.570e-03 1.651e-02 -1.925e-02
63 1 2.126e+00 7.435e+00 2.123e+00 -1.610e-03 1.513e-02 -1.475e-02
64 1 3.510e-01 9.202e+00 2.126e+00 1.303e-02 1.718e-02 -1.973e-02
65 1 3.899e+00 7.434e+00 3.578e-01 1.136e-03 2.036e-02 -1.803e-02
66 1 5.665e+00 9.202e+00 3.565e-01 8.109e-03 1.611e-02 -1.144e-02
67 1 5.674e+00 7.434e+00 2.132e+00 2.621e-03 2.711e-02 -2.547e-02
68 1 3.896e+00 9.202e+00 2.126e+00 -1.032e-02 1.940e-02 -1.788e-02
69 1 7.434e+00 7.435e+00 3.455e-01 4.223e-04 2.606e-02 2.344e-03
70 1 9.202e+00 9.204e+00 3.581e-01 -7.670e-03 1.847e-02 -1.059e-02
71 1 9.195e+00 7.432e+00 2.133e+00 -1.478e-03 2.505e-02 -2.627e-02
72 1 7.435e+00 9.195e+00 2.133e+00 -8.458e-05 -1.734e+00 1.734e+00
73 1 2.123e+00 5.663e+00 3.894e+00 -4.340e-04 9.271e-04 2.134e-04
74 1 5.673e+00 5.673e+00 3.894e+00 -6.783e-03 9.677e-03 -1.726e-02
75 1 9.195e+00 5.672e+00 3.895e+00 7.501e-03 8.578e-03 -1.718e-02
76 1 3.630e-01 7.434e+00 3.896e+00 -1.199e-02 1.806e-02 -1.881e-02
77 1 2.125e+00 9.206e+00 3.893e+00 -1.666e-04 1.438e-02 -1.373e-02
78 1 3.884e+00 7.435e+00 3.893e+00 1.165e-02 1.949e-02 -1.708e-02
79 1 5.672e+00 9.196e+00 3.894e+00 -2.901e-04 2.687e-02 -2.555e-02
80 1 9.194e+00 9.195e+00 3.894e+00 -7.126e-04 2.567e-02 -2.648e-02
81 1 3.524e-01 5.666e+00 5.661e+00 -4.411e-04 4.977e-04 -3.424e-04
82 1 3.897e+00 5.665e+00 5.663e+00 1.221e-03 5.498e-04 4.618e-04
83 1 7.435e+00 5.674e+00 5.655e+00 1.559e-03 8.896e-03 -1.158e-02
84 1 2.124e+00 7.435e+00 5.666e+00 2.382e-04 -8.933e-04 2.654e-04
85 1 3.515e-01 9.201e+00 5.662e+00 -6.928e-04 1.836e-02 -1.730e-02
86 1 5.674e+00 7.433e+00 5.655e+00 -7.163e-03 1.826e-02 -9.330e-03
87 1 3.897e+00 9.202e+00 5.663e+00 1.064e-03 1.616e-02 -1.848e-02
88 1 9.195e+00 7.435e+00 5.654e+00 7.559e-03 1.830e-02 -1.022e-02
89 1 7.436e+00 9.196e+00 5.655e+00 2.717e-04 2.360e-02 2.864e-03
90 1 2.124e+00 5.663e+00 7.433e+00 -6.384e-04 1.173e-03 -3.502e-04
91 1 3.532e-01 5.665e+00 9.206e+00 4.693e-06 3.589e-04 -2.492e-04
92 1 5.668e+00 5.667e+00 7.432e+00 -6.274e-04 -9.868e-05 1.114e-03
93 1 3.894e+00 5.664e+00 9.203e+00 1.467e-04 -1.941e-03 -3.004e-04
94 1 9.204e+00 5.665e+00 7.431e+00 1.666e-03 -1.004e-03 -8.476e-04
95 1 7.436e+00 5.664e+00 9.203e+00 -6.636e-04 2.078e-02 -1.449e-02
96 1 3.492e-01 7.433e+00 7.432e+00 -1.090e-03 4.862e-04 -1.357e-03
97 1 2.126e+00 9.203e+00 7.434e+00 4.056e-04 7.342e-04 -2.846e-04
98 1 2.124e+00 7.435e+00 9.202e+00 4.915e-04 -6.965e-04 5.306e-04
99 1 3.536e-01 9.203e+00 9.204e+00 -4.746e-03 1.778e-02 -1.100e-02
100 1 3.897e+00 7.435e+00 7.431e+00 9.508e-04 3.445e-04 -3.128e-04
101 1 5.665e+00 9.202e+00 7.431e+00 -2.991e-03 1.873e-02 -1.446e-02
102 1 5.663e+00 7.433e+00 9.205e+00 3.340e-03 1.768e-02 -1.322e-02
103 1 3.894e+00 9.202e+00 9.202e+00 1.927e-03 1.638e-02 -1.386e-02
104 1 7.435e+00 7.434e+00 7.444e+00 -1.108e-03 1.503e-02 -2.436e-02
105 1 9.203e+00 9.204e+00 7.432e+00 3.903e-03 1.734e-02 -1.308e-02
106 1 9.207e+00 7.435e+00 9.204e+00 -3.473e-03 1.808e-02 -1.554e-02