ITEM: TIMESTEP
0
ITEM: NUMBER OF ATOMS
8
ITEM: BOX BOUNDS xy xz yz pp pp pp
                     -5.00000000000000e-01 5.00000000000000e-01 0.00000000000000e+00
-5.00000000000000e-01	5.00000000000000e-01	0.00000000000000e+00
-5.00000000000000e-01	5.00000000000000e-01	0.00000000000000e+00
ITEM: ATOMS id type x y z DisplacementX DisplacementY DisplacementZ
1 1 0.000e+00 0.000e+00 0.000e+00 -1.438e-03 -1.003e-01 -1.302e-03
2 1 1.000e-01 1.000e-01 0.000e+00 1.255e-03 -1.861e-03 -8.335e-04
3 1 0.000e+00 1.000e-01 0.000e+00 5.968e-05 -1.538e-04 5.612e-04
4 1 -1.000e-01 -1.000e-01 0.000e+00 1.680e-04 8.329e-04 -1.385e-03
5 1 -1.000e-01 1.000e-01 0.000e+00 -1.408e-03 7.215e-04 -1.504e-03
6 1 1.000e-01 0.000e+00 0.000e+00 3.953e-04 -1.166e-03 3.506e-04
7 1 -1.000e-01 0.000e+00 0.000e+00 -2.908e-04 -7.556e-04 1.270e-05
8 1 1.000e-01 -1.000e-01 0.000e+00 -2.829e-04 1.253e-03 8.967e-05
ITEM: TIMESTEP
0
ITEM: NUMBER OF ATOMS
8
ITEM: BOX BOUNDS xy xz yz pp pp pp
                     -5.00000000000000e-01 5.00000000000000e-01 0.00000000000000e+00
-5.00000000000000e-01	5.00000000000000e-01	0.00000000000000e+00
-5.00000000000000e-01	5.00000000000000e-01	0.00000000000000e+00
ITEM: ATOMS id type x y z DisplacementX DisplacementY DisplacementZ
9 1 1.000e-01 0.000e+00 0.000e+00 -9.192e-04 6.840e-06 7.737e-04
10 1 -1.000e-01 -1.000e-01 0.000e+00 6.252e-04 -1.187e-04 -2.432e-03
11 1 -1.000e-01 0.000e+00 0.000e+00 -7.346e-04 -6.332e-05 5.458e-04
12 1 0.000e+00 0.000e+00 0.000e+00 -1.105e-03 9.850e-02 8.415e-04
13 1 -1.000e-01 1.000e-01 0.000e+00 -8.043e-04 -1.033e-03 4.421e-04
14 1 1.000e-01 -1.000e-01 0.000e+00 9.843e-04 8.167e-05 1.233e-03
15 1 0.000e+00 -1.000e-01 0.000e+00 1.907e-03 -4.125e-04 -4.611e-04
16 1 1.000e-01 1.000e-01 0.000e+00 -8.706e-04 1.158e-03 1.438e-04
ITEM: TIMESTEP
0
ITEM: NUMBER OF ATOMS
8
ITEM: BOX BOUNDS xy xz yz pp pp pp
                     -5.00000000000000e-01 5.00000000000000e-01 0.00000000000000e+00
-5.00000000000000e-01	5.00000000000000e-01	0.00000000000000e+00
-5.00000000000000e-01	5.00000000000000e-01	0.00000000000000e+00
ITEM: ATOMS id type x y z DisplacementX DisplacementY DisplacementZ
17 1 -1.000e-01 0.000e+00 0.000e+00 -1.662e-04 1.854e-03 1.070e-03
18 1 -1.000e-01 1.000e-01 0.000e+00 -1.513e-03 -9.477e-05 7.040e-04
19 1 1.000e-01 1.000e-01 0.000e+00 7.983e-04 -1.880e-04 -1.948e-03
20 1 0.000e+00 -1.000e-01 0.000e+00 1.510e-03 1.391e-03 2.532e-04
21 1 1.000e-01 -1.000e-01 0.000e+00 -1.043e-03 -9.798e-04 -9.529e-04
22 1 0.000e+00 0.000e+00 0.000e+00 9.896e-02 8.513e-05 -2.200e-04
23 1 -1.000e-01 -1.000e-01 0.000e+00 -1.389e-03 1.562e-03 9.592e-04
24 1 0.000e+00 1.000e-01 0.000e+00 -7.973e-04 2.651e-04 8.651e-05
ITEM: TIMESTEP
0
ITEM: NUMBER OF ATOMS
8
ITEM: BOX BOUNDS xy xz yz pp pp pp
                     -5.00000000000000e-01 5.00000000000000e-01 0.00000000000000e+00
-5.00000000000000e-01	5.00000000000000e-01	0.00000000000000e+00
-5.00000000000000e-01	5.00000000000000e-01	0.00000000000000e+00
ITEM: ATOMS id type x y z DisplacementX DisplacementY DisplacementZ
25 1 0.000e+00 -1.000e-01 0.000e+00 -7.451e-04 -4.878e-04 2.003e-04
26 1 1.000e-01 1.000e-01 0.000e+00 5.486e-04 4.362e-04 1.118e-04
27 1 -1.000e-01 1.000e-01 0.000e+00 -5.730e-04 1.474e-04 1.323e-03
28 1 -1.000e-01 -1.000e-01 0.000e+00 -2.593e-04 -1.051e-03 1.796e-03
29 1 0.000e+00 1.000e-01 0.000e+00 -7.701e-04 3.203e-04 6.924e-04
30 1 1.000e-01 -1.000e-01 0.000e+00 -1.226e-03 3.962e-04 1.293e-03
31 1 0.000e+00 0.000e+00 0.000e+00 -9.761e-02 3.538e-05 -4.831e-04
32 1 1.000e-01 0.000e+00 0.000e+00 -3.951e-05 1.230e-03 -2.321e-03
ITEM: TIMESTEP
0
ITEM: NUMBER OF ATOMS
8
ITEM: BOX BOUNDS xy xz yz pp pp pp
                     -5.00000000000000e-01 5.00000000000000e-01 0.00000000000000e+00
-5.00000000000000e-01	5.00000000000000e-01	0.00000000000000e+00
-5.00000000000000e-01	5.00000000000000e-01	0.00000000000000e+00
ITEM: ATOMS id type x y z DisplacementX DisplacementY DisplacementZ
33 1 1.000e-01 0.000e+00 0.000e+00 8.702e-04 -1.093e-03 7.709e-05
34 1 0.000e+00 0.000e+00 0.000e+00 -9.053e-04 -9.998e-02 6.243e-04
35 1 0.000e+00 1.000e-01 0.000e+00 -1.592e-03 -7.537e-04 -1.136e-04
36 1 1.000e-01 1.000e-01 0.000e+00 4.388e-04 1.972e-03 7.382e-04
37 1 -1.000e-01 -1.000e-01 0.000e+00 1.206e-03 -1.614e-03 1.126e-03
38 1 1.000e-01 -1.000e-01 0.000e+00 1.816e-03 -1.858e-04 -6.856e-04
39 1 -1.000e-01 1.000e-01 0.000e+00 -6.943e-04 -2.283e-06 6.252e-05
40 1 -1.000e-01 0.000e+00 0.000e+00 5.113e-04 -5.494e-04 -2.013e-04
ITEM: TIMESTEP
0
ITEM: NUMBER OF ATOMS
8
ITEM: BOX BOUNDS xy xz yz pp pp pp
                     -5.00000000000000e-01 5.00000000000000e-01 0.00000000000000e+00
-5.00000000000000e-01	5.00000000000000e-01	0.00000000000000e+00
-5.00000000000000e-01	5.00000000000000e-01	0.00000000000000e+00
ITEM: ATOMS id type x y z DisplacementX DisplacementY DisplacementZ
41 1 1.000e-01 0.000e+00 0.000e+00 1.519e-04 8.407e-04 -6.108e-04
42 1 1.000e-01 -1.000e-01 0.000e+00 -6.403e-04 -4.811e-04 -8.448e-04
43 1 0.000e+00 0.000e+00 0.000e+00 -5.257e-04 1.001e-01 -4.731e-04
44 1 -1.000e-01 0.000e+00 0.000e+00 -1.712e-03 1.210e-03 -7.042e-04
45 1 -1.000e-01 1.000e-01 0.000e+00 -2.157e-03 -1.449e-03 8.039e-04
46 1 0.000e+00 -1.000e-01 0.000e+00 8.638e-04 -1.769e-04 -1.856e-03
47 1 -1.000e-01 -1.000e-01 0.000e+00 -5.789e-04 1.840e-03 2.277e-04
48 1 1.000e-01 1.000e-01 0.000e+00 5.244e-04 -6.643e-04 2.470e-05
ITEM: TIMESTEP
0
ITEM: NUMBER OF ATOMS
8
ITEM: BOX BOUNDS xy xz yz pp pp pp
                     -5.00000000000000e-01 5.00000000000000e-01 0.00000000000000e+00
-5.00000000000000e-01	5.00000000000000e-01	0.00000000000000e+00
-5.00000000000000e-01	5.00000000000000e-01	0.00000000000000e+00
ITEM: ATOMS id type x y z DisplacementX DisplacementY DisplacementZ
49 1 -1.000e-01 -1.000e-01 0.000e+00 2.332e-03 -2.391e-04 2.294e-03
50 1 1.000e-01 1.000e-01 0.000e+00 4.059e-05 7.736e-04 -2.798e-04
51 1 -1.000e-01 1.000e-01 0.000e+00 1.562e-04 1.905e-04 1.478e-04
52 1 1.000e-01 -1.000e-01 0.000e+00 -9.473e-05 4.907e-04 5.569e-04
53 1 0.000e+00 -1.000e-01 0.000e+00 -8.294e-04 -1.440e-04 7.066e-04
54 1 0.000e+00 0.000e+00 0.000e+00 9.875e-02 -1.106e-03 -8.053e-04
55 1 -1.000e-01 0.000e+00 0.000e+00 -2.131e-03 1.197e-03 -1.014e-03
56 1 0.000e+00 1.000e-01 0.000e+00 3.880e-04 1.631e-03 -7.045e-05
ITEM: TIMESTEP
0
ITEM: NUMBER OF ATOMS
8
ITEM: BOX BOUNDS xy xz yz pp pp pp
                     -5.00000000000000e-01 5.00000000000000e-01 0.00000000000000e+00
-5.00000000000000e-01	5.00000000000000e-01	0.00000000000000e+00
-5.00000000000000e-01	5.00000000000000e-01	0.00000000000000e+00
ITEM: ATOMS id type x y z DisplacementX DisplacementY DisplacementZ
57 1 0.000e+00 1.000e-01 0.000e+00 -4.124e-05 -3.391e-04 -1.371e-03
58 1 0.000e+00 -1.000e-01 0.000e+00 9.625e-04 2.095e-03 7.936e-04
59 1 1.000e-01 -1.000e-01 0.000e+00 1.102e-03 4.088e-04 -4.613e-04
60 1 1.000e-01 1.000e-01 0.000e+00 -4.839e-04 -7.899e-04 -1.904e-03
61 1 -1.000e-01 1.000e-01 0.000e+00 -8.154e-04 5.798e-04 8.650e-05
62 1 -1.000e-01 -1.000e-01 0.000e+00 1.804e-03 7.043e-04 -1.425e-03
63 1 0.000e+00 0.000e+00 0.000e+00 -1.019e-01 4.522e-04 5.835e-04
64 1 1.000e-01 0.000e+00 0.000e+00 7.494e-04 3.353e-04 -5.134e-04
ITEM: TIMESTEP
0
ITEM: NUMBER OF ATOMS
8
ITEM: BOX BOUNDS xy xz yz pp pp pp
                     -5.00000000000000e-01 5.00000000000000e-01 0.00000000000000e+00
-5.00000000000000e-01	5.00000000000000e-01	0.00000000000000e+00
-5.00000000000000e-01	5.00000000000000e-01	0.00000000000000e+00
ITEM: ATOMS id type x y z DisplacementX DisplacementY DisplacementZ
65 1 1.000e-01 -1.000e-01 0.000e+00 1.518e-05 8.719e-04 1.677e-05
66 1 -1.000e-01 0.000e+00 0.000e+00 1.791e-04 -3.578e-04 2.204e-04
67 1 0.000e+00 0.000e+00 0.000e+00 -9.858e-04 1.006e-01 -1.473e-03
68 1 -1.000e-01 1.000e-01 0.000e+00 -9.833e-05 2.579e-04 6.001e-04
69 1 1.000e-01 0.000e+00 0.000e+00 -1.816e-03 -6.113e-04 -8.172e-04
70 1 0.000e+00 -1.000e-01 0.000e+00 -8.762e-04 -1.095e-03 6.194e-04
71 1 1.000e-01 1.000e-01 0.000e+00 -9.221e-04 -4.849e-05 -1.652e-03
72 1 -1.000e-01 -1.000e-01 0.000e+00 1.866e-03 1.590e-03 2.644e-03
ITEM: TIMESTEP
0
ITEM: NUMBER OF ATOMS
8
ITEM: BOX BOUNDS xy xz yz pp pp pp
                     -5.00000000000000e-01 5.00000000000000e-01 0.00000000000000e+00
-5.00000000000000e-01	5.00000000000000e-01	0.00000000000000e+00
-5.00000000000000e-01	5.00000000000000e-01	0.00000000000000e+00
ITEM: ATOMS id type x y z DisplacementX DisplacementY DisplacementZ
73 1 0.000e+00 -1.000e-01 0.000e+00 3.879e-05 5.866e-04 -1.839e-04
74 1 1.000e-01 -1.000e-01 0.000e+00 -1.591e-03 -1.496e-04 -4.716e-05
75 1 0.000e+00 0.000e+00 0.000e+00 9.852e-02 1.218e-03 5.533e-04
76 1 -1.000e-01 -1.000e-01 0.000e+00 -1.353e-03 5.728e-04 -1.674e-03
77 1 -1.000e-01 0.000e+00 0.000e+00 -8.742e-04 -5.813e-04 2.566e-04
78 1 -1.000e-01 1.000e-01 0.000e+00 -5.494e-04 -3.903e-04 -1.905e-03
79 1 0.000e+00 1.000e-01 0.000e+00 -1.496e-04 4.921e-04 1.708e-03
80 1 1.000e-01 1.000e-01 0.000e+00 -3.223e-03 -4.045e-04 -1.050e-03
ITEM: TIMESTEP
0
ITEM: NUMBER OF ATOMS
8
ITEM: BOX BOUNDS xy xz yz pp pp pp
                     -5.00000000000000e-01 5.00000000000000e-01 0.00000000000000e+00
-5.00000000000000e-01	5.00000000000000e-01	0.00000000000000e+00
-5.00000000000000e-01	5.00000000000000e-01	0.00000000000000e+00
ITEM: ATOMS id type x y z DisplacementX DisplacementY DisplacementZ
81 1 -1.000e-01 -1.000e-01 0.000e+00 -1.842e-03 -1.577e-03 4.335e-04
82 1 1.000e-01 0.000e+00 0.000e+00 -1.934e-03 -1.199e-05 -6.772e-04
83 1 1.000e-01 -1.000e-01 0.000e+00 -2.995e-04 -6.294e-04 6.731e-05
84 1 0.000e+00 -1.000e-01 0.000e+00 -2.692e-04 9.026e-05 -1.963e-04
85 1 0.000e+00 1.000e-01 0.000e+00 -7.919e-04 -5.525e-04 7.890e-04
86 1 1.000e-01 1.000e-01 0.000e+00 -1.672e-03 -1.486e-03 -9.964e-04
87 1 0.000e+00 0.000e+00 0.000e+00 -1.006e-01 -1.803e-03 -1.385e-04
88 1 -1.000e-01 1.000e-01 0.000e+00 3.676e-04 5.579e-05 1.328e-03
ITEM: TIMESTEP
0
ITEM: NUMBER OF ATOMS
8
ITEM: BOX BOUNDS xy xz yz pp pp pp
                     -5.00000000000000e-01 5.00000000000000e-01 0.00000000000000e+00
-5.00000000000000e-01	5.00000000000000e-01	0.00000000000000e+00
-5.00000000000000e-01	5.00000000000000e-01	0.00000000000000e+00
ITEM: ATOMS id type x y z DisplacementX DisplacementY DisplacementZ
89 1 -1.000e-01 -1.000e-01 0.000e+00 6.856e-04 6.746e-04 1.862e-04
90 1 0.000e+00 1.000e-01 0.000e+00 3.644e-04 -2.171e-04 -1.274e-03
91 1 1.000e-01 0.000e+00 0.000e+00 8.117e-04 -8.498e-04 -1.665e-03
92 1 -1.000e-01 1.000e-01 0.000e+00 -7.706e-04 -1.009e-03 3.239e-05
93 1 -1.000e-01 0.000e+00 0.000e+00 8.533e-04 -7.089e-04 7.658e-04
94 1 1.000e-01 1.000e-01 0.000e+00 2.480e-04 -2.737e-04 1.834e-03
95 1 1.000e-01 -1.000e-01 0.000e+00 1.501e-03 1.603e-04 -2.587e-03
96 1 0.000e+00 0.000e+00 0.000e+00 -9.157e-04 -1.003e-01 2.211e-04
ITEM: TIMESTEP
0
ITEM: NUMBER OF ATOMS
8
ITEM: BOX BOUNDS xy xz yz pp pp pp
                     -5.00000000000000e-01 5.00000000000000e-01 0.00000000000000e+00
-5.00000000000000e-01	5.00000000000000e-01	0.00000000000000e+00
-5.00000000000000e-01	5.00000000000000e-01	0.00000000000000e+00
ITEM: ATOMS id type x y z DisplacementX DisplacementY DisplacementZ
97 1 1.000e-01 1.000e-01 0.000e+00 1.951e-05 5.554e-04 -7.534e-04
98 1 0.000e+00 0.000e+00 0.000e+00 1.440e-04 -1.001e-01 2.673e-04
99 1 -1.000e-01 1.000e-01 0.000e+00 1.133e-03 -5.852e-04 -6.810e-04
100 1 1.000e-01 0.000e+00 0.000e+00 9.543e-04 4.214e-04 8.325e-04
101 1 -1.000e-01 -1.000e-01 0.000e+00 -5.475e-04 4.985e-05 -2.974e-04
102 1 0.000e+00 1.000e-01 0.000e+00 1.161e-03 -7.059e-04 1.125e-04
103 1 1.000e-01 -1.000e-01 0.000e+00 -3.437e-04 1.985e-04 -5.422e-04
104 1 -1.000e-01 0.000e+00 0.000e+00 1.264e-03 -1.309e-03 1.819e-04
ITEM: TIMESTEP
0
ITEM: NUMBER OF ATOMS
8
ITEM: BOX BOUNDS xy xz yz pp pp pp
                     -5.00000000000000e-01 5.00000000000000e-01 0.00000000000000e+00
-5.00000000000000e-01	5.00000000000000e-01	0.00000000000000e+00
-5.00000000000000e-01	5.00000000000000e-01	0.00000000000000e+00
ITEM: ATOMS id type x y z DisplacementX DisplacementY DisplacementZ
105 1 1.000e-01 1.000e-01 0.000e+00 -7.957e-04 -3.559e-04 7.849e-04
106 1 -1.000e-01 -1.000e-01 0.000e+00 -6.791e-04 1.951e-03 -5.716e-04
107 1 -1.000e-01 0.000e+00 0.000e+00 1.716e-03 1.336e-03 -2.001e-03
108 1 0.000e+00 0.000e+00 0.000e+00 1.008e-01 -7.818e-04 -1.040e-03
109 1 -1.000e-01 1.000e-01 0.000e+00 -7.328e-04 9.810e-04 -2.744e-04
110 1 1.000e-01 -1.000e-01 0.000e+00 -4.436e-04 -1.363e-04 6.351e-04
111 1 0.000e+00 -1.000e-01 0.000e+00 1.589e-03 2.893e-04 -1.359e-03
112 1 0.000e+00 1.000e-01 0.000e+00 -1.778e-04 -4.053e-04 -1.747e-03
ITEM: TIMESTEP
0
ITEM: NUMBER OF ATOMS
8
ITEM: BOX BOUNDS xy xz yz pp pp pp
                     -5.00000000000000e-01 5.00000000000000e-01 0.00000000000000e+00
-5.00000000000000e-01	5.00000000000000e-01	0.00000000000000e+00
-5.00000000000000e-01	5.00000000000000e-01	0.00000000000000e+00
ITEM: ATOMS id type x y z DisplacementX DisplacementY DisplacementZ
113 1 -1.000e-01 -1.000e-01 0.000e+00 -3.514e-05 5.204e-05 2.365e-05
114 1 1.000e-01 -1.000e-01 0.000e+00 -1.195e-03 -6.208e-04 2.364e-04
115 1 -1.000e-01 1.000e-01 0.000e+00 -4.555e-04 4.317e-04 -3.766e-04
116 1 0.000e+00 -1.000e-01 0.000e+00 2.112e-04 1.002e-03 4.538e-04
117 1 1.000e-01 0.000e+00 0.000e+00 -3.219e-04 2.491e-04 6.308e-04
118 1 0.000e+00 0.000e+00 0.000e+00 1.111e-05 1.002e-01 1.208e-04
119 1 -1.000e-01 0.000e+00 0.000e+00 1.839e-03 7.435e-04 2.177e-05
120 1 1.000e-01 1.000e-01 0.000e+00 4.923e-05 8.900e-04 9.630e-04
ITEM: TIMESTEP
0
ITEM: NUMBER OF ATOMS
8
ITEM: BOX BOUNDS xy xz yz pp pp pp
                     -5.00000000000000e-01 5.00000000000000e-01 0.00000000000000e+00
-5.00000000000000e-01	5.00000000000000e-01	0.00000000000000e+00
-5.00000000000000e-01	5.00000000000000e-01	0.00000000000000e+00
ITEM: ATOMS id type x y z DisplacementX DisplacementY DisplacementZ
121 1 -1.000e-01 1.000e-01 0.000e+00 1.484e-03 -3.410e-04 -3.291e-04
122 1 1.000e-01 1.000e-01 0.000e+00 1.727e-04 -4.173e-04 9.559e-04
123 1 0.000e+00 1.000e-01 0.000e+00 3.696e-04 3.014e-04 -2.452e-04
124 1 1.000e-01 0.000e+00 0.000e+00 -2.208e-04 3.144e-03 -4.694e-04
125 1 0.000e+00 -1.000e-01 0.000e+00 -5.418e-04 2.637e-04 8.376e-04
126 1 -1.000e-01 -1.000e-01 0.000e+00 3.418e-04 -6.270e-04 3.709e-04
127 1 0.000e+00 0.000e+00 0.000e+00 -1.006e-01 2.443e-04 4.947e-04
128 1 1.000e-01 -1.000e-01 0.000e+00 9.816e-04 1.503e-03 8.474e-04
ITEM: TIMESTEP
0
ITEM: NUMBER OF ATOMS
8
ITEM: BOX BOUNDS xy xz yz pp pp pp
                     -5.00000000000000e-01 5.00000000000000e-01 0.00000000000000e+00
-5.00000000000000e-01	5.00000000000000e-01	0.00000000000000e+00
-5.00000000000000e-01	5.00000000000000e-01	0.00000000000000e+00
ITEM: ATOMS id type x y z DisplacementX DisplacementY DisplacementZ
129 1 0.000e+00 0.000e+00 0.000e+00 -1.001e-01 -7.458e-04 2.921e-04
130 1 1.000e-01 0.000e+00 0.000e+00 8.081e-04 -9.852e-04 6.695e-05
131 1 1.000e-01 -1.000e-01 0.000e+00 8.450e-04 2.078e-04 -6.022e-04
132 1 -1.000e-01 1.000e-01 0.000e+00 -9.881e-04 1.033e-03 -9.092e-05
133 1 0.000e+00 1.000e-01 0.000e+00 -4.304e-04 -2.585e-04 -1.696e-04
134 1 0.000e+00 -1.000e-01 0.000e+00 8.804e-04 4.055e-04 5.761e-04
135 1 -1.000e-01 -1.000e-01 0.000e+00 3.534e-04 -1.778e-04 -6.895e-04
136 1 1.000e-01 1.000e-01 0.000e+00 -5.666e-04 2.247e-04 1.870e-03
ITEM: TIMESTEP
0
ITEM: NUMBER OF ATOMS
8
ITEM: BOX BOUNDS xy xz yz pp pp pp
                     -5.00000000000000e-01 5.00000000000000e-01 0.00000000000000e+00
-5.00000000000000e-01	5.00000000000000e-01	0.00000000000000e+00
-5.00000000000000e-01	5.00000000000000e-01	0.00000000000000e+00
ITEM: ATOMS id type x y z DisplacementX DisplacementY DisplacementZ
137 1 -1.000e-01 -1.000e-01 0.000e+00 4.171e-04 8.386e-04 -8.752e-04
138 1 0.000e+00 0.000e+00 0.000e+00 9.893e-02 -5.580e-05 6.861e-04
139 1 1.000e-01 1.000e-01 0.000e+00 9.492e-04 -5.848e-04 -1.222e-04
140 1 -1.000e-01 0.000e+00 0.000e+00 9.101e-05 -1.281e-03 1.319e-03
141 1 -1.000e-01 1.000e-01 0.000e+00 -2.687e-03 1.275e-04 -3.976e-04
142 1 0.000e+00 1.000e-01 0.000e+00 2.977e-04 1.455e-03 -6.896e-04
143 1 0.000e+00 -1.000e-01 0.000e+00 -2.040e-03 3.348e-04 -1.363e-03
144 1 1.000e-01 -1.000e-01 0.000e+00 1.847e-03 1.249e-03 6.725e-04
ITEM: TIMESTEP
0
ITEM: NUMBER OF ATOMS
8
ITEM: BOX BOUNDS xy xz yz pp pp pp
                     -5.00000000000000e-01 5.00000000000000e-01 0.00000000000000e+00
-5.00000000000000e-01	5.00000000000000e-01	0.00000000000000e+00
-5.00000000000000e-01	5.00000000000000e-01	0.00000000000000e+00
ITEM: ATOMS id type x y z DisplacementX DisplacementY DisplacementZ
145 1 1.000e-01 1.000e-01 0.000e+00 8.897e-04 -7.403e-04 -5.913e-04
146 1 1.000e-01 -1.000e-01 0.000e+00 -1.694e-04 9.928e-04 -3.100e-04
147 1 -1.000e-01 -1.000e-01 0.000e+00 -8.829e-05 -8.923e-04 -1.647e-04
148 1 0.000e+00 0.000e+00 0.000e+00 8.387e-04 -1.009e-01 4.308e-04
149 1 -1.000e-01 0.000e+00 0.000e+00 3.511e-04 6.925e-04 2.842e-03
150 1 1.000e-01 0.000e+00 0.000e+00 3.197e-06 -1.604e-04 9.392e-04
151 1 0.000e+00 1.000e-01 0.000e+00 -4.736e-04 1.063e-03 -1.040e-03
152 1 -1.000e-01 1.000e-01 0.000e+00 2.531e-03 -6.958e-04 -2.233e-05
ITEM: TIMESTEP
0
ITEM: NUMBER OF ATOMS
8
ITEM: BOX BOUNDS xy xz yz pp pp pp
                     -5.00000000000000e-01 5.00000000000000e-01 0.00000000000000e+00
-5.00000000000000e-01	5.00000000000000e-01	0.00000000000000e+00
-5.00000000000000e-01	5.00000000000000e-01	0.00000000000000e+00
ITEM: ATOMS id type x y z DisplacementX DisplacementY DisplacementZ
153 1 -1.000e-01 -1.000e-01 0.000e+00 -2.391e-04 -8.297e-05 9.512e-04
154 1 1.000e-01 1.000e-01 0.000e+00 -4.655e-04 3.240e-04 -1.162e-03
155 1 -1.000e-01 1.000e-01 0.000e+00 1.802e-03 1.802e-04 1.095e-03
156 1 0.000e+00 -1.000e-01 0.000e+00 -1.512e-04 -4.617e-05 3.044e-04
157 1 1.000e-01 -1.000e-01 0.000e+00 -1.431e-03 -2.092e-03 1.136e-03
158 1 -1.000e-01 0.000e+00 0.000e+00 -9.814e-04 -2.219e-04 2.730e-03
159 1 1.000e-01 0.000e+00 0.000e+00 -2.692e-03 -1.498e-03 -3.378e-04
160 1 0.000e+00 0.000e+00 0.000e+00 -1.070e-03 9.747e-02 -2.589e-04
ITEM: TIMESTEP
0
ITEM: NUMBER OF ATOMS
8
ITEM: BOX BOUNDS xy xz yz pp pp pp
                     -5.00000000000000e-01 5.00000000000000e-01 0.00000000000000e+00
-5.00000000000000e-01	5.00000000000000e-01	0.00000000000000e+00
-5.00000000000000e-01	5.00000000000000e-01	0.00000000000000e+00
ITEM: ATOMS id type x y z DisplacementX DisplacementY DisplacementZ
161 1 1.000e-01 -1.000e-01 0.000e+00 -1.386e-04 -1.291e-03 -1.069e-03
162 1 1.000e-01 1.000e-01 0.000e+00 -7.252e-04 -4.494e-04 -1.445e-04
163 1 0.000e+00 0.000e+00 0.000e+00 -9.903e-02 -1.749e-03 8.305e-04
164 1 0.000e+00 -1.000e-01 0.000e+00 9.000e-04 -4.681e-04 -1.658e-03
165 1 0.000e+00 1.000e-01 0.000e+00 -2.210e-03 -3.726e-04 6.882e-04
166 1 -1.000e-01 1.000e-01 0.000e+00 -1.188e-03 -8.362e-04 -4.781e-04
167 1 -1.000e-01 -1.000e-01 0.000e+00 -1.963e-04 1.624e-03 3.407e-04
168 1 1.000e-01 0.000e+00 0.000e+00 4.577e-04 1.421e-03 -3.998e-04
ITEM: TIMESTEP
0
ITEM: NUMBER OF ATOMS
8
ITEM: BOX BOUNDS xy xz yz pp pp pp
                     -5.00000000000000e-01 5.00000000000000e-01 0.00000000000000e+00
-5.00000000000000e-01	5.00000000000000e-01	0.00000000000000e+00
-5.00000000000000e-01	5.00000000000000e-01	0.00000000000000e+00
ITEM: ATOMS id type x y z DisplacementX DisplacementY DisplacementZ
169 1 0.000e+00 1.000e-01 0.000e+00 -4.424e-04 -3.847e-04 1.513e-03
170 1 1.000e-01 -1.000e-01 0.000e+00 1.018e-05 7.675e-04 -4.953e-04
171 1 1.000e-01 0.000e+00 0.000e+00 -2.927e-04 -6.890e-04 1.813e-03
172 1 -1.000e-01 1.000e-01 0.000e+00 -7.379e-04 3.982e-05 -4.336e-04
173 1 0.000e+00 0.000e+00 0.000e+00 -8.325e-04 -9.994e-02 -3.976e-04
174 1 -1.000e-01 -1.000e-01 0.000e+00 -2.105e-04 -7.288e-04 -6.250e-04
175 1 -1.000e-01 0.000e+00 0.000e+00 -1.225e-03 1.659e-03 1.158e-03
176 1 1.000e-01 1.000e-01 0.000e+00 -5.799e-04 9.643e-04 7.129e-04
ITEM: TIMESTEP
0
ITEM: NUMBER OF ATOMS
8
ITEM: BOX BOUNDS xy xz yz pp pp pp
                     -5.00000000000000e-01 5.00000000000000e-01 0.00000000000000e+00
-5.00000000000000e-01	5.00000000000000e-01	0.00000000000000e+00
-5.00000000000000e-01	5.00000000000000e-01	0.00000000000000e+00
ITEM: ATOMS id type x y z DisplacementX DisplacementY DisplacementZ
177 1 -1.000e-01 1.000e-01 0.000e+00 1.032e-03 1.380e-03 -2.279e-04
178 1 1.000e-01 1.000e-01 0.000e+00 -7.013e-04 4.088e-05 -1.885e-04
179 1 0.000e+00 0.000e+00 0.000e+00 9.816e-02 -1.329e-03 6.197e-04
180 1 -1.000e-01 -1.000e-01 0.000e+00 -1.256e-04 -2.032e-04 1.524e-03
181 1 1.000e-01 -1.000e-01 0.000e+00 1.155e-03 2.863e-04 4.652e-04
182 1 0.000e+00 1.000e-01 0.000e+00 -1.287e-03 -1.565e-03 -1.570e-03
183 1 -1.000e-01 0.000e+00 0.000e+00 1.184e-03 -3.421e-05 -1.152e-03
184 1 0.000e+00 -1.000e-01 0.000e+00 -5.741e-04 1.998e-04 1.268e-04
ITEM: TIMESTEP
0
ITEM: NUMBER OF ATOMS
8
ITEM: BOX BOUNDS xy xz yz pp pp pp
                     -5.00000000000000e-01 5.00000000000000e-01 0.00000000000000e+00
-5.00000000000000e-01	5.00000000000000e-01	0.00000000000000e+00
-5.00000000000000e-01	5.00000000000000e-01	0.00000000000000e+00
ITEM: ATOMS id type x y z DisplacementX DisplacementY DisplacementZ
185 1 -1.000e-01 -1.000e-01 0.000e+00 8.606e-05 5.999e-04 -1.283e-03
186 1 1.000e-01 1.000e-01 0.000e+00 3.494e-04 1.673e-04 4.918e-04
187 1 1.000e-01 0.000e+00 0.000e+00 -1.906e-04 -4.615e-04 -7.456e-04
188 1 -1.000e-01 1.000e-01 0.000e+00 -4.691e-04 3.888e-04 3.915e-04
189 1 0.000e+00 0.000e+00 0.000e+00 -1.809e-03 9.956e-02 -9.500e-05
190 1 1.000e-01 -1.000e-01 0.000e+00 -2.020e-04 -2.437e-03 -1.627e-03
191 1 0.000e+00 -1.000e-01 0.000e+00 8.160e-04 -4.814e-04 -1.258e-04
192 1 -1.000e-01 0.000e+00 0.000e+00 1.969e-03 8.795e-04 -1.656e-04
ITEM: TIMESTEP
0
ITEM: NUMBER OF ATOMS
8
ITEM: BOX BOUNDS xy xz yz pp pp pp
                     -5.00000000000000e-01 5.00000000000000e-01 0.00000000000000e+00
-5.00000000000000e-01	5.00000000000000e-01	0.00000000000000e+00
-5.00000000000000e-01	5.00000000000000e-01	0.00000000000000e+00
ITEM: ATOMS id type x y z DisplacementX DisplacementY DisplacementZ
193 1 -1.000e-01 1.000e-01 0.000e+00 -9.249e-04 8.695e-04 -2.896e-04
194 1 0.000e+00 -1.000e-01 0.000e+00 1.296e-03 -8.968e-04 5.895e-04
195 1 -1.000e-01 0.000e+00 0.000e+00 5.976e-04 -2.035e-03 1.194e-04
196 1 0.000e+00 0.000e+00 0.000e+00 9.927e-02 -9.828e-04 1.973e-03
197 1 1.000e-01 1.000e-01 0.000e+00 2.056e-03 1.252e-03 3.955e-04
198 1 -1.000e-01 -1.000e-01 0.000e+00 -1.516e-04 -7.610e-04 -1.152e-03
199 1 1.000e-01 -1.000e-01 0.000e+00 1.377e-03 7.541e-04 3.024e-05
200 1 0.000e+00 1.000e-01 0.000e+00 -2.923e-03 3.305e-04 -4.079e-04
ITEM: TIMESTEP
0
ITEM: NUMBER OF ATOMS
8
ITEM: BOX BOUNDS xy xz yz pp pp pp
                     -5.00000000000000e-01 5.00000000000000e-01 0.00000000000000e+00
-5.00000000000000e-01	5.00000000000000e-01	0.00000000000000e+00
-5.00000000000000e-01	5.00000000000000e-01	0.00000000000000e+00
ITEM: ATOMS id type x y z DisplacementX DisplacementY DisplacementZ
201 1 1.000e-01 0.000e+00 0.000e+00 -3.069e-04 3.081e-04 5.183e-05
202 1 0.000e+00 1.000e-01 0.000e+00 -2.782e-03 -2.692e-04 5.471e-05
203 1 0.000e+00 -1.000e-01 0.000e+00 1.069e-03 -5.322e-04 -1.048e-03
204 1 0.000e+00 0.000e+00 0.000e+00 -9.926e-02 4.080e-05 -2.887e-04
205 1 -1.000e-01 1.000e-01 0.000e+00 1.947e-03 1.700e-04 -2.343e-04
206 1 1.000e-01 1.000e-01 0.000e+00 4.248e-04 1.319e-03 -1.145e-03
207 1 1.000e-01 -1.000e-01 0.000e+00 7.848e-04 8.640e-04 8.575e-05
208 1 -1.000e-01 -1.000e-01 0.000e+00 -7.684e-04 9.143e-05 -1.013e-03
ITEM: TIMESTEP
0
ITEM: NUMBER OF ATOMS
8
ITEM: BOX BOUNDS xy xz yz pp pp pp
                     -5.00000000000000e-01 5.00000000000000e-01 0.00000000000000e+00
-5.00000000000000e-01	5.00000000000000e-01	0.00000000000000e+00
-5.00000000000000e-01	5.00000000000000e-01	0.00000000000000e+00
ITEM: ATOMS id type x y z DisplacementX DisplacementY DisplacementZ
209 1 1.000e-01 1.000e-01 0.000e+00 4.547e-04 -1.596e-03 7.748e-04
210 1 1.000e-01 0.000e+00 0.000e+00 1.208e-03 -1.141e-03 1.149e-03
211 1 -1.000e-01 -1.000e-01 0.000e+00 -5.715e-04 5.425e-04 1.746e-04
212 1 1.000e-01 -1.000e-01 0.000e+00 -6.933e-04 -6.813e-04 -9.259e-05
213 1 -1.000e-01 1.000e-01 0.000e+00 1.997e-03 2.373e-03 1.217e-03
214 1 0.000e+00 0.000e+00 0.000e+00 9.138e-04 -9.803e-02 -8.497e-04
215 1 0.000e+00 1.000e-01 0.000e+00 -7.497e-04 1.491e-03 -3.453e-04
216 1 -1.000e-01 0.000e+00 0.000e+00 -1.037e-07 7.099e-04 -5.356e-04
ITEM: TIMESTEP
0
ITEM: NUMBER OF ATOMS
8
ITEM: BOX BOUNDS xy xz yz pp pp pp
                     -5.00000000000000e-01 5.00000000000000e-01 0.00000000000000e+00
-5.00000000000000e-01	5.00000000000000e-01	0.00000000000000e+00
-5.00000000000000e-01	5.00000000000000e-01	0.00000000000000e+00
ITEM: ATOMS id type x y z DisplacementX DisplacementY DisplacementZ
217 1 -1.000e-01 0.000e+00 0.000e+00 1.286e-03 1.670e-03 1.816e-03
218 1 1.000e-01 -1.000e-01 0.000e+00 3.311e-05 -9.672e-04 1.960e-03
219 1 0.000e+00 -1.000e-01 0.000e+00 -3.957e-05 1.745e-04 -1.013e-03
220 1 1.000e-01 0.000e+00 0.000e+00 -2.315e-05 -1.716e-03 1.326e-04
221 1 -1.000e-01 1.000e-01 0.000e+00 -9.316e-04 1.867e-03 4.606e-04
222 1 1.000e-01 1.000e-01 0.000e+00 2.723e-04 1.291e-03 -1.798e-04
223 1 0.000e+00 0.000e+00 0.000e+00 1.685e-03 1.009e-01 -9.997e-04
224 1 -1.000e-01 -1.000e-01 0.000e+00 1.821e-03 1.170e-03 3.226e-04
ITEM: TIMESTEP
0
ITEM: NUMBER OF ATOMS
8
ITEM: BOX BOUNDS xy xz yz pp pp pp
                     -5.00000000000000e-01 5.00000000000000e-01 0.00000000000000e+00
-5.00000000000000e-01	5.00000000000000e-01	0.00000000000000e+00
-5.00000000000000e-01	5.00000000000000e-01	0.00000000000000e+00
ITEM: ATOMS id type x y z DisplacementX DisplacementY DisplacementZ
225 1 0.000e+00 0.000e+00 0.000e+00 -1.003e-01 -9.157e-04 -8.320e-04
226 1 1.000e-01 -1.000e-01 0.000e+00 1.384e-04 -4.327e-04 1.152e-03
227 1 1.000e-01 0.000e+00 0.000e+00 1.843e-04 -1.181e-03 1.522e-04
228 1 0.000e+00 1.000e-01 0.000e+00 -1.103e-03 4.483e-05 1.619e-03
229 1 -1.000e-01 -1.000e-01 0.000e+00 -8.581e-04 -6.262e-04 3.775e-04
230 1 1.000e-01 1.000e-01 0.000e+00 -4.132e-04 -4.001e-04 -9.980e-04
231 1 -1.000e-01 1.000e-01 0.000e+00 -1.575e-04 1.095e-04 -8.701e-04
232 1 0.000e+00 -1.000e-01 0.000e+00 -1.777e-03 -2.080e-04 1.628e-04
ITEM: TIMESTEP
0
ITEM: NUMBER OF ATOMS
8
ITEM: BOX BOUNDS xy xz yz pp pp pp
                     -5.00000000000000e-01 5.00000000000000e-01 0.00000000000000e+00
-5.00000000000000e-01	5.00000000000000e-01	0.00000000000000e+00
-5.00000000000000e-01	5.00000000000000e-01	0.00000000000000e+00
ITEM: ATOMS id type x y z DisplacementX DisplacementY DisplacementZ
233 1 -1.000e-01 -1.000e-01 0.000e+00 6.612e-04 1.504e-03 -4.926e-04
234 1 1.000e-01 1.000e-01 0.000e+00 -6.327e-04 2.079e-03 1.888e-03
235 1 -1.000e-01 0.000e+00 0.000e+00 -6.974e-04 7.698e-05 3.727e-04
236 1 0.000e+00 0.000e+00 0.000e+00 -3.603e-04 9.966e-02 -1.740e-03
237 1 1.000e-01 0.000e+00 0.000e+00 1.900e-04 -9.601e-05 2.487e-04
238 1 -1.000e-01 1.000e-01 0.000e+00 8.587e-04 2.293e-03 -1.124e-03
239 1 1.000e-01 -1.000e-01 0.000e+00 5.649e-04 -1.750e-03 -1.142e-03
240 1 0.000e+00 -1.000e-01 0.000e+00 -5.794e-04 9.777e-04 1.053e-03
ITEM: TIMESTEP
0
ITEM: NUMBER OF ATOMS
8
ITEM: BOX BOUNDS xy xz yz pp pp pp
                     -5.00000000000000e-01 5.00000000000000e-01 0.00000000000000e+00
-5.00000000000000e-01	5.00000000000000e-01	0.00000000000000e+00
-5.00000000000000e-01	5.00000000000000e-01	0.00000000000000e+00
ITEM: ATOMS id type x y z DisplacementX DisplacementY DisplacementZ
241 1 1.000e-01 -1.000e-01 0.000e+00 -8.445e-04 -1.318e-03 -3.398e-04
242 1 -1.000e-01 0.000e+00 0.000e+00 -8.719e-04 2.687e-03 1.407e-03
243 1 1.000e-01 0.000e+00 0.000e+00 -1.676e-04 -1.593e-03 -2.501e-03
244 1 0.000e+00 1.000e-01 0.000e+00 -2.404e-04 1.650e-03 1.341e-04
245 1 -1.000e-01 1.000e-01 0.000e+00 -2.206e-04 6.104e-04 -4.940e-05
246 1 1.000e-01 1.000e-01 0.000e+00 4.143e-04 -1.012e-03 6.999e-04
247 1 0.000e+00 0.000e+00 0.000e+00 1.751e-03 -9.952e-02 1.444e-04
248 1 -1.000e-01 -1.000e-01 0.000e+00 -4.286e-04 -1.227e-04 -1.206e-03
ITEM: TIMESTEP
0
ITEM: NUMBER OF ATOMS
8
ITEM: BOX BOUNDS xy xz yz pp pp pp
                     -5.00000000000000e-01 5.00000000000000e-01 0.00000000000000e+00
-5.00000000000000e-01	5.00000000000000e-01	0.00000000000000e+00
-5.00000000000000e-01	5.00000000000000e-01	0.00000000000000e+00
ITEM: ATOMS id type x y z DisplacementX DisplacementY DisplacementZ
249 1 -1.000e-01 0.000e+00 0.000e+00 7.886e-04 -2.025e-05 -1.349e-03
250 1 0.000e+00 1.000e-01 0.000e+00 -7.664e-04 2.589e-04 1.275e-03
251 1 0.000e+00 -1.000e-01 0.000e+00 8.107e-04 6.617e-04 1.343e-03
252 1 1.000e-01 -1.000e-01 0.000e+00 -2.841e-04 4.134e-04 1.729e-03
253 1 -1.000e-01 -1.000e-01 0.000e+00 -1.207e-05 1.851e-03 -1.624e-03
254 1 1.000e-01 1.000e-01 0.000e+00 3.047e-04 -5.882e-04 -1.132e-03
255 1 0.000e+00 0.000e+00 0.000e+00 9.921e-02 -1.528e-03 4.116e-04
256 1 -1.000e-01 1.000e-01 0.000e+00 -6.869e-04 -1.878e-03 7.920e-04
ITEM: TIMESTEP
0
ITEM: NUMBER OF ATOMS
8
ITEM: BOX BOUNDS xy xz yz pp pp pp
                     -5.00000000000000e-01 5.00000000000000e-01 0.00000000000000e+00
-5.00000000000000e-01	5.00000000000000e-01	0.00000000000000e+00
-5.00000000000000e-01	5.00000000000000e-01	0.00000000000000e+00
ITEM: ATOMS id type x y z DisplacementX DisplacementY DisplacementZ
257 1 0.000e+00 -1.000e-01 0.000e+00 2.435e-03 -5.676e-05 1.290e-03
258 1 0.000e+00 0.000e+00 0.000e+00 1.016e-01 -6.533e-05 -7.155e-04
259 1 0.000e+00 1.000e-01 0.000e+00 4.555e-04 3.643e-04 -9.464e-04
260 1 -1.000e-01 0.000e+00 0.000e+00 -3.927e-04 -4.317e-04 -1.809e-04
261 1 -1.000e-01 1.000e-01 0.000e+00 6.530e-06 1.266e-03 4.649e-04
262 1 -1.000e-01 -1.000e-01 0.000e+00 -1.866e-03 5.309e-04 9.829e-04
263 1 1.000e-01 1.000e-01 0.000e+00 2.257e-03 5.291e-04 -9.934e-04
264 1 1.000e-01 -1.000e-01 0.000e+00 -4.973e-04 1.151e-03 6.864e-05
ITEM: TIMESTEP
0
ITEM: NUMBER OF ATOMS
8
ITEM: BOX BOUNDS xy xz yz pp pp pp
                     -5.00000000000000e-01 5.00000000000000e-01 0.00000000000000e+00
-5.00000000000000e-01	5.00000000000000e-01	0.00000000000000e+00
-5.00000000000000e-01	5.00000000000000e-01	0.00000000000000e+00