ITEM: TIMESTEP
0
ITEM: NUMBER OF ATOMS
8
ITEM: BOX BOUNDS xy xz yz pp pp pp
                     -5.00000000000000e-01 5.00000000000000e-01 0.00000000000000e+00
-5.00000000000000e-01	5.00000000000000e-01	0.00000000000000e+00
-5.00000000000000e-01	5.00000000000000e-01	0.00000000000000e+00
ITEM: ATOMS id type x y z DisplacementX DisplacementY DisplacementZ
1 1 0.000e+00 1.000e-01 0.000e+00 1.318e-03 -1.387e-03 4.206e-04
2 1 -1.000e-01 0.000e+00 0.000e+00 -1.469e-03 2.193e-03 -1.216e-03
3 1 1.000e-01 0.000e+00 0.000e+00 7.261e-04 1.180e-03 9.239e-04
4 1 0.000e+00 0.000e+00 0.000e+00 -6.645e-04 -1.003e-01 -8.704e-04
5 1 1.000e-01 1.000e-01 0.000e+00 -1.037e-03 1.402e-03 -2.009e-03
6 1 1.000e-01 -1.000e-01 0.000e+00 6.980e-04 1.039e-04 1.746e-04
7 1 -1.000e-01 1.000e-01 0.000e+00 8.004e-05 -4.689e-05 3.414e-04
8 1 -1.000e-01 -1.000e-01 0.000e+00 -1.672e-03 5.717e-04 -3.110e-04
ITEM: TIMESTEP
0
ITEM: NUMBER OF ATOMS
8
ITEM: BOX BOUNDS xy xz yz pp pp pp
                     -5.00000000000000e-01 5.00000000000000e-01 0.00000000000000e+00
-5.00000000000000e-01	5.00000000000000e-01	0.00000000000000e+00
-5.00000000000000e-01	5.00000000000000e-01	0.00000000000000e+00
ITEM: ATOMS id type x y z DisplacementX DisplacementY DisplacementZ
9 1 -1.000e-01 -1.000e-01 0.000e+00 -5.085e-04 -9.824e-04 1.660e-03
10 1 -1.000e-01 0.000e+00 0.000e+00 1.248e-03 2.221e-04 9.946e-04
11 1 1.000e-01 -1.000e-01 0.000e+00 -1.044e-03 6.399e-04 -1.003e-03
12 1 0.000e+00 0.000e+00 0.000e+00 2.001e-03 1.003e-01 9.646e-04
13 1 1.000e-01 0.000e+00 0.000e+00 -1.843e-04 -7.485e-05 8.075e-04
14 1 1.000e-01 1.000e-01 0.000e+00 -9.781e-06 1.613e-03 -1.222e-03
15 1 0.000e+00 -1.000e-01 0.000e+00 -1.366e-03 -9.646e-04 -1.252e-03
16 1 -1.000e-01 1.000e-01 0.000e+00 -1.174e-03 1.292e-03 2.817e-04
