ITEM: TIMESTEP
0
ITEM: NUMBER OF ATOMS
32
ITEM: BOX BOUNDS xy xz yz pp pp pp
                     -5.00000000000000e-01 5.00000000000000e-01 0.00000000000000e+00
-5.00000000000000e-01	5.00000000000000e-01	0.00000000000000e+00
-5.00000000000000e-01	5.00000000000000e-01	0.00000000000000e+00
ITEM: ATOMS id type x y z DisplacementX DisplacementY DisplacementZ
1 1 -2.000e-01 2.000e-01 2.000e-01 -3.353e-04 -1.354e-03 -5.707e-04
2 1 -4.000e-01 0.000e+00 0.000e+00 8.903e-04 -3.359e-04 -1.012e-04
3 1 0.000e+00 0.000e+00 2.000e-01 -1.239e-03 1.014e-03 -6.559e-04
4 1 -2.000e-01 0.000e+00 -2.000e-01 -4.484e-04 -6.424e-04 -4.003e-04
5 1 0.000e+00 -2.000e-01 0.000e+00 -1.658e-03 1.950e-04 -5.379e-04
6 1 0.000e+00 -4.000e-01 0.000e+00 -7.851e-04 2.015e-03 -7.069e-04
7 1 -2.000e-01 2.000e-01 -2.000e-01 -7.461e-04 3.490e-04 3.168e-04
8 1 -2.000e-01 -2.000e-01 2.000e-01 -1.338e-03 1.239e-03 -1.192e-03
9 1 4.000e-01 0.000e+00 0.000e+00 2.063e-04 1.558e-03 1.043e-03
10 1 0.000e+00 0.000e+00 0.000e+00 8.022e-04 1.985e-01 -4.479e-04
11 1 -2.000e-01 2.000e-01 0.000e+00 -2.403e-04 -1.797e-05 -8.974e-04
12 1 0.000e+00 2.000e-01 -2.000e-01 -4.023e-04 -1.685e-03 2.192e-03
13 1 2.000e-01 -2.000e-01 -2.000e-01 -1.416e-03 -2.350e-04 -1.571e-03
14 1 -2.000e-01 -2.000e-01 0.000e+00 2.585e-04 -8.713e-04 -3.506e-04
15 1 2.000e-01 0.000e+00 2.000e-01 -1.079e-03 5.225e-04 1.150e-03
16 1 -2.000e-01 0.000e+00 0.000e+00 1.839e-03 1.042e-03 -4.537e-04
17 1 2.000e-01 -2.000e-01 0.000e+00 1.267e-03 -2.549e-03 2.006e-04
18 1 2.000e-01 0.000e+00 0.000e+00 1.185e-04 -1.968e-04 -2.638e-04
19 1 2.000e-01 -2.000e-01 2.000e-01 1.009e-03 8.563e-04 2.078e-04
20 1 0.000e+00 2.000e-01 2.000e-01 -1.840e-03 -5.083e-04 1.926e-04
21 1 2.000e-01 2.000e-01 -2.000e-01 1.666e-04 9.014e-04 1.418e-03
22 1 2.000e-01 2.000e-01 2.000e-01 -1.819e-03 -2.288e-04 -8.134e-04
23 1 2.000e-01 0.000e+00 -2.000e-01 -1.538e-03 1.872e-03 3.183e-05
24 1 2.000e-01 2.000e-01 0.000e+00 3.952e-04 -1.252e-03 -9.808e-05
25 1 0.000e+00 0.000e+00 4.000e-01 -1.167e-03 1.448e-03 -5.244e-04
26 1 0.000e+00 0.000e+00 -4.000e-01 -5.476e-04 4.887e-04 1.080e-03
27 1 0.000e+00 -2.000e-01 -2.000e-01 7.023e-05 1.922e-04 8.154e-04
28 1 0.000e+00 0.000e+00 -2.000e-01 4.744e-04 -1.311e-03 3.176e-04
29 1 0.000e+00 -2.000e-01 2.000e-01 2.531e-04 -9.816e-05 -7.498e-04
30 1 -2.000e-01 0.000e+00 2.000e-01 3.126e-04 -4.381e-04 -7.176e-04
31 1 -2.000e-01 -2.000e-01 -2.000e-01 -4.148e-04 8.645e-05 7.958e-04
32 1 0.000e+00 4.000e-01 0.000e+00 4.231e-06 -9.848e-04 -6.816e-04
ITEM: TIMESTEP
0
ITEM: NUMBER OF ATOMS
32
ITEM: BOX BOUNDS xy xz yz pp pp pp
                     -5.00000000000000e-01 5.00000000000000e-01 0.00000000000000e+00
-5.00000000000000e-01	5.00000000000000e-01	0.00000000000000e+00
-5.00000000000000e-01	5.00000000000000e-01	0.00000000000000e+00
ITEM: ATOMS id type x y z DisplacementX DisplacementY DisplacementZ
33 1 2.000e-01 2.000e-01 -2.000e-01 -4.571e-04 -1.349e-03 1.005e-04
34 1 0.000e+00 0.000e+00 2.000e-01 -1.176e-04 -1.102e-03 4.087e-04
35 1 -2.000e-01 -2.000e-01 0.000e+00 -5.529e-04 4.492e-04 1.221e-03
36 1 2.000e-01 -2.000e-01 2.000e-01 -1.234e-04 -1.191e-04 -3.478e-04
37 1 0.000e+00 -2.000e-01 -2.000e-01 1.869e-03 4.126e-04 2.152e-04
38 1 -2.000e-01 2.000e-01 -2.000e-01 -6.175e-04 9.627e-04 2.352e-04
39 1 0.000e+00 0.000e+00 -2.000e-01 -3.812e-04 -6.092e-04 3.263e-04
40 1 0.000e+00 2.000e-01 2.000e-01 -2.931e-04 1.014e-03 2.257e-03
41 1 0.000e+00 2.000e-01 0.000e+00 -1.066e-03 -2.297e-04 -8.764e-04
42 1 2.000e-01 -2.000e-01 0.000e+00 4.127e-04 1.051e-03 -8.386e-04
43 1 0.000e+00 0.000e+00 0.000e+00 2.004e-01 -3.238e-04 4.935e-04
44 1 0.000e+00 4.000e-01 0.000e+00 -1.394e-03 7.745e-04 5.692e-04
45 1 2.000e-01 0.000e+00 -2.000e-01 7.212e-05 -1.610e-03 6.331e-04
46 1 -2.000e-01 -2.000e-01 -2.000e-01 3.994e-04 -5.050e-04 -2.019e-04
47 1 -2.000e-01 -2.000e-01 2.000e-01 -1.508e-03 1.012e-04 -1.249e-07
48 1 0.000e+00 -4.000e-01 0.000e+00 1.236e-03 -9.378e-04 -8.631e-04
49 1 -2.000e-01 2.000e-01 0.000e+00 -9.746e-04 -1.141e-03 -1.260e-03
50 1 0.000e+00 -2.000e-01 0.000e+00 -2.219e-04 -1.958e-03 6.500e-04
51 1 -2.000e-01 0.000e+00 0.000e+00 -1.101e-03 -9.247e-04 -8.900e-04
52 1 2.000e-01 0.000e+00 2.000e-01 9.841e-04 -1.057e-03 1.049e-03
53 1 -2.000e-01 0.000e+00 2.000e-01 -1.203e-03 1.134e-03 -3.241e-04
54 1 0.000e+00 0.000e+00 4.000e-01 1.828e-03 2.498e-04 -1.778e-03
55 1 4.000e-01 0.000e+00 0.000e+00 1.614e-03 6.839e-04 2.733e-04
56 1 -4.000e-01 0.000e+00 0.000e+00 -4.861e-04 -4.763e-04 -1.761e-03
57 1 -2.000e-01 0.000e+00 -2.000e-01 7.839e-04 -2.737e-05 -1.234e-04
58 1 0.000e+00 2.000e-01 -2.000e-01 -1.766e-03 -9.683e-04 1.481e-03
59 1 -2.000e-01 2.000e-01 2.000e-01 -6.648e-04 -3.363e-04 5.822e-04
60 1 0.000e+00 0.000e+00 -4.000e-01 1.675e-03 -2.281e-03 8.008e-04
61 1 2.000e-01 -2.000e-01 -2.000e-01 4.668e-04 -3.825e-04 8.061e-04
62 1 2.000e-01 2.000e-01 2.000e-01 -1.009e-03 -1.296e-03 1.621e-04
63 1 0.000e+00 -2.000e-01 2.000e-01 3.592e-04 1.106e-03 -3.186e-04
64 1 2.000e-01 2.000e-01 0.000e+00 -6.214e-05 1.143e-04 1.508e-03
ITEM: TIMESTEP
0
ITEM: NUMBER OF ATOMS
32
ITEM: BOX BOUNDS xy xz yz pp pp pp
                     -5.00000000000000e-01 5.00000000000000e-01 0.00000000000000e+00
-5.00000000000000e-01	5.00000000000000e-01	0.00000000000000e+00
-5.00000000000000e-01	5.00000000000000e-01	0.00000000000000e+00
ITEM: ATOMS id type x y z DisplacementX DisplacementY DisplacementZ
65 1 0.000e+00 2.000e-01 0.000e+00 8.846e-04 1.280e-03 9.870e-04
66 1 -2.000e-01 -2.000e-01 0.000e+00 -2.042e-03 1.069e-03 4.324e-04
67 1 0.000e+00 0.000e+00 -2.000e-01 3.247e-04 2.425e-04 1.723e-03
68 1 -2.000e-01 2.000e-01 -2.000e-01 -5.728e-04 -6.594e-04 2.115e-03
69 1 2.000e-01 2.000e-01 0.000e+00 4.594e-04 -9.429e-04 1.838e-04
70 1 2.000e-01 2.000e-01 -2.000e-01 -3.123e-04 5.467e-04 -1.334e-03
71 1 -2.000e-01 0.000e+00 0.000e+00 5.407e-04 -2.217e-04 -4.991e-04
72 1 -2.000e-01 2.000e-01 2.000e-01 1.053e-03 -5.382e-04 -4.761e-04
73 1 0.000e+00 -2.000e-01 2.000e-01 -1.781e-03 -8.735e-04 1.296e-03
74 1 2.000e-01 -2.000e-01 -2.000e-01 6.991e-04 7.771e-04 4.898e-04
75 1 -2.000e-01 0.000e+00 2.000e-01 -3.068e-04 -1.729e-03 1.297e-03
76 1 2.000e-01 2.000e-01 2.000e-01 7.641e-04 -2.477e-03 -3.876e-04
77 1 0.000e+00 0.000e+00 0.000e+00 -6.594e-04 1.667e-04 2.003e-01
78 1 0.000e+00 0.000e+00 -4.000e-01 1.023e-03 -9.398e-04 -1.740e-04
79 1 4.000e-01 0.000e+00 0.000e+00 1.066e-03 -4.986e-04 -3.750e-04
80 1 -2.000e-01 -2.000e-01 2.000e-01 4.208e-04 -2.960e-04 8.271e-04
81 1 2.000e-01 -2.000e-01 2.000e-01 -9.988e-04 1.282e-03 6.358e-04
82 1 0.000e+00 0.000e+00 4.000e-01 8.996e-04 5.858e-04 -1.251e-03
83 1 2.000e-01 0.000e+00 0.000e+00 5.948e-05 -1.065e-03 -4.933e-04
84 1 2.000e-01 -2.000e-01 0.000e+00 1.671e-04 -1.552e-03 2.456e-04
85 1 2.000e-01 0.000e+00 2.000e-01 6.546e-04 1.103e-03 2.014e-04
86 1 -2.000e-01 -2.000e-01 -2.000e-01 -2.184e-04 5.891e-04 -3.971e-04
87 1 -4.000e-01 0.000e+00 0.000e+00 -8.235e-04 -1.330e-03 2.342e-04
88 1 0.000e+00 -2.000e-01 -2.000e-01 -4.964e-04 1.212e-04 -3.876e-04
89 1 -2.000e-01 2.000e-01 0.000e+00 1.483e-03 2.005e-03 -6.557e-04
90 1 -2.000e-01 0.000e+00 -2.000e-01 1.580e-04 -6.762e-04 -3.171e-04
91 1 0.000e+00 -4.000e-01 0.000e+00 1.869e-03 -1.444e-03 3.931e-04
92 1 0.000e+00 2.000e-01 -2.000e-01 1.810e-04 2.898e-03 7.744e-04
93 1 0.000e+00 -2.000e-01 0.000e+00 2.486e-03 7.682e-04 -7.142e-04
94 1 2.000e-01 0.000e+00 -2.000e-01 4.528e-04 4.165e-04 8.905e-04
95 1 0.000e+00 4.000e-01 0.000e+00 2.181e-04 2.175e-03 -1.202e-03
96 1 0.000e+00 2.000e-01 2.000e-01 1.010e-04 2.759e-06 -4.084e-04
ITEM: TIMESTEP
0
ITEM: NUMBER OF ATOMS
32
ITEM: BOX BOUNDS xy xz yz pp pp pp
                     -5.00000000000000e-01 5.00000000000000e-01 0.00000000000000e+00
-5.00000000000000e-01	5.00000000000000e-01	0.00000000000000e+00
-5.00000000000000e-01	5.00000000000000e-01	0.00000000000000e+00
ITEM: ATOMS id type x y z DisplacementX DisplacementY DisplacementZ
97 1 -2.000e-01 0.000e+00 0.000e+00 2.627e-03 2.173e-03 -1.640e-04
98 1 0.000e+00 -2.000e-01 0.000e+00 1.115e-04 6.848e-04 7.467e-04
99 1 0.000e+00 0.000e+00 4.000e-01 -3.950e-04 1.014e-03 5.044e-04
100 1 -2.000e-01 2.000e-01 2.000e-01 -6.271e-04 1.309e-04 -1.384e-03
101 1 -2.000e-01 2.000e-01 0.000e+00 3.065e-04 -2.895e-04 -2.293e-04
102 1 -2.000e-01 2.000e-01 -2.000e-01 1.085e-03 7.371e-04 -2.688e-06
103 1 0.000e+00 -2.000e-01 -2.000e-01 -5.094e-04 -1.076e-03 -5.535e-04
104 1 -2.000e-01 0.000e+00 -2.000e-01 -5.290e-04 -4.450e-04 6.570e-05
105 1 2.000e-01 2.000e-01 -2.000e-01 1.146e-03 -1.131e-03 4.921e-04
106 1 0.000e+00 0.000e+00 -4.000e-01 -1.116e-03 -2.676e-04 -6.064e-04
107 1 -2.000e-01 -2.000e-01 2.000e-01 3.379e-05 -1.116e-03 3.487e-04
108 1 2.000e-01 -2.000e-01 2.000e-01 2.886e-04 1.810e-03 1.081e-03
109 1 0.000e+00 0.000e+00 2.000e-01 -3.780e-04 -1.266e-03 4.468e-04
110 1 2.000e-01 -2.000e-01 0.000e+00 5.979e-04 7.280e-04 5.197e-04
111 1 2.000e-01 2.000e-01 2.000e-01 1.032e-03 -9.910e-05 -3.781e-04
112 1 -2.000e-01 -2.000e-01 -2.000e-01 6.975e-04 -1.107e-03 4.923e-04
113 1 2.000e-01 -2.000e-01 -2.000e-01 1.169e-04 -1.927e-03 5.443e-04
114 1 0.000e+00 0.000e+00 0.000e+00 -1.038e-03 8.776e-04 -1.995e-01
115 1 2.000e-01 0.000e+00 0.000e+00 7.378e-04 -1.149e-03 5.281e-04
116 1 -4.000e-01 0.000e+00 0.000e+00 -1.242e-03 2.898e-04 3.599e-04
117 1 -2.000e-01 0.000e+00 2.000e-01 2.419e-06 5.245e-04 -7.070e-04
118 1 2.000e-01 0.000e+00 -2.000e-01 -4.519e-04 5.933e-06 -8.798e-04
119 1 0.000e+00 -2.000e-01 2.000e-01 -7.718e-04 -3.235e-04 1.343e-03
120 1 0.000e+00 2.000e-01 2.000e-01 4.123e-04 3.188e-04 3.824e-04
121 1 0.000e+00 2.000e-01 0.000e+00 -1.278e-03 -2.678e-04 2.400e-04
122 1 2.000e-01 0.000e+00 2.000e-01 -1.572e-03 -1.137e-03 9.136e-04
123 1 4.000e-01 0.000e+00 0.000e+00 -1.560e-03 1.256e-03 -5.412e-04
124 1 0.000e+00 -4.000e-01 0.000e+00 1.292e-03 2.397e-04 -3.219e-04
125 1 0.000e+00 4.000e-01 0.000e+00 1.596e-03 1.248e-03 -3.731e-04
126 1 -2.000e-01 -2.000e-01 0.000e+00 6.561e-04 7.984e-04 7.267e-04
127 1 2.000e-01 2.000e-01 0.000e+00 -1.349e-03 1.209e-03 -2.054e-04
128 1 0.000e+00 2.000e-01 -2.000e-01 -1.010e-04 2.243e-03 -7.613e-04
ITEM: TIMESTEP
0
ITEM: NUMBER OF ATOMS
32
ITEM: BOX BOUNDS xy xz yz pp pp pp
                     -5.00000000000000e-01 5.00000000000000e-01 0.00000000000000e+00
-5.00000000000000e-01	5.00000000000000e-01	0.00000000000000e+00
-5.00000000000000e-01	5.00000000000000e-01	0.00000000000000e+00
ITEM: ATOMS id type x y z DisplacementX DisplacementY DisplacementZ
129 1 -2.000e-01 2.000e-01 -2.000e-01 1.492e-03 -7.909e-04 -1.237e-03
130 1 -2.000e-01 -2.000e-01 2.000e-01 7.031e-04 -5.244e-04 -6.249e-04
131 1 0.000e+00 4.000e-01 0.000e+00 7.437e-04 -1.970e-03 -7.311e-04
132 1 0.000e+00 2.000e-01 -2.000e-01 -1.523e-03 1.673e-03 -7.275e-05
133 1 2.000e-01 -2.000e-01 0.000e+00 1.262e-03 -3.184e-04 -1.235e-03
134 1 -2.000e-01 -2.000e-01 0.000e+00 -9.169e-04 -1.461e-03 -9.905e-04
135 1 -4.000e-01 0.000e+00 0.000e+00 2.140e-04 5.544e-04 -4.626e-04
136 1 0.000e+00 2.000e-01 0.000e+00 7.907e-04 -5.267e-04 3.452e-04
137 1 -2.000e-01 0.000e+00 -2.000e-01 6.269e-04 -7.735e-04 -1.702e-03
138 1 0.000e+00 -2.000e-01 2.000e-01 -1.225e-04 -1.876e-04 -1.088e-03
139 1 2.000e-01 2.000e-01 -2.000e-01 -7.057e-04 -1.086e-03 -6.317e-04
140 1 2.000e-01 -2.000e-01 2.000e-01 -2.050e-04 1.440e-03 1.085e-03
141 1 2.000e-01 0.000e+00 -2.000e-01 -1.980e-04 -1.452e-03 9.666e-04
142 1 4.000e-01 0.000e+00 0.000e+00 9.210e-04 2.640e-04 8.054e-04
143 1 2.000e-01 2.000e-01 2.000e-01 4.804e-06 -1.021e-03 3.194e-04
144 1 0.000e+00 -4.000e-01 0.000e+00 2.634e-03 -6.736e-04 3.390e-04
145 1 2.000e-01 -2.000e-01 -2.000e-01 -2.081e-03 2.054e-03 -2.262e-04
146 1 0.000e+00 -2.000e-01 0.000e+00 5.524e-04 6.326e-04 1.464e-03
147 1 -2.000e-01 0.000e+00 2.000e-01 9.226e-04 1.541e-03 3.720e-04
148 1 0.000e+00 0.000e+00 -2.000e-01 6.995e-04 -1.424e-03 -4.639e-04
149 1 0.000e+00 0.000e+00 2.000e-01 -2.808e-04 -1.453e-04 1.289e-05
150 1 0.000e+00 -2.000e-01 -2.000e-01 -8.243e-04 -7.817e-04 4.451e-04
151 1 0.000e+00 0.000e+00 0.000e+00 -1.990e-01 -4.226e-04 -4.794e-04
152 1 2.000e-01 0.000e+00 0.000e+00 1.219e-04 -6.987e-04 5.488e-04
153 1 2.000e-01 2.000e-01 0.000e+00 3.231e-04 3.505e-04 -1.054e-03
154 1 -2.000e-01 -2.000e-01 -2.000e-01 -2.442e-05 -7.527e-04 -9.966e-04
155 1 0.000e+00 0.000e+00 -4.000e-01 8.263e-04 -1.365e-03 1.842e-03
156 1 -2.000e-01 2.000e-01 2.000e-01 -1.738e-03 -7.591e-04 4.957e-04
157 1 0.000e+00 0.000e+00 4.000e-01 1.468e-03 -1.540e-03 -6.861e-04
158 1 2.000e-01 0.000e+00 2.000e-01 -4.840e-04 -7.311e-04 -1.821e-03
159 1 0.000e+00 2.000e-01 2.000e-01 -3.950e-04 2.899e-03 -1.116e-03
160 1 -2.000e-01 2.000e-01 0.000e+00 9.728e-05 -9.197e-04 4.122e-04
ITEM: TIMESTEP
0
ITEM: NUMBER OF ATOMS
32
ITEM: BOX BOUNDS xy xz yz pp pp pp
                     -5.00000000000000e-01 5.00000000000000e-01 0.00000000000000e+00
-5.00000000000000e-01	5.00000000000000e-01	0.00000000000000e+00
-5.00000000000000e-01	5.00000000000000e-01	0.00000000000000e+00
ITEM: ATOMS id type x y z DisplacementX DisplacementY DisplacementZ
161 1 0.000e+00 0.000e+00 -2.000e-01 6.313e-04 -5.050e-04 -1.531e-04
162 1 -2.000e-01 -2.000e-01 2.000e-01 -6.370e-04 -1.203e-03 -8.673e-04
163 1 0.000e+00 4.000e-01 0.000e+00 7.923e-04 5.342e-04 2.717e-03
164 1 2.000e-01 2.000e-01 2.000e-01 -9.317e-04 4.399e-04 -5.451e-04
165 1 2.000e-01 2.000e-01 -2.000e-01 -3.611e-04 5.450e-04 1.243e-03
166 1 2.000e-01 2.000e-01 0.000e+00 1.746e-04 -1.028e-03 -1.128e-03
167 1 0.000e+00 2.000e-01 0.000e+00 8.358e-04 -4.390e-04 6.770e-05
168 1 2.000e-01 0.000e+00 -2.000e-01 8.715e-04 -1.508e-03 -3.279e-04
169 1 -2.000e-01 -2.000e-01 -2.000e-01 -1.016e-04 1.623e-03 -1.822e-03
170 1 -2.000e-01 0.000e+00 2.000e-01 1.568e-03 -3.694e-04 6.698e-04
171 1 -2.000e-01 0.000e+00 0.000e+00 5.805e-05 -1.081e-03 -5.101e-04
172 1 -2.000e-01 2.000e-01 2.000e-01 -8.729e-04 2.819e-04 -1.157e-03
173 1 0.000e+00 -4.000e-01 0.000e+00 9.370e-04 -4.608e-04 -4.189e-04
174 1 -2.000e-01 -2.000e-01 0.000e+00 1.193e-03 1.169e-04 -8.196e-04
175 1 -2.000e-01 2.000e-01 0.000e+00 8.142e-04 -2.615e-05 1.043e-03
176 1 2.000e-01 0.000e+00 0.000e+00 -2.045e-03 -3.663e-04 1.511e-03
177 1 0.000e+00 -2.000e-01 -2.000e-01 -1.557e-03 -2.441e-03 -4.694e-04
178 1 -4.000e-01 0.000e+00 0.000e+00 -3.433e-04 -4.442e-04 -2.516e-04
179 1 0.000e+00 -2.000e-01 2.000e-01 9.583e-06 -2.623e-04 -3.562e-04
180 1 2.000e-01 -2.000e-01 -2.000e-01 -1.379e-04 1.535e-03 -1.580e-03
181 1 2.000e-01 -2.000e-01 2.000e-01 9.281e-04 8.793e-04 -7.117e-05
182 1 2.000e-01 -2.000e-01 0.000e+00 -1.795e-03 -3.016e-04 -2.619e-03
183 1 4.000e-01 0.000e+00 0.000e+00 1.617e-03 5.742e-04 1.727e-04
184 1 -2.000e-01 2.000e-01 -2.000e-01 1.103e-03 4.614e-04 -1.358e-04
185 1 -2.000e-01 0.000e+00 -2.000e-01 -1.849e-03 1.016e-03 4.405e-04
186 1 0.000e+00 0.000e+00 -4.000e-01 -1.460e-03 -6.738e-04 -1.233e-03
187 1 0.000e+00 0.000e+00 4.000e-01 -5.697e-04 -2.207e-04 1.060e-04
188 1 0.000e+00 0.000e+00 2.000e-01 -1.016e-03 -3.441e-04 -2.848e-04
189 1 0.000e+00 2.000e-01 2.000e-01 1.764e-04 1.106e-03 1.486e-04
190 1 0.000e+00 2.000e-01 -2.000e-01 -1.789e-03 9.475e-04 3.489e-04
191 1 2.000e-01 0.000e+00 2.000e-01 3.982e-04 7.961e-04 1.665e-03
192 1 0.000e+00 0.000e+00 0.000e+00 -1.547e-03 -2.010e-01 -1.063e-03
ITEM: TIMESTEP
0
ITEM: NUMBER OF ATOMS
32
ITEM: BOX BOUNDS xy xz yz pp pp pp
                     -5.00000000000000e-01 5.00000000000000e-01 0.00000000000000e+00
-5.00000000000000e-01	5.00000000000000e-01	0.00000000000000e+00
-5.00000000000000e-01	5.00000000000000e-01	0.00000000000000e+00
ITEM: ATOMS id type x y z DisplacementX DisplacementY DisplacementZ
193 1 0.000e+00 -2.000e-01 0.000e+00 -9.210e-04 -4.391e-04 1.971e-03
194 1 -2.000e-01 -2.000e-01 0.000e+00 7.851e-04 2.611e-04 -4.037e-04
195 1 2.000e-01 -2.000e-01 0.000e+00 -9.078e-05 -8.964e-04 -1.864e-04
196 1 0.000e+00 0.000e+00 0.000e+00 5.650e-04 2.010e-01 1.051e-04
197 1 -2.000e-01 2.000e-01 -2.000e-01 1.936e-03 -3.233e-04 -3.816e-04
198 1 0.000e+00 -4.000e-01 0.000e+00 8.406e-04 -1.283e-03 -5.485e-04
199 1 4.000e-01 0.000e+00 0.000e+00 -6.404e-05 -1.071e-03 -8.586e-04
200 1 -2.000e-01 2.000e-01 2.000e-01 2.112e-03 3.348e-03 -1.141e-03
201 1 2.000e-01 0.000e+00 -2.000e-01 8.002e-04 -1.915e-04 -1.659e-03
202 1 -2.000e-01 0.000e+00 -2.000e-01 -6.751e-04 6.863e-04 4.659e-04
203 1 0.000e+00 2.000e-01 -2.000e-01 1.008e-03 5.569e-04 6.284e-04
204 1 2.000e-01 2.000e-01 -2.000e-01 -2.878e-04 -2.446e-03 -1.538e-04
205 1 2.000e-01 2.000e-01 2.000e-01 3.436e-04 -1.221e-03 -1.538e-03
206 1 2.000e-01 -2.000e-01 2.000e-01 -8.833e-05 -2.148e-04 5.827e-04
207 1 2.000e-01 0.000e+00 0.000e+00 1.022e-03 -9.852e-04 -8.452e-04
208 1 -2.000e-01 0.000e+00 0.000e+00 -1.026e-03 9.523e-04 -5.820e-04
209 1 2.000e-01 2.000e-01 0.000e+00 1.276e-03 -4.894e-04 -6.999e-04
210 1 0.000e+00 -2.000e-01 -2.000e-01 6.509e-04 1.160e-03 3.630e-04
211 1 0.000e+00 -2.000e-01 2.000e-01 -3.392e-04 -4.926e-04 1.450e-03
212 1 0.000e+00 4.000e-01 0.000e+00 -2.058e-03 1.527e-03 -2.994e-03
213 1 -2.000e-01 2.000e-01 0.000e+00 -1.710e-03 -1.093e-03 6.251e-04
214 1 0.000e+00 0.000e+00 -2.000e-01 -5.550e-04 7.251e-04 7.228e-05
215 1 -2.000e-01 -2.000e-01 -2.000e-01 -9.372e-04 1.248e-03 -8.250e-04
216 1 2.000e-01 0.000e+00 2.000e-01 6.348e-04 -1.887e-03 -2.101e-04
217 1 0.000e+00 0.000e+00 4.000e-01 -5.711e-04 -1.354e-03 -1.912e-04
218 1 0.000e+00 2.000e-01 2.000e-01 -1.803e-03 7.256e-04 -1.808e-04
219 1 0.000e+00 0.000e+00 -4.000e-01 -9.420e-04 -2.498e-03 1.066e-04
220 1 -4.000e-01 0.000e+00 0.000e+00 -6.736e-04 -3.298e-04 2.798e-04
221 1 0.000e+00 0.000e+00 2.000e-01 2.059e-03 1.792e-03 -3.707e-04
222 1 -2.000e-01 0.000e+00 2.000e-01 -8.276e-04 5.695e-04 2.440e-04
223 1 2.000e-01 -2.000e-01 -2.000e-01 8.571e-04 -1.216e-03 5.251e-04
224 1 -2.000e-01 -2.000e-01 2.000e-01 5.623e-04 2.051e-04 -1.019e-04
ITEM: TIMESTEP
0
ITEM: NUMBER OF ATOMS
32
ITEM: BOX BOUNDS xy xz yz pp pp pp
                     -5.00000000000000e-01 5.00000000000000e-01 0.00000000000000e+00
-5.00000000000000e-01	5.00000000000000e-01	0.00000000000000e+00
-5.00000000000000e-01	5.00000000000000e-01	0.00000000000000e+00
ITEM: ATOMS id type x y z DisplacementX DisplacementY DisplacementZ
225 1 4.000e-01 0.000e+00 0.000e+00 6.804e-04 8.900e-04 -1.136e-03
226 1 0.000e+00 -2.000e-01 2.000e-01 1.121e-03 -1.668e-04 1.680e-03
227 1 -2.000e-01 0.000e+00 0.000e+00 1.867e-04 -5.432e-04 8.485e-04
228 1 2.000e-01 2.000e-01 2.000e-01 1.099e-03 -1.551e-03 1.090e-03
229 1 2.000e-01 -2.000e-01 -2.000e-01 -8.190e-05 -1.698e-04 -1.368e-03
230 1 2.000e-01 0.000e+00 -2.000e-01 9.547e-04 1.730e-03 -1.672e-03
231 1 0.000e+00 2.000e-01 0.000e+00 -1.611e-03 1.724e-03 -1.443e-03
232 1 -2.000e-01 2.000e-01 -2.000e-01 1.961e-03 4.942e-04 7.635e-05
233 1 2.000e-01 -2.000e-01 0.000e+00 1.497e-03 -6.227e-04 1.216e-03
234 1 -2.000e-01 -2.000e-01 0.000e+00 8.646e-04 9.731e-04 9.665e-04
235 1 0.000e+00 0.000e+00 0.000e+00 4.009e-04 3.074e-05 2.015e-01
236 1 2.000e-01 0.000e+00 0.000e+00 -1.474e-03 1.299e-03 -1.400e-03
237 1 -4.000e-01 0.000e+00 0.000e+00 3.379e-04 4.761e-04 3.514e-04
238 1 2.000e-01 -2.000e-01 2.000e-01 -7.418e-04 -1.734e-03 -9.724e-04
239 1 0.000e+00 4.000e-01 0.000e+00 -4.215e-05 -2.126e-04 1.900e-03
240 1 -2.000e-01 2.000e-01 2.000e-01 -2.486e-04 2.802e-03 2.866e-04
241 1 -2.000e-01 -2.000e-01 2.000e-01 -6.729e-04 -1.093e-03 1.129e-03
242 1 2.000e-01 0.000e+00 2.000e-01 -6.253e-04 -6.239e-04 1.258e-04
243 1 2.000e-01 2.000e-01 -2.000e-01 2.085e-03 -1.222e-03 -6.547e-04
244 1 0.000e+00 -4.000e-01 0.000e+00 1.406e-03 -1.455e-04 -2.863e-04
245 1 0.000e+00 0.000e+00 -2.000e-01 -2.222e-04 -2.984e-04 -2.185e-03
246 1 -2.000e-01 -2.000e-01 -2.000e-01 1.425e-03 1.234e-03 9.761e-04
247 1 -2.000e-01 2.000e-01 0.000e+00 1.838e-03 -5.900e-04 -5.017e-04
248 1 0.000e+00 2.000e-01 2.000e-01 -1.505e-04 -1.619e-03 -2.297e-03
249 1 0.000e+00 0.000e+00 -4.000e-01 -1.100e-03 -6.266e-04 6.598e-04
250 1 -2.000e-01 0.000e+00 2.000e-01 -1.842e-03 -8.399e-05 5.500e-08
251 1 0.000e+00 -2.000e-01 0.000e+00 -1.447e-03 -9.548e-04 4.776e-04
252 1 0.000e+00 0.000e+00 4.000e-01 -2.165e-03 -1.229e-03 -5.239e-04
253 1 0.000e+00 -2.000e-01 -2.000e-01 -2.968e-04 -1.173e-03 -1.531e-05
254 1 2.000e-01 2.000e-01 0.000e+00 -2.146e-03 7.228e-04 3.312e-06
255 1 0.000e+00 2.000e-01 -2.000e-01 -4.477e-04 4.675e-04 -1.737e-03
256 1 -2.000e-01 0.000e+00 -2.000e-01 -4.687e-04 1.292e-04 5.704e-04
ITEM: TIMESTEP
0
ITEM: NUMBER OF ATOMS
32
ITEM: BOX BOUNDS xy xz yz pp pp pp
                     -5.00000000000000e-01 5.00000000000000e-01 0.00000000000000e+00
-5.00000000000000e-01	5.00000000000000e-01	0.00000000000000e+00
-5.00000000000000e-01	5.00000000000000e-01	0.00000000000000e+00
ITEM: ATOMS id type x y z DisplacementX DisplacementY DisplacementZ
257 1 2.000e-01 0.000e+00 -2.000e-01 1.266e-03 -1.689e-04 -4.125e-04
258 1 2.000e-01 0.000e+00 0.000e+00 1.288e-04 -3.368e-04 4.344e-04
259 1 0.000e+00 -4.000e-01 0.000e+00 2.190e-04 -7.407e-04 -6.222e-04
260 1 -2.000e-01 -2.000e-01 0.000e+00 1.074e-03 1.637e-03 4.589e-04
261 1 4.000e-01 0.000e+00 0.000e+00 -5.536e-04 8.538e-04 -1.523e-04
262 1 -2.000e-01 2.000e-01 2.000e-01 1.043e-03 -3.436e-04 1.211e-03
263 1 0.000e+00 2.000e-01 0.000e+00 -4.297e-04 6.387e-04 -2.984e-04
264 1 0.000e+00 0.000e+00 -4.000e-01 -1.830e-04 -1.349e-03 -5.031e-04
265 1 2.000e-01 -2.000e-01 0.000e+00 1.436e-04 -1.011e-03 4.957e-04
266 1 -2.000e-01 2.000e-01 -2.000e-01 -2.036e-03 -2.554e-06 -3.965e-04
267 1 0.000e+00 -2.000e-01 -2.000e-01 -5.442e-05 8.901e-04 -5.183e-04
268 1 2.000e-01 0.000e+00 2.000e-01 -5.754e-04 1.766e-03 -1.218e-03
269 1 2.000e-01 -2.000e-01 -2.000e-01 -3.783e-04 1.549e-03 6.461e-04
270 1 -2.000e-01 0.000e+00 -2.000e-01 7.768e-04 4.393e-04 -2.600e-04
271 1 0.000e+00 0.000e+00 -2.000e-01 -9.883e-04 -2.084e-03 7.609e-04
272 1 0.000e+00 0.000e+00 2.000e-01 4.687e-04 1.980e-03 1.034e-03
273 1 0.000e+00 -2.000e-01 0.000e+00 8.395e-04 5.709e-05 -6.433e-04
274 1 2.000e-01 -2.000e-01 2.000e-01 -1.048e-04 9.960e-04 -9.591e-06
275 1 0.000e+00 0.000e+00 0.000e+00 -2.002e-01 5.375e-04 1.060e-03
276 1 2.000e-01 2.000e-01 2.000e-01 -2.503e-04 -8.444e-04 1.400e-03
277 1 0.000e+00 2.000e-01 2.000e-01 -2.051e-03 -6.964e-04 1.029e-03
278 1 -2.000e-01 2.000e-01 0.000e+00 1.955e-03 -1.540e-03 -5.788e-04
279 1 -4.000e-01 0.000e+00 0.000e+00 -7.280e-04 -8.382e-05 -5.589e-05
280 1 -2.000e-01 -2.000e-01 -2.000e-01 -9.418e-04 -3.384e-05 1.115e-05
281 1 0.000e+00 -2.000e-01 2.000e-01 1.234e-03 3.476e-05 4.814e-04
282 1 -2.000e-01 0.000e+00 2.000e-01 1.729e-04 -5.756e-04 5.248e-04
283 1 2.000e-01 2.000e-01 -2.000e-01 -1.563e-03 5.565e-04 1.470e-03
284 1 -2.000e-01 -2.000e-01 2.000e-01 -1.741e-03 1.871e-04 -2.744e-05
285 1 2.000e-01 2.000e-01 0.000e+00 -2.846e-04 -2.503e-04 6.501e-04
286 1 0.000e+00 2.000e-01 -2.000e-01 -3.001e-06 -1.299e-03 -1.096e-03
287 1 0.000e+00 4.000e-01 0.000e+00 6.160e-04 6.619e-04 1.530e-03
288 1 0.000e+00 0.000e+00 4.000e-01 8.733e-04 9.303e-04 2.721e-04
ITEM: TIMESTEP
0
ITEM: NUMBER OF ATOMS
32
ITEM: BOX BOUNDS xy xz yz pp pp pp
                     -5.00000000000000e-01 5.00000000000000e-01 0.00000000000000e+00
-5.00000000000000e-01	5.00000000000000e-01	0.00000000000000e+00
-5.00000000000000e-01	5.00000000000000e-01	0.00000000000000e+00
ITEM: ATOMS id type x y z DisplacementX DisplacementY DisplacementZ
289 1 0.000e+00 4.000e-01 0.000e+00 -7.069e-04 -2.146e-03 1.517e-03
290 1 0.000e+00 -4.000e-01 0.000e+00 -1.925e-04 -3.271e-05 -4.800e-04
291 1 -2.000e-01 -2.000e-01 -2.000e-01 -1.430e-03 -9.919e-04 -1.443e-03
292 1 0.000e+00 0.000e+00 2.000e-01 -9.564e-04 -6.643e-04 1.219e-04
293 1 0.000e+00 2.000e-01 0.000e+00 -9.208e-04 1.622e-04 -1.180e-03
294 1 2.000e-01 0.000e+00 0.000e+00 1.282e-03 4.972e-04 -1.607e-03
295 1 0.000e+00 0.000e+00 -2.000e-01 -2.779e-05 4.615e-04 5.352e-04
296 1 -2.000e-01 -2.000e-01 2.000e-01 -1.475e-03 -3.959e-04 -8.360e-04
297 1 0.000e+00 2.000e-01 2.000e-01 2.826e-04 -8.986e-04 9.971e-04
298 1 0.000e+00 -2.000e-01 -2.000e-01 -7.558e-04 -1.018e-05 -1.160e-03
299 1 2.000e-01 -2.000e-01 -2.000e-01 7.602e-04 5.630e-04 -8.555e-04
300 1 2.000e-01 -2.000e-01 2.000e-01 2.764e-04 1.512e-03 9.815e-04
301 1 0.000e+00 2.000e-01 -2.000e-01 6.368e-04 -1.883e-03 5.308e-05
302 1 -2.000e-01 0.000e+00 0.000e+00 3.197e-04 -6.503e-04 -1.072e-04
303 1 2.000e-01 -2.000e-01 0.000e+00 -7.983e-04 -9.506e-04 4.395e-04
304 1 2.000e-01 0.000e+00 2.000e-01 -9.903e-04 1.743e-04 -1.871e-04
305 1 2.000e-01 2.000e-01 -2.000e-01 7.434e-05 1.469e-03 9.135e-04
306 1 2.000e-01 2.000e-01 2.000e-01 -3.987e-04 -5.128e-04 -2.780e-03
307 1 -2.000e-01 0.000e+00 -2.000e-01 9.626e-04 -4.235e-04 1.485e-03
308 1 0.000e+00 0.000e+00 0.000e+00 1.934e-03 -2.002e-01 9.234e-05
309 1 -2.000e-01 2.000e-01 0.000e+00 -2.753e-04 -7.657e-04 -1.365e-03
310 1 -2.000e-01 -2.000e-01 0.000e+00 1.578e-03 -1.636e-03 5.067e-04
311 1 -2.000e-01 0.000e+00 2.000e-01 8.200e-04 6.223e-04 6.262e-04
312 1 0.000e+00 0.000e+00 4.000e-01 1.326e-03 -3.307e-04 2.164e-04
313 1 -2.000e-01 2.000e-01 -2.000e-01 -1.119e-03 1.366e-03 -1.009e-03
314 1 0.000e+00 -2.000e-01 2.000e-01 3.781e-04 -1.484e-03 9.417e-05
315 1 4.000e-01 0.000e+00 0.000e+00 1.157e-03 9.109e-04 3.719e-05
316 1 2.000e-01 0.000e+00 -2.000e-01 -5.472e-04 4.453e-04 1.228e-03
317 1 -2.000e-01 2.000e-01 2.000e-01 -1.452e-03 -1.399e-03 -2.085e-03
318 1 0.000e+00 0.000e+00 -4.000e-01 -2.272e-04 2.122e-03 1.379e-03
319 1 2.000e-01 2.000e-01 0.000e+00 9.831e-04 1.703e-03 1.445e-03
320 1 -4.000e-01 0.000e+00 0.000e+00 2.499e-04 -8.572e-04 8.913e-04
ITEM: TIMESTEP
0
ITEM: NUMBER OF ATOMS
32
ITEM: BOX BOUNDS xy xz yz pp pp pp
                     -5.00000000000000e-01 5.00000000000000e-01 0.00000000000000e+00
-5.00000000000000e-01	5.00000000000000e-01	0.00000000000000e+00
-5.00000000000000e-01	5.00000000000000e-01	0.00000000000000e+00
ITEM: ATOMS id type x y z DisplacementX DisplacementY DisplacementZ
321 1 0.000e+00 -4.000e-01 0.000e+00 1.031e-03 1.302e-03 4.167e-04
322 1 -4.000e-01 0.000e+00 0.000e+00 -3.112e-06 -1.165e-03 -2.764e-04
323 1 2.000e-01 -2.000e-01 0.000e+00 -7.943e-04 -1.579e-03 4.069e-04
324 1 0.000e+00 0.000e+00 -2.000e-01 -9.624e-04 -1.380e-04 6.575e-04
325 1 -2.000e-01 0.000e+00 0.000e+00 1.555e-03 6.415e-04 -1.303e-03
326 1 2.000e-01 2.000e-01 2.000e-01 -8.108e-05 -3.448e-04 8.868e-05
327 1 2.000e-01 2.000e-01 -2.000e-01 6.756e-05 -1.488e-03 3.261e-04
328 1 0.000e+00 0.000e+00 2.000e-01 -6.826e-04 1.512e-03 -3.143e-03
329 1 -2.000e-01 0.000e+00 2.000e-01 3.133e-05 1.123e-03 2.278e-03
330 1 0.000e+00 -2.000e-01 -2.000e-01 -1.306e-03 -5.460e-04 4.282e-04
331 1 2.000e-01 0.000e+00 -2.000e-01 -6.556e-04 9.552e-04 1.394e-04
332 1 -2.000e-01 0.000e+00 -2.000e-01 -2.085e-03 -1.483e-03 1.788e-04
333 1 -2.000e-01 -2.000e-01 -2.000e-01 -1.602e-03 1.106e-03 4.365e-04
334 1 0.000e+00 0.000e+00 4.000e-01 1.117e-03 -1.857e-04 4.318e-04
335 1 -2.000e-01 -2.000e-01 2.000e-01 7.082e-05 4.331e-04 -9.203e-04
336 1 0.000e+00 2.000e-01 0.000e+00 -1.390e-03 -3.550e-04 5.133e-04
337 1 0.000e+00 -2.000e-01 0.000e+00 6.004e-04 -2.106e-04 1.502e-04
338 1 4.000e-01 0.000e+00 0.000e+00 4.002e-04 2.208e-03 -6.126e-04
339 1 -2.000e-01 2.000e-01 2.000e-01 2.139e-03 -4.610e-05 -2.629e-04
340 1 0.000e+00 2.000e-01 -2.000e-01 -7.630e-04 -1.328e-03 -5.274e-04
341 1 2.000e-01 2.000e-01 0.000e+00 1.288e-03 -1.894e-03 -1.011e-03
342 1 0.000e+00 4.000e-01 0.000e+00 -2.542e-04 -9.396e-04 1.551e-03
343 1 0.000e+00 0.000e+00 0.000e+00 1.980e-01 9.515e-04 -6.905e-04
344 1 2.000e-01 -2.000e-01 -2.000e-01 7.396e-04 8.760e-04 2.226e-04
345 1 0.000e+00 2.000e-01 2.000e-01 -2.909e-04 2.463e-04 -2.548e-04
346 1 2.000e-01 0.000e+00 2.000e-01 -7.717e-04 -5.130e-04 1.174e-03
347 1 -2.000e-01 -2.000e-01 0.000e+00 -9.708e-04 -4.197e-04 1.020e-03
348 1 -2.000e-01 2.000e-01 -2.000e-01 4.576e-04 -1.538e-04 1.314e-03
349 1 2.000e-01 -2.000e-01 2.000e-01 1.291e-03 3.267e-04 9.211e-04
350 1 0.000e+00 -2.000e-01 2.000e-01 1.032e-03 -8.864e-05 5.352e-04
351 1 0.000e+00 0.000e+00 -4.000e-01 2.640e-04 -1.490e-03 7.581e-04
352 1 -2.000e-01 2.000e-01 0.000e+00 2.500e-04 -9.600e-04 -2.844e-04
ITEM: TIMESTEP
0
ITEM: NUMBER OF ATOMS
32
ITEM: BOX BOUNDS xy xz yz pp pp pp
                     -5.00000000000000e-01 5.00000000000000e-01 0.00000000000000e+00
-5.00000000000000e-01	5.00000000000000e-01	0.00000000000000e+00
-5.00000000000000e-01	5.00000000000000e-01	0.00000000000000e+00
ITEM: ATOMS id type x y z DisplacementX DisplacementY DisplacementZ
353 1 0.000e+00 -2.000e-01 -2.000e-01 -1.222e-03 4.221e-04 -6.223e-04
354 1 0.000e+00 2.000e-01 0.000e+00 -1.140e-03 9.546e-04 2.065e-03
355 1 2.000e-01 2.000e-01 -2.000e-01 -1.515e-03 -1.763e-03 7.726e-04
356 1 -2.000e-01 0.000e+00 0.000e+00 -1.463e-03 -2.170e-03 6.220e-04
357 1 -4.000e-01 0.000e+00 0.000e+00 -1.479e-03 -1.666e-04 -8.910e-04
358 1 4.000e-01 0.000e+00 0.000e+00 -4.596e-04 -8.335e-05 -3.377e-04
359 1 0.000e+00 4.000e-01 0.000e+00 2.226e-03 1.479e-03 1.787e-03
360 1 0.000e+00 0.000e+00 -4.000e-01 -6.749e-04 4.196e-04 2.652e-04
361 1 2.000e-01 0.000e+00 0.000e+00 -2.338e-04 4.342e-04 -7.211e-04
362 1 2.000e-01 -2.000e-01 -2.000e-01 -4.260e-04 3.471e-04 -1.955e-03
363 1 -2.000e-01 0.000e+00 2.000e-01 -7.749e-04 -5.956e-04 1.346e-03
364 1 -2.000e-01 2.000e-01 -2.000e-01 -1.230e-04 1.071e-04 -1.193e-03
365 1 -2.000e-01 -2.000e-01 -2.000e-01 -6.988e-04 -3.615e-04 -3.530e-04
366 1 2.000e-01 0.000e+00 -2.000e-01 1.848e-03 1.446e-03 1.157e-03
367 1 2.000e-01 2.000e-01 0.000e+00 -7.188e-04 4.932e-04 -2.073e-04
368 1 0.000e+00 0.000e+00 4.000e-01 6.651e-04 -2.518e-04 8.491e-04
369 1 0.000e+00 -4.000e-01 0.000e+00 1.439e-04 -1.562e-03 -7.423e-04
370 1 -2.000e-01 2.000e-01 2.000e-01 -6.325e-04 -1.695e-03 -6.752e-04
371 1 0.000e+00 2.000e-01 -2.000e-01 -1.275e-03 7.325e-04 -2.021e-03
372 1 0.000e+00 0.000e+00 2.000e-01 -1.262e-04 -1.487e-03 1.096e-03
373 1 -2.000e-01 0.000e+00 -2.000e-01 -8.147e-04 4.171e-05 4.043e-04
374 1 -2.000e-01 2.000e-01 0.000e+00 -1.930e-04 -5.904e-04 9.885e-04
375 1 2.000e-01 -2.000e-01 2.000e-01 -1.752e-04 -1.088e-04 -4.584e-04
376 1 0.000e+00 2.000e-01 2.000e-01 1.433e-03 4.980e-04 7.248e-04