ITEM: TIMESTEP
0
ITEM: NUMBER OF ATOMS
24
ITEM: BOX BOUNDS xy xz yz pp pp pp
                     -5.00000000000000e-01 5.00000000000000e-01 0.00000000000000e+00
-5.00000000000000e-01	5.00000000000000e-01	0.00000000000000e+00
-5.00000000000000e-01	5.00000000000000e-01	0.00000000000000e+00
ITEM: ATOMS id type x y DisplacementX DisplacementY
1 1 6.000e-01 8.000e-01 0.000e+00 0.000e+00
2 1 8.000e-01 0.000e+00 0.000e+00 0.000e+00
3 1 6.000e-01 6.000e-01 0.000e+00 0.000e+00
4 1 6.000e-01 4.000e-01 -2.000e-01 0.000e+00
5 1 2.000e-01 6.000e-01 0.000e+00 0.000e+00
6 1 2.000e-01 0.000e+00 0.000e+00 0.000e+00
7 1 6.000e-01 2.000e-01 0.000e+00 0.000e+00
8 1 4.000e-01 0.000e+00 0.000e+00 0.000e+00
9 1 4.000e-01 8.000e-01 0.000e+00 0.000e+00
10 1 2.000e-01 8.000e-01 0.000e+00 0.000e+00
11 1 8.000e-01 4.000e-01 0.000e+00 0.000e+00
12 1 8.000e-01 6.000e-01 0.000e+00 0.000e+00
13 1 0.000e+00 8.000e-01 0.000e+00 0.000e+00
14 1 4.000e-01 6.000e-01 0.000e+00 0.000e+00
15 1 2.000e-01 2.000e-01 0.000e+00 0.000e+00
16 1 2.000e-01 4.000e-01 0.000e+00 0.000e+00
17 1 8.000e-01 2.000e-01 0.000e+00 0.000e+00
18 1 8.000e-01 8.000e-01 0.000e+00 0.000e+00
19 1 0.000e+00 0.000e+00 0.000e+00 0.000e+00
20 1 0.000e+00 6.000e-01 0.000e+00 0.000e+00
21 1 0.000e+00 4.000e-01 0.000e+00 0.000e+00
22 1 4.000e-01 2.000e-01 0.000e+00 0.000e+00
23 1 6.000e-01 0.000e+00 0.000e+00 0.000e+00
24 1 0.000e+00 2.000e-01 0.000e+00 0.000e+00
ITEM: TIMESTEP
0
ITEM: NUMBER OF ATOMS
24
ITEM: BOX BOUNDS xy xz yz pp pp pp
                     -5.00000000000000e-01 5.00000000000000e-01 0.00000000000000e+00
-5.00000000000000e-01	5.00000000000000e-01	0.00000000000000e+00
-5.00000000000000e-01	5.00000000000000e-01	0.00000000000000e+00
ITEM: ATOMS id type x y DisplacementX DisplacementY
1 1 6.000e-01 8.000e-01 0.000e+00 0.000e+00
2 1 8.000e-01 0.000e+00 0.000e+00 0.000e+00
3 1 6.000e-01 6.000e-01 0.000e+00 0.000e+00
4 1 6.000e-01 4.000e-01 0.000e+00 0.000e+00
5 1 2.000e-01 6.000e-01 0.000e+00 0.000e+00
6 1 2.000e-01 0.000e+00 0.000e+00 0.000e+00
7 1 6.000e-01 2.000e-01 0.000e+00 0.000e+00
8 1 4.000e-01 0.000e+00 0.000e+00 0.000e+00
9 1 4.000e-01 8.000e-01 0.000e+00 0.000e+00
10 1 2.000e-01 8.000e-01 0.000e+00 0.000e+00
11 1 8.000e-01 4.000e-01 0.000e+00 0.000e+00
12 1 8.000e-01 6.000e-01 0.000e+00 0.000e+00
13 1 0.000e+00 8.000e-01 0.000e+00 0.000e+00
14 1 4.000e-01 6.000e-01 0.000e+00 -2.000e-01
15 1 2.000e-01 2.000e-01 0.000e+00 0.000e+00
16 1 2.000e-01 4.000e-01 0.000e+00 0.000e+00
17 1 8.000e-01 2.000e-01 0.000e+00 0.000e+00
18 1 8.000e-01 8.000e-01 0.000e+00 0.000e+00
19 1 0.000e+00 0.000e+00 0.000e+00 0.000e+00
20 1 0.000e+00 6.000e-01 0.000e+00 0.000e+00
21 1 0.000e+00 4.000e-01 0.000e+00 0.000e+00
22 1 4.000e-01 2.000e-01 0.000e+00 0.000e+00
23 1 6.000e-01 0.000e+00 0.000e+00 0.000e+00
24 1 0.000e+00 2.000e-01 0.000e+00 0.000e+00
ITEM: TIMESTEP
0
ITEM: NUMBER OF ATOMS
24
ITEM: BOX BOUNDS xy xz yz pp pp pp
                     -5.00000000000000e-01 5.00000000000000e-01 0.00000000000000e+00
-5.00000000000000e-01	5.00000000000000e-01	0.00000000000000e+00
-5.00000000000000e-01	5.00000000000000e-01	0.00000000000000e+00
ITEM: ATOMS id type x y DisplacementX DisplacementY
1 1 6.000e-01 8.000e-01 0.000e+00 0.000e+00
2 1 8.000e-01 0.000e+00 0.000e+00 0.000e+00
3 1 6.000e-01 6.000e-01 0.000e+00 0.000e+00
4 1 6.000e-01 4.000e-01 0.000e+00 0.000e+00
5 1 2.000e-01 6.000e-01 0.000e+00 0.000e+00
6 1 2.000e-01 0.000e+00 0.000e+00 0.000e+00
7 1 6.000e-01 2.000e-01 0.000e+00 0.000e+00
8 1 4.000e-01 0.000e+00 0.000e+00 0.000e+00
9 1 4.000e-01 8.000e-01 0.000e+00 0.000e+00
10 1 2.000e-01 8.000e-01 0.000e+00 0.000e+00
11 1 8.000e-01 4.000e-01 0.000e+00 0.000e+00
12 1 8.000e-01 6.000e-01 0.000e+00 0.000e+00
13 1 0.000e+00 8.000e-01 0.000e+00 0.000e+00
14 1 4.000e-01 6.000e-01 0.000e+00 0.000e+00
15 1 2.000e-01 2.000e-01 0.000e+00 0.000e+00
16 1 2.000e-01 4.000e-01 2.000e-01 0.000e+00
17 1 8.000e-01 2.000e-01 0.000e+00 0.000e+00
18 1 8.000e-01 8.000e-01 0.000e+00 0.000e+00
19 1 0.000e+00 0.000e+00 0.000e+00 0.000e+00
20 1 0.000e+00 6.000e-01 0.000e+00 0.000e+00
21 1 0.000e+00 4.000e-01 0.000e+00 0.000e+00
22 1 4.000e-01 2.000e-01 0.000e+00 0.000e+00
23 1 6.000e-01 0.000e+00 0.000e+00 0.000e+00
24 1 0.000e+00 2.000e-01 0.000e+00 0.000e+00
ITEM: TIMESTEP
0
ITEM: NUMBER OF ATOMS
24
ITEM: BOX BOUNDS xy xz yz pp pp pp
                     -5.00000000000000e-01 5.00000000000000e-01 0.00000000000000e+00
-5.00000000000000e-01	5.00000000000000e-01	0.00000000000000e+00
-5.00000000000000e-01	5.00000000000000e-01	0.00000000000000e+00
ITEM: ATOMS id type x y DisplacementX DisplacementY
1 1 6.000e-01 8.000e-01 0.000e+00 0.000e+00
2 1 8.000e-01 0.000e+00 0.000e+00 0.000e+00
3 1 6.000e-01 6.000e-01 0.000e+00 0.000e+00
4 1 6.000e-01 4.000e-01 0.000e+00 0.000e+00
5 1 2.000e-01 6.000e-01 0.000e+00 0.000e+00
6 1 2.000e-01 0.000e+00 0.000e+00 0.000e+00
7 1 6.000e-01 2.000e-01 0.000e+00 0.000e+00
8 1 4.000e-01 0.000e+00 0.000e+00 0.000e+00
9 1 4.000e-01 8.000e-01 0.000e+00 0.000e+00
10 1 2.000e-01 8.000e-01 0.000e+00 0.000e+00
11 1 8.000e-01 4.000e-01 0.000e+00 0.000e+00
12 1 8.000e-01 6.000e-01 0.000e+00 0.000e+00
13 1 0.000e+00 8.000e-01 0.000e+00 0.000e+00
14 1 4.000e-01 6.000e-01 0.000e+00 0.000e+00
15 1 2.000e-01 2.000e-01 0.000e+00 0.000e+00
16 1 2.000e-01 4.000e-01 0.000e+00 0.000e+00
17 1 8.000e-01 2.000e-01 0.000e+00 0.000e+00
18 1 8.000e-01 8.000e-01 0.000e+00 0.000e+00
19 1 0.000e+00 0.000e+00 0.000e+00 0.000e+00
20 1 0.000e+00 6.000e-01 0.000e+00 0.000e+00
21 1 0.000e+00 4.000e-01 0.000e+00 0.000e+00
22 1 4.000e-01 2.000e-01 0.000e+00 2.000e-01
23 1 6.000e-01 0.000e+00 0.000e+00 0.000e+00
24 1 0.000e+00 2.000e-01 0.000e+00 0.000e+00
ITEM: TIMESTEP
0
ITEM: NUMBER OF ATOMS
24
ITEM: BOX BOUNDS xy xz yz pp pp pp
                     -5.00000000000000e-01 5.00000000000000e-01 0.00000000000000e+00
-5.00000000000000e-01	5.00000000000000e-01	0.00000000000000e+00
-5.00000000000000e-01	5.00000000000000e-01	0.00000000000000e+00
ITEM: ATOMS id type x y DisplacementX DisplacementY
25 1 2.000e-01 2.000e-01 0.000e+00 0.000e+00
26 1 0.000e+00 0.000e+00 0.000e+00 0.000e+00
27 1 8.000e-01 0.000e+00 0.000e+00 0.000e+00
28 1 0.000e+00 2.000e-01 0.000e+00 0.000e+00
29 1 8.000e-01 6.000e-01 0.000e+00 0.000e+00
30 1 4.000e-01 4.000e-01 0.000e+00 0.000e+00
31 1 8.000e-01 8.000e-01 0.000e+00 0.000e+00
32 1 4.000e-01 2.000e-01 2.000e-01 0.000e+00
33 1 0.000e+00 6.000e-01 0.000e+00 0.000e+00
34 1 0.000e+00 8.000e-01 0.000e+00 0.000e+00
35 1 4.000e-01 8.000e-01 0.000e+00 0.000e+00
36 1 6.000e-01 0.000e+00 0.000e+00 0.000e+00
37 1 4.000e-01 6.000e-01 0.000e+00 0.000e+00
38 1 4.000e-01 0.000e+00 0.000e+00 0.000e+00
39 1 6.000e-01 8.000e-01 0.000e+00 0.000e+00
40 1 6.000e-01 4.000e-01 0.000e+00 0.000e+00
41 1 6.000e-01 6.000e-01 0.000e+00 0.000e+00
42 1 2.000e-01 8.000e-01 0.000e+00 0.000e+00
43 1 2.000e-01 0.000e+00 0.000e+00 0.000e+00
44 1 8.000e-01 4.000e-01 0.000e+00 0.000e+00
45 1 8.000e-01 2.000e-01 0.000e+00 0.000e+00
46 1 2.000e-01 6.000e-01 0.000e+00 0.000e+00
47 1 2.000e-01 4.000e-01 0.000e+00 0.000e+00
48 1 0.000e+00 4.000e-01 0.000e+00 0.000e+00
ITEM: TIMESTEP
0
ITEM: NUMBER OF ATOMS
24
ITEM: BOX BOUNDS xy xz yz pp pp pp
                     -5.00000000000000e-01 5.00000000000000e-01 0.00000000000000e+00
-5.00000000000000e-01	5.00000000000000e-01	0.00000000000000e+00
-5.00000000000000e-01	5.00000000000000e-01	0.00000000000000e+00
ITEM: ATOMS id type x y DisplacementX DisplacementY
25 1 2.000e-01 2.000e-01 0.000e+00 0.000e+00
26 1 0.000e+00 0.000e+00 0.000e+00 0.000e+00
27 1 8.000e-01 0.000e+00 0.000e+00 0.000e+00
28 1 0.000e+00 2.000e-01 0.000e+00 0.000e+00
29 1 8.000e-01 6.000e-01 0.000e+00 0.000e+00
30 1 4.000e-01 4.000e-01 0.000e+00 0.000e+00
31 1 8.000e-01 8.000e-01 0.000e+00 0.000e+00
32 1 4.000e-01 2.000e-01 0.000e+00 0.000e+00
33 1 0.000e+00 6.000e-01 0.000e+00 0.000e+00
34 1 0.000e+00 8.000e-01 0.000e+00 0.000e+00
35 1 4.000e-01 8.000e-01 0.000e+00 0.000e+00
36 1 6.000e-01 0.000e+00 0.000e+00 2.000e-01
37 1 4.000e-01 6.000e-01 0.000e+00 0.000e+00
38 1 4.000e-01 0.000e+00 0.000e+00 0.000e+00
39 1 6.000e-01 8.000e-01 0.000e+00 0.000e+00
40 1 6.000e-01 4.000e-01 0.000e+00 0.000e+00
41 1 6.000e-01 6.000e-01 0.000e+00 0.000e+00
42 1 2.000e-01 8.000e-01 0.000e+00 0.000e+00
43 1 2.000e-01 0.000e+00 0.000e+00 0.000e+00
44 1 8.000e-01 4.000e-01 0.000e+00 0.000e+00
45 1 8.000e-01 2.000e-01 0.000e+00 0.000e+00
46 1 2.000e-01 6.000e-01 0.000e+00 0.000e+00
47 1 2.000e-01 4.000e-01 0.000e+00 0.000e+00
48 1 0.000e+00 4.000e-01 0.000e+00 0.000e+00
ITEM: TIMESTEP
0
ITEM: NUMBER OF ATOMS
24
ITEM: BOX BOUNDS xy xz yz pp pp pp
                     -5.00000000000000e-01 5.00000000000000e-01 0.00000000000000e+00
-5.00000000000000e-01	5.00000000000000e-01	0.00000000000000e+00
-5.00000000000000e-01	5.00000000000000e-01	0.00000000000000e+00
ITEM: ATOMS id type x y DisplacementX DisplacementY
25 1 2.000e-01 2.000e-01 0.000e+00 0.000e+00
26 1 0.000e+00 0.000e+00 0.000e+00 0.000e+00
27 1 8.000e-01 0.000e+00 0.000e+00 0.000e+00
28 1 0.000e+00 2.000e-01 0.000e+00 0.000e+00
29 1 8.000e-01 6.000e-01 0.000e+00 0.000e+00
30 1 4.000e-01 4.000e-01 0.000e+00 0.000e+00
31 1 8.000e-01 8.000e-01 0.000e+00 0.000e+00
32 1 4.000e-01 2.000e-01 0.000e+00 0.000e+00
33 1 0.000e+00 6.000e-01 0.000e+00 0.000e+00
34 1 0.000e+00 8.000e-01 0.000e+00 0.000e+00
35 1 4.000e-01 8.000e-01 0.000e+00 0.000e+00
36 1 6.000e-01 0.000e+00 0.000e+00 0.000e+00
37 1 4.000e-01 6.000e-01 0.000e+00 0.000e+00
38 1 4.000e-01 0.000e+00 0.000e+00 0.000e+00
39 1 6.000e-01 8.000e-01 0.000e+00 0.000e+00
40 1 6.000e-01 4.000e-01 0.000e+00 -2.000e-01
41 1 6.000e-01 6.000e-01 0.000e+00 0.000e+00
42 1 2.000e-01 8.000e-01 0.000e+00 0.000e+00
43 1 2.000e-01 0.000e+00 0.000e+00 0.000e+00
44 1 8.000e-01 4.000e-01 0.000e+00 0.000e+00
45 1 8.000e-01 2.000e-01 0.000e+00 0.000e+00
46 1 2.000e-01 6.000e-01 0.000e+00 0.000e+00
47 1 2.000e-01 4.000e-01 0.000e+00 0.000e+00
48 1 0.000e+00 4.000e-01 0.000e+00 0.000e+00
ITEM: TIMESTEP
0
ITEM: NUMBER OF ATOMS
24
ITEM: BOX BOUNDS xy xz yz pp pp pp
                     -5.00000000000000e-01 5.00000000000000e-01 0.00000000000000e+00
-5.00000000000000e-01	5.00000000000000e-01	0.00000000000000e+00
-5.00000000000000e-01	5.00000000000000e-01	0.00000000000000e+00
ITEM: ATOMS id type x y DisplacementX DisplacementY
25 1 2.000e-01 2.000e-01 0.000e+00 0.000e+00
26 1 0.000e+00 0.000e+00 0.000e+00 0.000e+00
27 1 8.000e-01 0.000e+00 0.000e+00 0.000e+00
28 1 0.000e+00 2.000e-01 0.000e+00 0.000e+00
29 1 8.000e-01 6.000e-01 0.000e+00 0.000e+00
30 1 4.000e-01 4.000e-01 0.000e+00 0.000e+00
31 1 8.000e-01 8.000e-01 0.000e+00 0.000e+00
32 1 4.000e-01 2.000e-01 0.000e+00 0.000e+00
33 1 0.000e+00 6.000e-01 0.000e+00 0.000e+00
34 1 0.000e+00 8.000e-01 0.000e+00 0.000e+00
35 1 4.000e-01 8.000e-01 0.000e+00 0.000e+00
36 1 6.000e-01 0.000e+00 0.000e+00 0.000e+00
37 1 4.000e-01 6.000e-01 0.000e+00 0.000e+00
38 1 4.000e-01 0.000e+00 0.000e+00 0.000e+00
39 1 6.000e-01 8.000e-01 0.000e+00 0.000e+00
40 1 6.000e-01 4.000e-01 0.000e+00 0.000e+00
41 1 6.000e-01 6.000e-01 0.000e+00 0.000e+00
42 1 2.000e-01 8.000e-01 0.000e+00 0.000e+00
43 1 2.000e-01 0.000e+00 0.000e+00 0.000e+00
44 1 8.000e-01 4.000e-01 0.000e+00 0.000e+00
45 1 8.000e-01 2.000e-01 -2.000e-01 0.000e+00
46 1 2.000e-01 6.000e-01 0.000e+00 0.000e+00
47 1 2.000e-01 4.000e-01 0.000e+00 0.000e+00
48 1 0.000e+00 4.000e-01 0.000e+00 0.000e+00
ITEM: TIMESTEP
0
ITEM: NUMBER OF ATOMS
24
ITEM: BOX BOUNDS xy xz yz pp pp pp
                     -5.00000000000000e-01 5.00000000000000e-01 0.00000000000000e+00
-5.00000000000000e-01	5.00000000000000e-01	0.00000000000000e+00
-5.00000000000000e-01	5.00000000000000e-01	0.00000000000000e+00
ITEM: ATOMS id type x y DisplacementX DisplacementY
49 1 6.000e-01 2.000e-01 0.000e+00 0.000e+00
50 1 8.000e-01 4.000e-01 0.000e+00 0.000e+00
51 1 4.000e-01 4.000e-01 0.000e+00 0.000e+00
52 1 0.000e+00 0.000e+00 0.000e+00 0.000e+00
53 1 6.000e-01 0.000e+00 0.000e+00 0.000e+00
54 1 0.000e+00 2.000e-01 0.000e+00 0.000e+00
55 1 8.000e-01 0.000e+00 0.000e+00 0.000e+00
56 1 6.000e-01 8.000e-01 0.000e+00 0.000e+00
57 1 6.000e-01 4.000e-01 0.000e+00 0.000e+00
58 1 4.000e-01 8.000e-01 0.000e+00 0.000e+00
59 1 0.000e+00 8.000e-01 0.000e+00 0.000e+00
60 1 2.000e-01 4.000e-01 0.000e+00 2.000e-01
61 1 4.000e-01 2.000e-01 0.000e+00 0.000e+00
62 1 4.000e-01 6.000e-01 0.000e+00 0.000e+00
63 1 2.000e-01 0.000e+00 0.000e+00 0.000e+00
64 1 0.000e+00 6.000e-01 0.000e+00 0.000e+00
65 1 8.000e-01 8.000e-01 0.000e+00 0.000e+00
66 1 6.000e-01 6.000e-01 0.000e+00 0.000e+00
67 1 4.000e-01 0.000e+00 0.000e+00 0.000e+00
68 1 2.000e-01 2.000e-01 0.000e+00 0.000e+00
69 1 8.000e-01 6.000e-01 0.000e+00 0.000e+00
70 1 2.000e-01 8.000e-01 0.000e+00 0.000e+00
71 1 0.000e+00 4.000e-01 0.000e+00 0.000e+00
72 1 8.000e-01 2.000e-01 0.000e+00 0.000e+00
ITEM: TIMESTEP
0
ITEM: NUMBER OF ATOMS
24
ITEM: BOX BOUNDS xy xz yz pp pp pp
                     -5.00000000000000e-01 5.00000000000000e-01 0.00000000000000e+00
-5.00000000000000e-01	5.00000000000000e-01	0.00000000000000e+00
-5.00000000000000e-01	5.00000000000000e-01	0.00000000000000e+00
ITEM: ATOMS id type x y DisplacementX DisplacementY
49 1 6.000e-01 2.000e-01 0.000e+00 0.000e+00
50 1 8.000e-01 4.000e-01 0.000e+00 0.000e+00
51 1 4.000e-01 4.000e-01 0.000e+00 0.000e+00
52 1 0.000e+00 0.000e+00 0.000e+00 0.000e+00
53 1 6.000e-01 0.000e+00 0.000e+00 0.000e+00
54 1 0.000e+00 2.000e-01 0.000e+00 0.000e+00
55 1 8.000e-01 0.000e+00 0.000e+00 0.000e+00
56 1 6.000e-01 8.000e-01 0.000e+00 0.000e+00
57 1 6.000e-01 4.000e-01 0.000e+00 0.000e+00
58 1 4.000e-01 8.000e-01 0.000e+00 0.000e+00
59 1 0.000e+00 8.000e-01 0.000e+00 0.000e+00
60 1 2.000e-01 4.000e-01 0.000e+00 0.000e+00
61 1 4.000e-01 2.000e-01 0.000e+00 0.000e+00
62 1 4.000e-01 6.000e-01 -2.000e-01 0.000e+00
63 1 2.000e-01 0.000e+00 0.000e+00 0.000e+00
64 1 0.000e+00 6.000e-01 0.000e+00 0.000e+00
65 1 8.000e-01 8.000e-01 0.000e+00 0.000e+00
66 1 6.000e-01 6.000e-01 0.000e+00 0.000e+00
67 1 4.000e-01 0.000e+00 0.000e+00 0.000e+00
68 1 2.000e-01 2.000e-01 0.000e+00 0.000e+00
69 1 8.000e-01 6.000e-01 0.000e+00 0.000e+00
70 1 2.000e-01 8.000e-01 0.000e+00 0.000e+00
71 1 0.000e+00 4.000e-01 0.000e+00 0.000e+00
72 1 8.000e-01 2.000e-01 0.000e+00 0.000e+00
ITEM: TIMESTEP
0
ITEM: NUMBER OF ATOMS
24
ITEM: BOX BOUNDS xy xz yz pp pp pp
                     -5.00000000000000e-01 5.00000000000000e-01 0.00000000000000e+00
-5.00000000000000e-01	5.00000000000000e-01	0.00000000000000e+00
-5.00000000000000e-01	5.00000000000000e-01	0.00000000000000e+00
ITEM: ATOMS id type x y DisplacementX DisplacementY
49 1 6.000e-01 2.000e-01 0.000e+00 0.000e+00
50 1 8.000e-01 4.000e-01 0.000e+00 0.000e+00
51 1 4.000e-01 4.000e-01 0.000e+00 0.000e+00
52 1 0.000e+00 0.000e+00 0.000e+00 0.000e+00
53 1 6.000e-01 0.000e+00 0.000e+00 0.000e+00
54 1 0.000e+00 2.000e-01 0.000e+00 0.000e+00
55 1 8.000e-01 0.000e+00 0.000e+00 0.000e+00
56 1 6.000e-01 8.000e-01 0.000e+00 0.000e+00
57 1 6.000e-01 4.000e-01 0.000e+00 0.000e+00
58 1 4.000e-01 8.000e-01 0.000e+00 0.000e+00
59 1 0.000e+00 8.000e-01 0.000e+00 0.000e+00
60 1 2.000e-01 4.000e-01 0.000e+00 0.000e+00
61 1 4.000e-01 2.000e-01 0.000e+00 0.000e+00
62 1 4.000e-01 6.000e-01 0.000e+00 0.000e+00
63 1 2.000e-01 0.000e+00 0.000e+00 0.000e+00
64 1 0.000e+00 6.000e-01 2.000e-01 0.000e+00
65 1 8.000e-01 8.000e-01 0.000e+00 0.000e+00
66 1 6.000e-01 6.000e-01 0.000e+00 0.000e+00
67 1 4.000e-01 0.000e+00 0.000e+00 0.000e+00
68 1 2.000e-01 2.000e-01 0.000e+00 0.000e+00
69 1 8.000e-01 6.000e-01 0.000e+00 0.000e+00
70 1 2.000e-01 8.000e-01 0.000e+00 0.000e+00
71 1 0.000e+00 4.000e-01 0.000e+00 0.000e+00
72 1 8.000e-01 2.000e-01 0.000e+00 0.000e+00
ITEM: TIMESTEP
0
ITEM: NUMBER OF ATOMS
24
ITEM: BOX BOUNDS xy xz yz pp pp pp
                     -5.00000000000000e-01 5.00000000000000e-01 0.00000000000000e+00
-5.00000000000000e-01	5.00000000000000e-01	0.00000000000000e+00
-5.00000000000000e-01	5.00000000000000e-01	0.00000000000000e+00
ITEM: ATOMS id type x y DisplacementX DisplacementY
49 1 6.000e-01 2.000e-01 0.000e+00 0.000e+00
50 1 8.000e-01 4.000e-01 0.000e+00 0.000e+00
51 1 4.000e-01 4.000e-01 0.000e+00 0.000e+00
52 1 0.000e+00 0.000e+00 0.000e+00 0.000e+00
53 1 6.000e-01 0.000e+00 0.000e+00 0.000e+00
54 1 0.000e+00 2.000e-01 0.000e+00 0.000e+00
55 1 8.000e-01 0.000e+00 0.000e+00 0.000e+00
56 1 6.000e-01 8.000e-01 0.000e+00 0.000e+00
57 1 6.000e-01 4.000e-01 0.000e+00 0.000e+00
58 1 4.000e-01 8.000e-01 0.000e+00 0.000e+00
59 1 0.000e+00 8.000e-01 0.000e+00 0.000e+00
60 1 2.000e-01 4.000e-01 0.000e+00 0.000e+00
61 1 4.000e-01 2.000e-01 0.000e+00 0.000e+00
62 1 4.000e-01 6.000e-01 0.000e+00 0.000e+00
63 1 2.000e-01 0.000e+00 0.000e+00 0.000e+00
64 1 0.000e+00 6.000e-01 0.000e+00 0.000e+00
65 1 8.000e-01 8.000e-01 0.000e+00 0.000e+00
66 1 6.000e-01 6.000e-01 0.000e+00 0.000e+00
67 1 4.000e-01 0.000e+00 0.000e+00 0.000e+00
68 1 2.000e-01 2.000e-01 0.000e+00 0.000e+00
69 1 8.000e-01 6.000e-01 0.000e+00 0.000e+00
70 1 2.000e-01 8.000e-01 0.000e+00 -2.000e-01
71 1 0.000e+00 4.000e-01 0.000e+00 0.000e+00
72 1 8.000e-01 2.000e-01 0.000e+00 0.000e+00
ITEM: TIMESTEP
0
ITEM: NUMBER OF ATOMS
24
ITEM: BOX BOUNDS xy xz yz pp pp pp
                     -5.00000000000000e-01 5.00000000000000e-01 0.00000000000000e+00
-5.00000000000000e-01	5.00000000000000e-01	0.00000000000000e+00
-5.00000000000000e-01	5.00000000000000e-01	0.00000000000000e+00
ITEM: ATOMS id type x y DisplacementX DisplacementY
73 1 8.000e-01 4.000e-01 0.000e+00 0.000e+00
74 1 0.000e+00 6.000e-01 2.000e-01 0.000e+00
75 1 4.000e-01 8.000e-01 0.000e+00 0.000e+00
76 1 8.000e-01 8.000e-01 0.000e+00 0.000e+00
77 1 6.000e-01 0.000e+00 0.000e+00 0.000e+00
78 1 2.000e-01 2.000e-01 0.000e+00 0.000e+00
79 1 0.000e+00 0.000e+00 0.000e+00 0.000e+00
80 1 6.000e-01 8.000e-01 0.000e+00 0.000e+00
81 1 4.000e-01 4.000e-01 0.000e+00 0.000e+00
82 1 2.000e-01 0.000e+00 0.000e+00 0.000e+00
83 1 0.000e+00 2.000e-01 0.000e+00 0.000e+00
84 1 4.000e-01 0.000e+00 0.000e+00 0.000e+00
85 1 8.000e-01 6.000e-01 0.000e+00 0.000e+00
86 1 6.000e-01 6.000e-01 0.000e+00 0.000e+00
87 1 6.000e-01 4.000e-01 0.000e+00 0.000e+00
88 1 0.000e+00 8.000e-01 0.000e+00 0.000e+00
89 1 6.000e-01 2.000e-01 0.000e+00 0.000e+00
90 1 8.000e-01 0.000e+00 0.000e+00 0.000e+00
91 1 2.000e-01 4.000e-01 0.000e+00 0.000e+00
92 1 0.000e+00 4.000e-01 0.000e+00 0.000e+00
93 1 8.000e-01 2.000e-01 0.000e+00 0.000e+00
94 1 2.000e-01 8.000e-01 0.000e+00 0.000e+00
95 1 4.000e-01 6.000e-01 0.000e+00 0.000e+00
96 1 4.000e-01 2.000e-01 0.000e+00 0.000e+00
ITEM: TIMESTEP
0
ITEM: NUMBER OF ATOMS
24
ITEM: BOX BOUNDS xy xz yz pp pp pp
                     -5.00000000000000e-01 5.00000000000000e-01 0.00000000000000e+00
-5.00000000000000e-01	5.00000000000000e-01	0.00000000000000e+00
-5.00000000000000e-01	5.00000000000000e-01	0.00000000000000e+00
ITEM: ATOMS id type x y DisplacementX DisplacementY
73 1 8.000e-01 4.000e-01 0.000e+00 0.000e+00
74 1 0.000e+00 6.000e-01 0.000e+00 0.000e+00
75 1 4.000e-01 8.000e-01 0.000e+00 0.000e+00
76 1 8.000e-01 8.000e-01 0.000e+00 0.000e+00
77 1 6.000e-01 0.000e+00 0.000e+00 0.000e+00
78 1 2.000e-01 2.000e-01 0.000e+00 0.000e+00
79 1 0.000e+00 0.000e+00 0.000e+00 0.000e+00
80 1 6.000e-01 8.000e-01 0.000e+00 0.000e+00
81 1 4.000e-01 4.000e-01 0.000e+00 0.000e+00
82 1 2.000e-01 0.000e+00 0.000e+00 0.000e+00
83 1 0.000e+00 2.000e-01 0.000e+00 0.000e+00
84 1 4.000e-01 0.000e+00 0.000e+00 0.000e+00
85 1 8.000e-01 6.000e-01 0.000e+00 0.000e+00
86 1 6.000e-01 6.000e-01 0.000e+00 0.000e+00
87 1 6.000e-01 4.000e-01 0.000e+00 0.000e+00
88 1 0.000e+00 8.000e-01 0.000e+00 0.000e+00
89 1 6.000e-01 2.000e-01 0.000e+00 0.000e+00
90 1 8.000e-01 0.000e+00 0.000e+00 0.000e+00
91 1 2.000e-01 4.000e-01 0.000e+00 2.000e-01
92 1 0.000e+00 4.000e-01 0.000e+00 0.000e+00
93 1 8.000e-01 2.000e-01 0.000e+00 0.000e+00
94 1 2.000e-01 8.000e-01 0.000e+00 0.000e+00
95 1 4.000e-01 6.000e-01 0.000e+00 0.000e+00
96 1 4.000e-01 2.000e-01 0.000e+00 0.000e+00
ITEM: TIMESTEP
0
ITEM: NUMBER OF ATOMS
24
ITEM: BOX BOUNDS xy xz yz pp pp pp
                     -5.00000000000000e-01 5.00000000000000e-01 0.00000000000000e+00
-5.00000000000000e-01	5.00000000000000e-01	0.00000000000000e+00
-5.00000000000000e-01	5.00000000000000e-01	0.00000000000000e+00
ITEM: ATOMS id type x y DisplacementX DisplacementY
73 1 8.000e-01 4.000e-01 0.000e+00 0.000e+00
74 1 0.000e+00 6.000e-01 0.000e+00 0.000e+00
75 1 4.000e-01 8.000e-01 0.000e+00 0.000e+00
76 1 8.000e-01 8.000e-01 0.000e+00 0.000e+00
77 1 6.000e-01 0.000e+00 0.000e+00 0.000e+00
78 1 2.000e-01 2.000e-01 0.000e+00 0.000e+00
79 1 0.000e+00 0.000e+00 0.000e+00 0.000e+00
80 1 6.000e-01 8.000e-01 0.000e+00 0.000e+00
81 1 4.000e-01 4.000e-01 0.000e+00 0.000e+00
82 1 2.000e-01 0.000e+00 0.000e+00 0.000e+00
83 1 0.000e+00 2.000e-01 0.000e+00 0.000e+00
84 1 4.000e-01 0.000e+00 0.000e+00 0.000e+00
85 1 8.000e-01 6.000e-01 0.000e+00 0.000e+00
86 1 6.000e-01 6.000e-01 0.000e+00 0.000e+00
87 1 6.000e-01 4.000e-01 0.000e+00 0.000e+00
88 1 0.000e+00 8.000e-01 0.000e+00 0.000e+00
89 1 6.000e-01 2.000e-01 0.000e+00 0.000e+00
90 1 8.000e-01 0.000e+00 0.000e+00 0.000e+00
91 1 2.000e-01 4.000e-01 0.000e+00 0.000e+00
92 1 0.000e+00 4.000e-01 0.000e+00 0.000e+00
93 1 8.000e-01 2.000e-01 0.000e+00 0.000e+00
94 1 2.000e-01 8.000e-01 0.000e+00 -2.000e-01
95 1 4.000e-01 6.000e-01 0.000e+00 0.000e+00
96 1 4.000e-01 2.000e-01 0.000e+00 0.000e+00
ITEM: TIMESTEP
0
ITEM: NUMBER OF ATOMS
24
ITEM: BOX BOUNDS xy xz yz pp pp pp
                     -5.00000000000000e-01 5.00000000000000e-01 0.00000000000000e+00
-5.00000000000000e-01	5.00000000000000e-01	0.00000000000000e+00
-5.00000000000000e-01	5.00000000000000e-01	0.00000000000000e+00
ITEM: ATOMS id type x y DisplacementX DisplacementY
73 1 8.000e-01 4.000e-01 0.000e+00 0.000e+00
74 1 0.000e+00 6.000e-01 0.000e+00 0.000e+00
75 1 4.000e-01 8.000e-01 0.000e+00 0.000e+00
76 1 8.000e-01 8.000e-01 0.000e+00 0.000e+00
77 1 6.000e-01 0.000e+00 0.000e+00 0.000e+00
78 1 2.000e-01 2.000e-01 0.000e+00 0.000e+00
79 1 0.000e+00 0.000e+00 0.000e+00 0.000e+00
80 1 6.000e-01 8.000e-01 0.000e+00 0.000e+00
81 1 4.000e-01 4.000e-01 0.000e+00 0.000e+00
82 1 2.000e-01 0.000e+00 0.000e+00 0.000e+00
83 1 0.000e+00 2.000e-01 0.000e+00 0.000e+00
84 1 4.000e-01 0.000e+00 0.000e+00 0.000e+00
85 1 8.000e-01 6.000e-01 0.000e+00 0.000e+00
86 1 6.000e-01 6.000e-01 0.000e+00 0.000e+00
87 1 6.000e-01 4.000e-01 0.000e+00 0.000e+00
88 1 0.000e+00 8.000e-01 0.000e+00 0.000e+00
89 1 6.000e-01 2.000e-01 0.000e+00 0.000e+00
90 1 8.000e-01 0.000e+00 0.000e+00 0.000e+00
91 1 2.000e-01 4.000e-01 0.000e+00 0.000e+00
92 1 0.000e+00 4.000e-01 0.000e+00 0.000e+00
93 1 8.000e-01 2.000e-01 0.000e+00 0.000e+00
94 1 2.000e-01 8.000e-01 0.000e+00 0.000e+00
95 1 4.000e-01 6.000e-01 -2.000e-01 0.000e+00
96 1 4.000e-01 2.000e-01 0.000e+00 0.000e+00
ITEM: TIMESTEP
0
ITEM: NUMBER OF ATOMS
24
ITEM: BOX BOUNDS xy xz yz pp pp pp
                     -5.00000000000000e-01 5.00000000000000e-01 0.00000000000000e+00
-5.00000000000000e-01	5.00000000000000e-01	0.00000000000000e+00
-5.00000000000000e-01	5.00000000000000e-01	0.00000000000000e+00
ITEM: ATOMS id type x y DisplacementX DisplacementY
97 1 2.000e-01 8.000e-01 0.000e+00 -2.000e-01
98 1 4.000e-01 0.000e+00 0.000e+00 0.000e+00
99 1 8.000e-01 8.000e-01 0.000e+00 0.000e+00
100 1 6.000e-01 2.000e-01 0.000e+00 0.000e+00
101 1 8.000e-01 0.000e+00 0.000e+00 0.000e+00
102 1 2.000e-01 2.000e-01 0.000e+00 0.000e+00
103 1 0.000e+00 6.000e-01 0.000e+00 0.000e+00
104 1 4.000e-01 8.000e-01 0.000e+00 0.000e+00
105 1 8.000e-01 6.000e-01 0.000e+00 0.000e+00
106 1 6.000e-01 0.000e+00 0.000e+00 0.000e+00
107 1 0.000e+00 2.000e-01 0.000e+00 0.000e+00
108 1 6.000e-01 8.000e-01 0.000e+00 0.000e+00
109 1 6.000e-01 4.000e-01 0.000e+00 0.000e+00
110 1 0.000e+00 0.000e+00 0.000e+00 0.000e+00
111 1 2.000e-01 4.000e-01 0.000e+00 0.000e+00
112 1 8.000e-01 4.000e-01 0.000e+00 0.000e+00
113 1 0.000e+00 4.000e-01 0.000e+00 0.000e+00
114 1 4.000e-01 6.000e-01 0.000e+00 0.000e+00
115 1 8.000e-01 2.000e-01 0.000e+00 0.000e+00
116 1 0.000e+00 8.000e-01 0.000e+00 0.000e+00
117 1 6.000e-01 6.000e-01 0.000e+00 0.000e+00
118 1 4.000e-01 2.000e-01 0.000e+00 0.000e+00
119 1 4.000e-01 4.000e-01 0.000e+00 0.000e+00
120 1 2.000e-01 0.000e+00 0.000e+00 0.000e+00
ITEM: TIMESTEP
0
ITEM: NUMBER OF ATOMS
24
ITEM: BOX BOUNDS xy xz yz pp pp pp
                     -5.00000000000000e-01 5.00000000000000e-01 0.00000000000000e+00
-5.00000000000000e-01	5.00000000000000e-01	0.00000000000000e+00
-5.00000000000000e-01	5.00000000000000e-01	0.00000000000000e+00
ITEM: ATOMS id type x y DisplacementX DisplacementY
97 1 2.000e-01 8.000e-01 0.000e+00 0.000e+00
98 1 4.000e-01 0.000e+00 0.000e+00 0.000e+00
99 1 8.000e-01 8.000e-01 0.000e+00 0.000e+00
100 1 6.000e-01 2.000e-01 0.000e+00 0.000e+00
101 1 8.000e-01 0.000e+00 0.000e+00 0.000e+00
102 1 2.000e-01 2.000e-01 0.000e+00 0.000e+00
103 1 0.000e+00 6.000e-01 2.000e-01 0.000e+00
104 1 4.000e-01 8.000e-01 0.000e+00 0.000e+00
105 1 8.000e-01 6.000e-01 0.000e+00 0.000e+00
106 1 6.000e-01 0.000e+00 0.000e+00 0.000e+00
107 1 0.000e+00 2.000e-01 0.000e+00 0.000e+00
108 1 6.000e-01 8.000e-01 0.000e+00 0.000e+00
109 1 6.000e-01 4.000e-01 0.000e+00 0.000e+00
110 1 0.000e+00 0.000e+00 0.000e+00 0.000e+00
111 1 2.000e-01 4.000e-01 0.000e+00 0.000e+00
112 1 8.000e-01 4.000e-01 0.000e+00 0.000e+00
113 1 0.000e+00 4.000e-01 0.000e+00 0.000e+00
114 1 4.000e-01 6.000e-01 0.000e+00 0.000e+00
115 1 8.000e-01 2.000e-01 0.000e+00 0.000e+00
116 1 0.000e+00 8.000e-01 0.000e+00 0.000e+00
117 1 6.000e-01 6.000e-01 0.000e+00 0.000e+00
118 1 4.000e-01 2.000e-01 0.000e+00 0.000e+00
119 1 4.000e-01 4.000e-01 0.000e+00 0.000e+00
120 1 2.000e-01 0.000e+00 0.000e+00 0.000e+00
ITEM: TIMESTEP
0
ITEM: NUMBER OF ATOMS
24
ITEM: BOX BOUNDS xy xz yz pp pp pp
                     -5.00000000000000e-01 5.00000000000000e-01 0.00000000000000e+00
-5.00000000000000e-01	5.00000000000000e-01	0.00000000000000e+00
-5.00000000000000e-01	5.00000000000000e-01	0.00000000000000e+00
ITEM: ATOMS id type x y DisplacementX DisplacementY
97 1 2.000e-01 8.000e-01 0.000e+00 0.000e+00
98 1 4.000e-01 0.000e+00 0.000e+00 0.000e+00
99 1 8.000e-01 8.000e-01 0.000e+00 0.000e+00
100 1 6.000e-01 2.000e-01 0.000e+00 0.000e+00
101 1 8.000e-01 0.000e+00 0.000e+00 0.000e+00
102 1 2.000e-01 2.000e-01 0.000e+00 0.000e+00
103 1 0.000e+00 6.000e-01 0.000e+00 0.000e+00
104 1 4.000e-01 8.000e-01 0.000e+00 0.000e+00
105 1 8.000e-01 6.000e-01 0.000e+00 0.000e+00
106 1 6.000e-01 0.000e+00 0.000e+00 0.000e+00
107 1 0.000e+00 2.000e-01 0.000e+00 0.000e+00
108 1 6.000e-01 8.000e-01 0.000e+00 0.000e+00
109 1 6.000e-01 4.000e-01 0.000e+00 0.000e+00
110 1 0.000e+00 0.000e+00 0.000e+00 0.000e+00
111 1 2.000e-01 4.000e-01 0.000e+00 2.000e-01
112 1 8.000e-01 4.000e-01 0.000e+00 0.000e+00
113 1 0.000e+00 4.000e-01 0.000e+00 0.000e+00
114 1 4.000e-01 6.000e-01 0.000e+00 0.000e+00
115 1 8.000e-01 2.000e-01 0.000e+00 0.000e+00
116 1 0.000e+00 8.000e-01 0.000e+00 0.000e+00
117 1 6.000e-01 6.000e-01 0.000e+00 0.000e+00
118 1 4.000e-01 2.000e-01 0.000e+00 0.000e+00
119 1 4.000e-01 4.000e-01 0.000e+00 0.000e+00
120 1 2.000e-01 0.000e+00 0.000e+00 0.000e+00
ITEM: TIMESTEP
0
ITEM: NUMBER OF ATOMS
24
ITEM: BOX BOUNDS xy xz yz pp pp pp
                     -5.00000000000000e-01 5.00000000000000e-01 0.00000000000000e+00
-5.00000000000000e-01	5.00000000000000e-01	0.00000000000000e+00
-5.00000000000000e-01	5.00000000000000e-01	0.00000000000000e+00
ITEM: ATOMS id type x y DisplacementX DisplacementY
97 1 2.000e-01 8.000e-01 0.000e+00 0.000e+00
98 1 4.000e-01 0.000e+00 0.000e+00 0.000e+00
99 1 8.000e-01 8.000e-01 0.000e+00 0.000e+00
100 1 6.000e-01 2.000e-01 0.000e+00 0.000e+00
101 1 8.000e-01 0.000e+00 0.000e+00 0.000e+00
102 1 2.000e-01 2.000e-01 0.000e+00 0.000e+00
103 1 0.000e+00 6.000e-01 0.000e+00 0.000e+00
104 1 4.000e-01 8.000e-01 0.000e+00 0.000e+00
105 1 8.000e-01 6.000e-01 0.000e+00 0.000e+00
106 1 6.000e-01 0.000e+00 0.000e+00 0.000e+00
107 1 0.000e+00 2.000e-01 0.000e+00 0.000e+00
108 1 6.000e-01 8.000e-01 0.000e+00 0.000e+00
109 1 6.000e-01 4.000e-01 0.000e+00 0.000e+00
110 1 0.000e+00 0.000e+00 0.000e+00 0.000e+00
111 1 2.000e-01 4.000e-01 0.000e+00 0.000e+00
112 1 8.000e-01 4.000e-01 0.000e+00 0.000e+00
113 1 0.000e+00 4.000e-01 0.000e+00 0.000e+00
114 1 4.000e-01 6.000e-01 -2.000e-01 0.000e+00
115 1 8.000e-01 2.000e-01 0.000e+00 0.000e+00
116 1 0.000e+00 8.000e-01 0.000e+00 0.000e+00
117 1 6.000e-01 6.000e-01 0.000e+00 0.000e+00
118 1 4.000e-01 2.000e-01 0.000e+00 0.000e+00
119 1 4.000e-01 4.000e-01 0.000e+00 0.000e+00
120 1 2.000e-01 0.000e+00 0.000e+00 0.000e+00
ITEM: TIMESTEP
0
ITEM: NUMBER OF ATOMS
24
ITEM: BOX BOUNDS xy xz yz pp pp pp
                     -5.00000000000000e-01 5.00000000000000e-01 0.00000000000000e+00
-5.00000000000000e-01	5.00000000000000e-01	0.00000000000000e+00
-5.00000000000000e-01	5.00000000000000e-01	0.00000000000000e+00
ITEM: ATOMS id type x y DisplacementX DisplacementY
121 1 0.000e+00 6.000e-01 0.000e+00 0.000e+00
122 1 0.000e+00 8.000e-01 0.000e+00 0.000e+00
123 1 8.000e-01 0.000e+00 0.000e+00 0.000e+00
124 1 8.000e-01 6.000e-01 0.000e+00 0.000e+00
125 1 0.000e+00 0.000e+00 0.000e+00 0.000e+00
126 1 0.000e+00 4.000e-01 0.000e+00 0.000e+00
127 1 6.000e-01 4.000e-01 0.000e+00 -2.000e-01
128 1 8.000e-01 2.000e-01 0.000e+00 0.000e+00
129 1 2.000e-01 0.000e+00 0.000e+00 0.000e+00
130 1 2.000e-01 8.000e-01 0.000e+00 0.000e+00
131 1 8.000e-01 8.000e-01 0.000e+00 0.000e+00
132 1 6.000e-01 6.000e-01 0.000e+00 0.000e+00
133 1 2.000e-01 6.000e-01 0.000e+00 0.000e+00
134 1 6.000e-01 8.000e-01 0.000e+00 0.000e+00
135 1 2.000e-01 4.000e-01 0.000e+00 0.000e+00
136 1 4.000e-01 2.000e-01 0.000e+00 0.000e+00
137 1 8.000e-01 4.000e-01 0.000e+00 0.000e+00
138 1 4.000e-01 8.000e-01 0.000e+00 0.000e+00
139 1 6.000e-01 0.000e+00 0.000e+00 0.000e+00
140 1 4.000e-01 6.000e-01 0.000e+00 0.000e+00
141 1 2.000e-01 2.000e-01 0.000e+00 0.000e+00
142 1 0.000e+00 2.000e-01 0.000e+00 0.000e+00
143 1 4.000e-01 0.000e+00 0.000e+00 0.000e+00
144 1 4.000e-01 4.000e-01 0.000e+00 0.000e+00
ITEM: TIMESTEP
0
ITEM: NUMBER OF ATOMS
24