ITEM: TIMESTEP
0
ITEM: NUMBER OF ATOMS
32
ITEM: BOX BOUNDS xy xz yz pp pp pp
                     -5.00000000000000e-01 5.00000000000000e-01 0.00000000000000e+00
-5.00000000000000e-01	5.00000000000000e-01	0.00000000000000e+00
-5.00000000000000e-01	5.00000000000000e-01	0.00000000000000e+00
ITEM: ATOMS id type x y z DisplacementX DisplacementY DisplacementZ
1 1 0.000e+00 2.000e-01 0.000e+00 9.247e-04 -4.892e-04 1.279e-03
2 1 0.000e+00 0.000e+00 0.000e+00 5.128e-04 2.107e-03 1.998e-01
3 1 0.000e+00 -2.000e-01 0.000e+00 1.724e-03 -1.503e-04 7.300e-04
4 1 -2.000e-01 0.000e+00 0.000e+00 -5.840e-04 -4.653e-04 6.252e-04
5 1 2.000e-01 0.000e+00 2.000e-01 1.357e-03 -2.466e-04 -9.728e-04
6 1 0.000e+00 -2.000e-01 -2.000e-01 1.800e-03 -3.833e-04 1.972e-05
7 1 0.000e+00 4.000e-01 0.000e+00 -7.211e-04 1.409e-03 -2.864e-05
8 1 0.000e+00 2.000e-01 2.000e-01 -7.019e-04 4.022e-04 -1.162e-04
9 1 0.000e+00 0.000e+00 -4.000e-01 -4.061e-04 -2.796e-04 -9.008e-04
10 1 -2.000e-01 2.000e-01 -2.000e-01 -5.679e-04 5.134e-04 1.639e-03
11 1 2.000e-01 0.000e+00 -2.000e-01 -1.041e-03 1.596e-03 -1.153e-06
12 1 4.000e-01 0.000e+00 0.000e+00 1.380e-03 3.165e-04 -1.374e-03
13 1 2.000e-01 2.000e-01 0.000e+00 -7.288e-04 -3.041e-04 7.492e-04
14 1 -2.000e-01 2.000e-01 0.000e+00 -7.089e-04 -5.901e-05 1.396e-03
15 1 -2.000e-01 0.000e+00 -2.000e-01 -4.521e-04 -1.186e-03 -1.702e-03
16 1 -2.000e-01 -2.000e-01 0.000e+00 3.995e-04 1.113e-03 5.799e-04
17 1 2.000e-01 -2.000e-01 0.000e+00 -4.955e-04 -3.073e-04 6.143e-04
18 1 0.000e+00 0.000e+00 -2.000e-01 4.917e-04 1.217e-03 -6.801e-04
19 1 2.000e-01 0.000e+00 0.000e+00 8.875e-04 -1.301e-03 -6.942e-04
20 1 0.000e+00 -4.000e-01 0.000e+00 1.386e-03 -4.312e-04 -2.835e-03
21 1 0.000e+00 -2.000e-01 2.000e-01 -2.861e-04 4.057e-05 7.496e-04
22 1 2.000e-01 -2.000e-01 2.000e-01 -1.022e-03 -1.801e-03 -2.164e-03
23 1 -2.000e-01 0.000e+00 2.000e-01 -2.825e-05 5.859e-04 -1.112e-03
24 1 -2.000e-01 -2.000e-01 2.000e-01 -2.855e-03 -1.163e-04 -6.330e-04
25 1 0.000e+00 2.000e-01 -2.000e-01 -1.938e-03 1.010e-03 -1.535e-04
26 1 0.000e+00 0.000e+00 4.000e-01 -1.672e-03 -1.219e-03 -6.067e-04
27 1 -4.000e-01 0.000e+00 0.000e+00 -2.627e-05 6.555e-04 1.984e-03
28 1 2.000e-01 2.000e-01 2.000e-01 2.002e-03 -8.606e-05 9.246e-04
29 1 -2.000e-01 2.000e-01 2.000e-01 -9.625e-04 1.793e-03 1.414e-03
30 1 2.000e-01 -2.000e-01 -2.000e-01 1.702e-03 2.793e-04 -1.997e-03
31 1 -2.000e-01 -2.000e-01 -2.000e-01 8.176e-04 -1.071e-03 -9.159e-04
32 1 2.000e-01 2.000e-01 -2.000e-01 -1.110e-03 -2.671e-04 -2.886e-04
ITEM: TIMESTEP
0
ITEM: NUMBER OF ATOMS
32
ITEM: BOX BOUNDS xy xz yz pp pp pp
                     -5.00000000000000e-01 5.00000000000000e-01 0.00000000000000e+00
-5.00000000000000e-01	5.00000000000000e-01	0.00000000000000e+00
-5.00000000000000e-01	5.00000000000000e-01	0.00000000000000e+00
ITEM: ATOMS id type x y z DisplacementX DisplacementY DisplacementZ
33 1 0.000e+00 0.000e+00 2.000e-01 -7.016e-04 -1.205e-04 -1.439e-03
34 1 -2.000e-01 2.000e-01 -2.000e-01 -6.008e-04 -1.616e-04 -6.122e-06
35 1 -2.000e-01 2.000e-01 2.000e-01 -1.840e-03 1.641e-05 2.025e-04
36 1 2.000e-01 2.000e-01 -2.000e-01 8.380e-04 6.913e-04 -1.761e-03
37 1 -2.000e-01 0.000e+00 -2.000e-01 -3.978e-04 -1.969e-03 6.412e-04
38 1 2.000e-01 0.000e+00 2.000e-01 -8.105e-04 -1.852e-03 1.277e-04
39 1 -2.000e-01 -2.000e-01 2.000e-01 -7.033e-04 -2.236e-04 1.228e-03
40 1 2.000e-01 -2.000e-01 2.000e-01 -2.882e-04 -1.292e-03 -7.316e-04
41 1 -2.000e-01 -2.000e-01 -2.000e-01 -3.164e-04 2.030e-03 -1.446e-03
42 1 0.000e+00 0.000e+00 0.000e+00 -2.011e-01 4.452e-04 1.793e-03
43 1 0.000e+00 4.000e-01 0.000e+00 -6.313e-05 1.398e-03 6.103e-04
44 1 0.000e+00 -4.000e-01 0.000e+00 1.096e-03 -1.301e-03 3.923e-04
45 1 -2.000e-01 2.000e-01 0.000e+00 -2.037e-03 -4.796e-04 -2.488e-03
46 1 2.000e-01 2.000e-01 2.000e-01 1.883e-04 8.345e-04 -3.406e-05
47 1 2.000e-01 -2.000e-01 -2.000e-01 -1.501e-03 -1.260e-03 6.484e-04
48 1 0.000e+00 0.000e+00 -4.000e-01 5.254e-04 1.724e-03 -1.854e-03
49 1 2.000e-01 0.000e+00 -2.000e-01 3.761e-04 1.353e-03 -2.242e-04
50 1 0.000e+00 2.000e-01 -2.000e-01 -2.236e-04 2.548e-03 -1.065e-05
51 1 0.000e+00 0.000e+00 4.000e-01 -4.957e-06 6.608e-04 7.099e-05
52 1 0.000e+00 -2.000e-01 -2.000e-01 1.591e-03 2.447e-04 -8.085e-04
53 1 0.000e+00 0.000e+00 -2.000e-01 -2.135e-04 6.491e-04 9.566e-04
54 1 -2.000e-01 -2.000e-01 0.000e+00 -3.416e-04 1.698e-03 -4.957e-04
55 1 0.000e+00 -2.000e-01 0.000e+00 5.501e-05 -6.167e-04 -1.021e-04
56 1 -4.000e-01 0.000e+00 0.000e+00 6.621e-04 -2.864e-04 -1.573e-03
57 1 -2.000e-01 0.000e+00 2.000e-01 -3.451e-04 1.121e-04 -6.308e-04
58 1 2.000e-01 -2.000e-01 0.000e+00 -1.397e-03 -6.068e-04 -1.083e-03
59 1 0.000e+00 2.000e-01 2.000e-01 5.591e-04 2.755e-04 1.191e-03
60 1 2.000e-01 0.000e+00 0.000e+00 -1.181e-04 4.133e-04 5.059e-04
61 1 2.000e-01 2.000e-01 0.000e+00 1.035e-04 -9.285e-05 -2.437e-03
62 1 4.000e-01 0.000e+00 0.000e+00 3.611e-04 -1.480e-03 3.991e-04
63 1 0.000e+00 2.000e-01 0.000e+00 7.625e-05 -1.333e-03 -7.634e-04
64 1 0.000e+00 -2.000e-01 2.000e-01 5.136e-04 -2.600e-03 6.801e-04
ITEM: TIMESTEP
0
ITEM: NUMBER OF ATOMS
32
ITEM: BOX BOUNDS xy xz yz pp pp pp
                     -5.00000000000000e-01 5.00000000000000e-01 0.00000000000000e+00
-5.00000000000000e-01	5.00000000000000e-01	0.00000000000000e+00
-5.00000000000000e-01	5.00000000000000e-01	0.00000000000000e+00
ITEM: ATOMS id type x y z DisplacementX DisplacementY DisplacementZ
65 1 2.000e-01 -2.000e-01 2.000e-01 5.492e-04 7.664e-04 -1.785e-03
66 1 0.000e+00 0.000e+00 -2.000e-01 3.807e-04 -3.297e-04 -3.026e-04
67 1 0.000e+00 0.000e+00 2.000e-01 5.412e-04 -1.236e-03 -4.610e-04
68 1 0.000e+00 -2.000e-01 -2.000e-01 1.644e-03 -2.527e-03 -8.583e-05
69 1 2.000e-01 2.000e-01 -2.000e-01 -2.275e-03 3.667e-04 4.402e-05
70 1 -2.000e-01 -2.000e-01 -2.000e-01 -8.614e-04 -3.561e-04 -7.439e-04
71 1 0.000e+00 2.000e-01 2.000e-01 1.343e-03 3.553e-04 -1.764e-03
72 1 2.000e-01 -2.000e-01 0.000e+00 -2.891e-05 -1.200e-03 1.157e-04
73 1 2.000e-01 2.000e-01 0.000e+00 9.151e-04 -1.014e-04 6.799e-04
74 1 0.000e+00 2.000e-01 -2.000e-01 -1.302e-03 1.090e-03 -1.824e-04
75 1 0.000e+00 2.000e-01 0.000e+00 -7.297e-04 3.063e-04 -5.961e-04
76 1 0.000e+00 0.000e+00 0.000e+00 1.884e-03 -2.003e-01 1.370e-03
77 1 -4.000e-01 0.000e+00 0.000e+00 -1.284e-04 7.116e-04 -5.626e-06
78 1 2.000e-01 0.000e+00 -2.000e-01 4.604e-04 -8.727e-05 -6.689e-05
79 1 -2.000e-01 0.000e+00 -2.000e-01 -4.767e-04 -1.573e-03 1.175e-03
80 1 -2.000e-01 2.000e-01 0.000e+00 -2.500e-04 2.413e-03 1.443e-03
81 1 -2.000e-01 2.000e-01 -2.000e-01 8.920e-04 -3.312e-04 1.689e-03
82 1 -2.000e-01 0.000e+00 2.000e-01 7.026e-04 8.923e-04 -9.338e-04
83 1 -2.000e-01 -2.000e-01 2.000e-01 -1.209e-04 1.029e-03 4.111e-04
84 1 2.000e-01 -2.000e-01 -2.000e-01 2.622e-04 -5.443e-04 -1.782e-03
85 1 0.000e+00 -4.000e-01 0.000e+00 -5.279e-05 1.075e-03 7.679e-04
86 1 -2.000e-01 -2.000e-01 0.000e+00 1.468e-03 -1.047e-03 4.304e-04
87 1 0.000e+00 4.000e-01 0.000e+00 -9.176e-04 -1.102e-03 1.703e-03
88 1 -2.000e-01 2.000e-01 2.000e-01 -2.180e-04 -1.181e-04 1.628e-04
89 1 0.000e+00 0.000e+00 -4.000e-01 -9.886e-04 9.790e-04 9.357e-04
90 1 0.000e+00 -2.000e-01 2.000e-01 1.145e-04 -5.974e-05 -8.005e-04
91 1 2.000e-01 0.000e+00 2.000e-01 -3.291e-04 -1.282e-03 1.470e-03
92 1 2.000e-01 2.000e-01 2.000e-01 -2.507e-04 -1.325e-03 5.671e-04
93 1 4.000e-01 0.000e+00 0.000e+00 -9.376e-04 2.237e-03 -9.017e-04
94 1 2.000e-01 0.000e+00 0.000e+00 1.886e-03 -1.287e-03 3.799e-04
95 1 -2.000e-01 0.000e+00 0.000e+00 1.776e-03 -1.818e-03 1.091e-04
96 1 0.000e+00 0.000e+00 4.000e-01 -1.595e-04 6.752e-04 -4.903e-04
ITEM: TIMESTEP
0
ITEM: NUMBER OF ATOMS
32
ITEM: BOX BOUNDS xy xz yz pp pp pp
                     -5.00000000000000e-01 5.00000000000000e-01 0.00000000000000e+00
-5.00000000000000e-01	5.00000000000000e-01	0.00000000000000e+00
-5.00000000000000e-01	5.00000000000000e-01	0.00000000000000e+00
ITEM: ATOMS id type x y z DisplacementX DisplacementY DisplacementZ
97 1 2.000e-01 2.000e-01 2.000e-01 -7.404e-04 7.120e-04 -2.278e-04
98 1 0.000e+00 2.000e-01 -2.000e-01 1.232e-03 8.301e-04 -2.081e-04
99 1 -2.000e-01 0.000e+00 2.000e-01 -4.807e-04 -7.445e-04 4.964e-04
100 1 -2.000e-01 -2.000e-01 2.000e-01 6.111e-04 -3.477e-04 7.667e-04
101 1 0.000e+00 0.000e+00 2.000e-01 3.358e-03 1.704e-03 -1.266e-03
102 1 0.000e+00 0.000e+00 -2.000e-01 5.310e-04 2.470e-04 -3.190e-07
103 1 -2.000e-01 2.000e-01 -2.000e-01 1.150e-03 3.376e-04 6.862e-04
104 1 2.000e-01 2.000e-01 0.000e+00 -9.616e-04 1.964e-03 6.066e-04
105 1 0.000e+00 0.000e+00 -4.000e-01 -1.897e-04 -7.956e-04 7.088e-05
106 1 2.000e-01 -2.000e-01 2.000e-01 -1.418e-03 -5.663e-05 -3.991e-05
107 1 2.000e-01 -2.000e-01 0.000e+00 1.762e-03 1.128e-03 -1.802e-04
108 1 -2.000e-01 -2.000e-01 0.000e+00 6.667e-04 -5.977e-05 -7.165e-04
109 1 0.000e+00 -4.000e-01 0.000e+00 2.073e-03 -5.477e-04 9.561e-06
110 1 0.000e+00 4.000e-01 0.000e+00 -2.015e-03 -2.442e-04 -2.359e-03
111 1 0.000e+00 0.000e+00 4.000e-01 -1.607e-04 -1.206e-03 -2.239e-04
112 1 2.000e-01 -2.000e-01 -2.000e-01 3.002e-04 -7.059e-04 -1.196e-03
113 1 -4.000e-01 0.000e+00 0.000e+00 3.175e-04 -1.469e-05 4.559e-04
114 1 -2.000e-01 0.000e+00 -2.000e-01 7.270e-04 -9.334e-05 -2.814e-04
115 1 2.000e-01 0.000e+00 -2.000e-01 3.875e-04 -1.222e-03 1.368e-03
116 1 -2.000e-01 2.000e-01 2.000e-01 -1.062e-03 7.188e-04 7.423e-04
117 1 2.000e-01 2.000e-01 -2.000e-01 7.202e-04 7.346e-04 1.306e-04
118 1 0.000e+00 -2.000e-01 -2.000e-01 -6.373e-04 1.843e-03 6.072e-04
119 1 0.000e+00 0.000e+00 0.000e+00 -8.180e-04 1.998e-01 7.377e-04
120 1 2.000e-01 0.000e+00 0.000e+00 2.175e-03 -3.827e-04 -3.480e-04
121 1 -2.000e-01 2.000e-01 0.000e+00 3.170e-04 1.422e-03 -2.955e-04
122 1 0.000e+00 -2.000e-01 0.000e+00 -5.782e-04 -2.121e-04 2.116e-04
123 1 0.000e+00 -2.000e-01 2.000e-01 -8.459e-04 -7.267e-04 -1.539e-03
124 1 -2.000e-01 0.000e+00 0.000e+00 -1.114e-04 -1.485e-04 7.746e-04
125 1 0.000e+00 2.000e-01 2.000e-01 -1.727e-03 8.030e-04 5.641e-04
126 1 4.000e-01 0.000e+00 0.000e+00 8.590e-04 1.406e-03 3.556e-04
127 1 -2.000e-01 -2.000e-01 -2.000e-01 -7.430e-04 2.214e-04 7.304e-04
128 1 2.000e-01 0.000e+00 2.000e-01 6.753e-04 7.342e-04 -2.503e-04
ITEM: TIMESTEP
0
ITEM: NUMBER OF ATOMS
32
ITEM: BOX BOUNDS xy xz yz pp pp pp
                     -5.00000000000000e-01 5.00000000000000e-01 0.00000000000000e+00
-5.00000000000000e-01	5.00000000000000e-01	0.00000000000000e+00
-5.00000000000000e-01	5.00000000000000e-01	0.00000000000000e+00
ITEM: ATOMS id type x y z DisplacementX DisplacementY DisplacementZ
129 1 2.000e-01 2.000e-01 -2.000e-01 4.083e-04 4.536e-04 1.513e-04
130 1 2.000e-01 2.000e-01 2.000e-01 8.702e-04 6.683e-04 1.218e-03
131 1 2.000e-01 0.000e+00 -2.000e-01 -1.115e-04 2.047e-04 -8.728e-04
132 1 0.000e+00 -2.000e-01 2.000e-01 -2.058e-04 -8.489e-04 1.141e-03
133 1 -2.000e-01 -2.000e-01 -2.000e-01 5.174e-04 9.315e-04 5.713e-04
134 1 2.000e-01 -2.000e-01 2.000e-01 -1.042e-04 9.214e-04 1.939e-03
135 1 2.000e-01 -2.000e-01 -2.000e-01 4.403e-04 -1.077e-03 -1.137e-03
136 1 0.000e+00 0.000e+00 -2.000e-01 7.892e-04 -9.555e-04 2.213e-04
137 1 4.000e-01 0.000e+00 0.000e+00 2.145e-05 2.156e-04 -9.227e-04
138 1 0.000e+00 -4.000e-01 0.000e+00 2.593e-03 -1.784e-03 -8.720e-04
139 1 2.000e-01 2.000e-01 0.000e+00 1.631e-03 -3.248e-04 -7.542e-04
140 1 -2.000e-01 2.000e-01 -2.000e-01 3.071e-04 4.106e-05 -1.079e-03
141 1 -2.000e-01 2.000e-01 0.000e+00 -1.491e-03 -5.941e-04 8.696e-05
142 1 -2.000e-01 -2.000e-01 0.000e+00 -1.178e-05 1.568e-03 5.462e-05
143 1 0.000e+00 2.000e-01 -2.000e-01 -6.573e-04 -1.180e-03 -6.166e-04
144 1 0.000e+00 0.000e+00 -4.000e-01 3.374e-04 -2.407e-04 -1.124e-05
145 1 0.000e+00 -2.000e-01 -2.000e-01 -1.970e-03 6.887e-04 2.506e-03
146 1 0.000e+00 4.000e-01 0.000e+00 2.261e-03 1.104e-03 -3.382e-05
147 1 0.000e+00 2.000e-01 2.000e-01 5.781e-04 -1.077e-03 -7.490e-04
148 1 0.000e+00 0.000e+00 2.000e-01 -7.029e-04 -1.362e-03 -2.747e-04
149 1 2.000e-01 -2.000e-01 0.000e+00 -7.238e-04 1.055e-04 4.911e-05
150 1 0.000e+00 0.000e+00 0.000e+00 2.026e-01 -4.582e-04 -1.171e-03
151 1 -2.000e-01 0.000e+00 2.000e-01 -3.310e-04 -1.718e-03 -7.941e-04
152 1 0.000e+00 -2.000e-01 0.000e+00 -1.623e-03 3.574e-04 5.327e-04
153 1 2.000e-01 0.000e+00 2.000e-01 1.121e-03 2.681e-03 6.629e-04
154 1 -2.000e-01 -2.000e-01 2.000e-01 9.963e-04 -2.849e-04 -1.031e-03
155 1 -2.000e-01 0.000e+00 -2.000e-01 -1.658e-03 -8.543e-04 1.119e-03
156 1 0.000e+00 0.000e+00 4.000e-01 7.622e-04 -9.387e-05 -1.186e-03
157 1 -4.000e-01 0.000e+00 0.000e+00 -7.460e-05 5.934e-04 -1.631e-03
158 1 -2.000e-01 2.000e-01 2.000e-01 3.706e-04 2.247e-04 -1.486e-03
159 1 -2.000e-01 0.000e+00 0.000e+00 4.355e-05 -1.313e-03 5.926e-04
160 1 0.000e+00 2.000e-01 0.000e+00 1.762e-03 -5.770e-04 1.473e-03
ITEM: TIMESTEP
0
ITEM: NUMBER OF ATOMS
32
ITEM: BOX BOUNDS xy xz yz pp pp pp
                     -5.00000000000000e-01 5.00000000000000e-01 0.00000000000000e+00
-5.00000000000000e-01	5.00000000000000e-01	0.00000000000000e+00
-5.00000000000000e-01	5.00000000000000e-01	0.00000000000000e+00
ITEM: ATOMS id type x y z DisplacementX DisplacementY DisplacementZ
161 1 2.000e-01 0.000e+00 0.000e+00 -4.214e-05 6.934e-05 7.439e-04
162 1 0.000e+00 2.000e-01 0.000e+00 -6.167e-04 8.667e-05 -9.460e-04
163 1 0.000e+00 0.000e+00 -4.000e-01 -1.720e-04 -4.484e-04 -1.306e-03
164 1 4.000e-01 0.000e+00 0.000e+00 5.072e-04 -7.823e-04 2.294e-03
165 1 -2.000e-01 -2.000e-01 0.000e+00 -1.115e-03 2.832e-04 1.423e-04
166 1 0.000e+00 -2.000e-01 0.000e+00 2.666e-04 2.276e-03 4.836e-04
167 1 0.000e+00 4.000e-01 0.000e+00 3.018e-04 -1.400e-04 1.140e-04
168 1 2.000e-01 0.000e+00 -2.000e-01 1.238e-03 6.176e-04 -3.818e-04
169 1 2.000e-01 -2.000e-01 2.000e-01 -1.877e-04 -1.726e-03 -9.857e-05
170 1 0.000e+00 2.000e-01 -2.000e-01 -4.265e-04 -1.729e-04 -7.966e-04
171 1 0.000e+00 -2.000e-01 2.000e-01 -9.974e-05 -8.796e-05 -1.502e-03
172 1 0.000e+00 0.000e+00 2.000e-01 -1.565e-03 3.799e-04 -3.817e-04
173 1 2.000e-01 0.000e+00 2.000e-01 -1.233e-03 4.907e-04 1.128e-03
174 1 2.000e-01 2.000e-01 2.000e-01 -1.375e-04 -1.295e-03 -4.702e-04
175 1 -2.000e-01 2.000e-01 0.000e+00 2.363e-05 -1.160e-03 -7.831e-04
176 1 -2.000e-01 0.000e+00 0.000e+00 1.704e-04 -5.541e-04 -2.807e-04
177 1 0.000e+00 0.000e+00 4.000e-01 -3.643e-04 5.501e-04 -1.120e-03
178 1 0.000e+00 -2.000e-01 -2.000e-01 2.860e-04 8.819e-04 4.472e-04
179 1 2.000e-01 -2.000e-01 -2.000e-01 1.270e-03 -7.454e-05 -5.547e-04
180 1 -2.000e-01 0.000e+00 -2.000e-01 4.176e-04 -4.213e-04 1.205e-04
181 1 0.000e+00 -4.000e-01 0.000e+00 1.329e-03 -7.812e-04 -1.623e-03
182 1 -4.000e-01 0.000e+00 0.000e+00 -8.872e-04 -7.395e-04 -1.302e-03
183 1 -2.000e-01 2.000e-01 2.000e-01 -1.905e-03 5.269e-04 -5.232e-04
184 1 -2.000e-01 -2.000e-01 -2.000e-01 2.083e-04 -1.168e-03 -8.879e-04
185 1 0.000e+00 0.000e+00 0.000e+00 2.465e-04 5.570e-04 -2.008e-01
186 1 -2.000e-01 0.000e+00 2.000e-01 -1.318e-04 -7.073e-05 2.006e-04
187 1 2.000e-01 2.000e-01 0.000e+00 1.785e-04 -1.158e-05 -4.703e-04
188 1 2.000e-01 2.000e-01 -2.000e-01 2.354e-03 -9.704e-04 -1.689e-04
189 1 -2.000e-01 -2.000e-01 2.000e-01 1.366e-03 1.035e-03 2.813e-04
190 1 2.000e-01 -2.000e-01 0.000e+00 4.862e-04 6.962e-05 4.720e-04
191 1 -2.000e-01 2.000e-01 -2.000e-01 -1.583e-04 3.689e-05 -1.743e-03
192 1 0.000e+00 2.000e-01 2.000e-01 -5.442e-04 -7.591e-04 1.934e-03
ITEM: TIMESTEP
0
ITEM: NUMBER OF ATOMS
32
ITEM: BOX BOUNDS xy xz yz pp pp pp
                     -5.00000000000000e-01 5.00000000000000e-01 0.00000000000000e+00
-5.00000000000000e-01	5.00000000000000e-01	0.00000000000000e+00
-5.00000000000000e-01	5.00000000000000e-01	0.00000000000000e+00
ITEM: ATOMS id type x y z DisplacementX DisplacementY DisplacementZ
193 1 0.000e+00 0.000e+00 0.000e+00 2.013e-01 -1.084e-03 1.115e-03
194 1 2.000e-01 2.000e-01 0.000e+00 1.641e-03 8.629e-04 6.157e-05
195 1 4.000e-01 0.000e+00 0.000e+00 1.009e-03 -8.373e-04 -9.520e-04
196 1 0.000e+00 0.000e+00 2.000e-01 -2.757e-04 3.091e-05 6.153e-04
197 1 0.000e+00 0.000e+00 -4.000e-01 -1.185e-03 5.676e-04 8.374e-04
198 1 -2.000e-01 -2.000e-01 -2.000e-01 -1.141e-03 4.805e-04 5.450e-04
199 1 0.000e+00 0.000e+00 4.000e-01 4.659e-04 -1.471e-03 2.695e-03
200 1 -4.000e-01 0.000e+00 0.000e+00 1.668e-03 -9.826e-05 -9.307e-04
201 1 0.000e+00 -2.000e-01 0.000e+00 7.942e-04 -1.323e-03 1.490e-03
202 1 2.000e-01 -2.000e-01 -2.000e-01 4.684e-04 -2.938e-04 -1.069e-03
203 1 2.000e-01 0.000e+00 -2.000e-01 -5.104e-04 1.335e-03 1.297e-03
204 1 -2.000e-01 2.000e-01 -2.000e-01 9.142e-04 7.221e-05 -1.323e-03
205 1 2.000e-01 -2.000e-01 0.000e+00 -4.016e-04 -9.138e-04 4.547e-04
206 1 0.000e+00 0.000e+00 -2.000e-01 8.882e-06 6.276e-04 1.982e-04
207 1 0.000e+00 4.000e-01 0.000e+00 -1.366e-03 -1.159e-03 -1.039e-03
208 1 2.000e-01 2.000e-01 -2.000e-01 -1.673e-04 9.516e-04 2.625e-04
209 1 0.000e+00 -4.000e-01 0.000e+00 -1.934e-03 1.294e-03 -9.131e-04
210 1 -2.000e-01 0.000e+00 0.000e+00 1.806e-04 -1.365e-03 1.141e-03
211 1 2.000e-01 0.000e+00 2.000e-01 9.769e-04 3.005e-04 -2.659e-04
212 1 0.000e+00 2.000e-01 -2.000e-01 2.419e-04 4.776e-05 -7.546e-04
213 1 -2.000e-01 2.000e-01 2.000e-01 5.179e-04 3.497e-04 3.037e-04
214 1 0.000e+00 2.000e-01 0.000e+00 -2.076e-04 1.186e-03 -5.155e-04
215 1 -2.000e-01 0.000e+00 2.000e-01 4.387e-04 1.756e-03 7.556e-04
216 1 0.000e+00 -2.000e-01 -2.000e-01 1.851e-03 3.009e-04 1.159e-04
217 1 -2.000e-01 -2.000e-01 0.000e+00 8.287e-04 4.496e-04 -3.164e-04
218 1 0.000e+00 -2.000e-01 2.000e-01 1.108e-03 -3.090e-04 -9.654e-04
219 1 -2.000e-01 -2.000e-01 2.000e-01 4.092e-04 6.604e-04 -4.242e-04
220 1 2.000e-01 -2.000e-01 2.000e-01 -1.206e-03 5.292e-04 -5.205e-06
221 1 -2.000e-01 2.000e-01 0.000e+00 3.260e-04 -1.297e-03 -5.374e-04
222 1 0.000e+00 2.000e-01 2.000e-01 2.020e-04 1.359e-03 -1.123e-03
223 1 2.000e-01 2.000e-01 2.000e-01 1.748e-03 1.032e-03 -2.298e-03
224 1 -2.000e-01 0.000e+00 -2.000e-01 -1.127e-03 -2.590e-04 2.755e-04
ITEM: TIMESTEP
0
ITEM: NUMBER OF ATOMS
32
ITEM: BOX BOUNDS xy xz yz pp pp pp
                     -5.00000000000000e-01 5.00000000000000e-01 0.00000000000000e+00
-5.00000000000000e-01	5.00000000000000e-01	0.00000000000000e+00
-5.00000000000000e-01	5.00000000000000e-01	0.00000000000000e+00
ITEM: ATOMS id type x y z DisplacementX DisplacementY DisplacementZ
225 1 0.000e+00 0.000e+00 -4.000e-01 1.484e-04 9.420e-04 1.237e-03
226 1 -2.000e-01 -2.000e-01 0.000e+00 -1.180e-03 -1.047e-03 -9.112e-04
227 1 0.000e+00 0.000e+00 0.000e+00 1.387e-04 -2.010e-01 8.383e-04
228 1 2.000e-01 2.000e-01 0.000e+00 -9.580e-04 -1.006e-03 1.867e-03
229 1 2.000e-01 -2.000e-01 0.000e+00 7.840e-04 -1.765e-04 1.383e-04
230 1 -2.000e-01 -2.000e-01 2.000e-01 1.288e-04 1.350e-03 -1.785e-03
231 1 2.000e-01 2.000e-01 2.000e-01 -7.966e-04 -3.323e-04 -8.709e-05
232 1 0.000e+00 -2.000e-01 -2.000e-01 3.222e-04 9.492e-04 8.126e-04
233 1 -2.000e-01 2.000e-01 -2.000e-01 -1.805e-03 -2.651e-04 1.032e-03
234 1 0.000e+00 -4.000e-01 0.000e+00 1.946e-03 -2.955e-04 -6.054e-04
235 1 0.000e+00 2.000e-01 0.000e+00 6.795e-04 2.988e-05 -7.702e-04
236 1 -2.000e-01 -2.000e-01 -2.000e-01 8.859e-06 1.754e-04 -4.939e-04
237 1 -2.000e-01 2.000e-01 0.000e+00 -2.052e-03 7.517e-04 -1.399e-04
238 1 0.000e+00 0.000e+00 -2.000e-01 -8.758e-04 2.254e-03 -1.572e-04
239 1 2.000e-01 0.000e+00 0.000e+00 -7.446e-04 -1.644e-03 1.814e-03
240 1 2.000e-01 2.000e-01 -2.000e-01 -7.537e-04 3.254e-04 -2.467e-04
241 1 0.000e+00 -2.000e-01 2.000e-01 4.991e-04 1.175e-03 1.532e-04
242 1 2.000e-01 -2.000e-01 -2.000e-01 -9.326e-04 -9.257e-04 -4.388e-04
243 1 4.000e-01 0.000e+00 0.000e+00 7.380e-04 6.822e-05 -3.036e-06
244 1 0.000e+00 2.000e-01 -2.000e-01 -9.269e-04 -1.122e-03 -9.655e-04
245 1 -2.000e-01 0.000e+00 -2.000e-01 -7.675e-04 -2.483e-03 -5.046e-04
246 1 -2.000e-01 0.000e+00 0.000e+00 1.342e-03 -5.771e-04 1.010e-03
247 1 0.000e+00 2.000e-01 2.000e-01 -8.515e-05 2.166e-03 1.051e-03
248 1 -2.000e-01 2.000e-01 2.000e-01 2.287e-03 9.397e-04 -5.604e-04
249 1 -4.000e-01 0.000e+00 0.000e+00 3.908e-04 3.179e-05 7.141e-04
250 1 0.000e+00 0.000e+00 4.000e-01 -1.965e-04 1.103e-03 3.877e-05
251 1 2.000e-01 0.000e+00 -2.000e-01 -1.084e-03 -1.166e-03 -3.028e-03
252 1 2.000e-01 -2.000e-01 2.000e-01 1.026e-03 1.032e-03 5.210e-04
253 1 2.000e-01 0.000e+00 2.000e-01 6.670e-04 -3.296e-04 1.126e-03
254 1 0.000e+00 4.000e-01 0.000e+00 1.175e-04 -2.048e-04 5.740e-04
255 1 -2.000e-01 0.000e+00 2.000e-01 -1.902e-03 -3.467e-04 3.250e-04
256 1 0.000e+00 0.000e+00 2.000e-01 -1.629e-04 -1.754e-03 4.243e-04
ITEM: TIMESTEP
0
ITEM: NUMBER OF ATOMS
32
ITEM: BOX BOUNDS xy xz yz pp pp pp
                     -5.00000000000000e-01 5.00000000000000e-01 0.00000000000000e+00
-5.00000000000000e-01	5.00000000000000e-01	0.00000000000000e+00
-5.00000000000000e-01	5.00000000000000e-01	0.00000000000000e+00
ITEM: ATOMS id type x y z DisplacementX DisplacementY DisplacementZ
257 1 0.000e+00 0.000e+00 -4.000e-01 -3.106e-04 1.153e-03 4.433e-04
258 1 -4.000e-01 0.000e+00 0.000e+00 -8.177e-04 -8.413e-05 -2.542e-03
259 1 -2.000e-01 2.000e-01 0.000e+00 4.603e-04 -1.138e-03 -7.231e-04
260 1 0.000e+00 4.000e-01 0.000e+00 8.304e-04 -1.607e-03 1.975e-03
261 1 0.000e+00 0.000e+00 0.000e+00 -1.991e-01 1.275e-03 1.027e-03
262 1 2.000e-01 0.000e+00 0.000e+00 1.033e-04 2.040e-04 4.505e-05
263 1 2.000e-01 -2.000e-01 -2.000e-01 -5.576e-04 -1.210e-03 -1.394e-03
264 1 -2.000e-01 -2.000e-01 -2.000e-01 -5.559e-04 8.771e-04 6.750e-04
265 1 2.000e-01 2.000e-01 2.000e-01 2.700e-04 7.660e-04 2.576e-04
266 1 -2.000e-01 0.000e+00 -2.000e-01 -5.496e-04 9.617e-05 9.957e-04
267 1 2.000e-01 0.000e+00 -2.000e-01 -5.373e-05 -7.950e-04 -4.032e-04
268 1 0.000e+00 0.000e+00 4.000e-01 1.271e-03 9.575e-05 -2.349e-04
269 1 -2.000e-01 -2.000e-01 0.000e+00 -8.329e-05 2.681e-04 9.626e-04
270 1 2.000e-01 2.000e-01 -2.000e-01 2.112e-04 -6.610e-04 -3.654e-04
271 1 2.000e-01 -2.000e-01 2.000e-01 5.094e-04 -6.602e-05 -4.933e-04
272 1 2.000e-01 -2.000e-01 0.000e+00 6.339e-04 -2.125e-03 4.407e-04
273 1 0.000e+00 -2.000e-01 2.000e-01 -1.495e-04 -8.720e-05 1.348e-03
274 1 -2.000e-01 2.000e-01 -2.000e-01 2.349e-03 4.547e-04 1.715e-03
275 1 4.000e-01 0.000e+00 0.000e+00 -1.025e-03 1.616e-03 -5.917e-04
276 1 0.000e+00 2.000e-01 0.000e+00 -2.141e-04 4.501e-04 7.472e-05
277 1 -2.000e-01 0.000e+00 2.000e-01 1.049e-03 1.641e-03 2.112e-03
278 1 0.000e+00 0.000e+00 -2.000e-01 -3.165e-04 2.000e-03 1.261e-03
279 1 2.000e-01 2.000e-01 0.000e+00 -5.504e-04 -1.764e-03 -2.288e-03
280 1 0.000e+00 -4.000e-01 0.000e+00 4.633e-04 -1.140e-03 1.632e-03
281 1 -2.000e-01 -2.000e-01 2.000e-01 1.532e-03 1.522e-03 -4.360e-04
282 1 0.000e+00 2.000e-01 -2.000e-01 9.003e-05 2.854e-04 5.487e-04
283 1 0.000e+00 0.000e+00 2.000e-01 -1.557e-03 -3.172e-04 5.645e-04
284 1 0.000e+00 2.000e-01 2.000e-01 1.075e-04 -2.626e-04 1.681e-03
285 1 2.000e-01 0.000e+00 2.000e-01 -1.388e-03 -6.012e-05 -8.781e-04
286 1 0.000e+00 -2.000e-01 0.000e+00 1.673e-04 -9.792e-05 -8.058e-04
287 1 -2.000e-01 2.000e-01 2.000e-01 1.282e-03 -2.705e-04 1.274e-04
288 1 0.000e+00 -2.000e-01 -2.000e-01 1.171e-03 -1.137e-03 3.038e-04
ITEM: TIMESTEP
0
ITEM: NUMBER OF ATOMS
32
ITEM: BOX BOUNDS xy xz yz pp pp pp
                     -5.00000000000000e-01 5.00000000000000e-01 0.00000000000000e+00
-5.00000000000000e-01	5.00000000000000e-01	0.00000000000000e+00
-5.00000000000000e-01	5.00000000000000e-01	0.00000000000000e+00
ITEM: ATOMS id type x y z DisplacementX DisplacementY DisplacementZ
289 1 2.000e-01 0.000e+00 -2.000e-01 2.963e-04 4.916e-04 -7.141e-04
290 1 2.000e-01 2.000e-01 -2.000e-01 6.569e-04 8.463e-04 3.537e-05
291 1 0.000e+00 2.000e-01 -2.000e-01 -2.544e-03 5.214e-04 3.060e-04
292 1 -2.000e-01 0.000e+00 2.000e-01 1.143e-03 -1.218e-03 4.461e-04
293 1 0.000e+00 2.000e-01 2.000e-01 -8.772e-04 -8.634e-04 1.898e-04
294 1 2.000e-01 0.000e+00 2.000e-01 2.368e-03 -1.200e-03 1.380e-03
295 1 0.000e+00 0.000e+00 -4.000e-01 -5.785e-04 2.375e-03 -8.051e-05
296 1 -2.000e-01 0.000e+00 -2.000e-01 2.234e-04 1.182e-03 -5.596e-04
297 1 -2.000e-01 -2.000e-01 2.000e-01 1.249e-03 -2.301e-03 3.216e-04
298 1 0.000e+00 -2.000e-01 0.000e+00 -1.267e-03 -3.111e-04 -4.830e-04
299 1 0.000e+00 0.000e+00 0.000e+00 -1.123e-03 -8.192e-04 2.013e-01
300 1 4.000e-01 0.000e+00 0.000e+00 1.726e-03 3.107e-04 2.403e-03
301 1 0.000e+00 -4.000e-01 0.000e+00 -8.571e-04 -1.360e-04 -1.015e-03
302 1 0.000e+00 -2.000e-01 2.000e-01 -1.053e-03 7.883e-04 3.078e-04
303 1 -2.000e-01 -2.000e-01 -2.000e-01 -6.016e-04 2.702e-04 6.863e-04
304 1 -2.000e-01 0.000e+00 0.000e+00 -2.293e-04 -1.562e-03 -3.189e-04
305 1 0.000e+00 0.000e+00 -2.000e-01 1.935e-05 -6.826e-04 2.030e-03
306 1 0.000e+00 2.000e-01 0.000e+00 1.316e-03 -1.880e-04 -1.132e-03
307 1 2.000e-01 2.000e-01 2.000e-01 6.264e-04 6.568e-04 -5.206e-05
308 1 0.000e+00 0.000e+00 4.000e-01 9.789e-04 -8.820e-04 1.337e-03
309 1 2.000e-01 0.000e+00 0.000e+00 -4.016e-04 -6.212e-04 -6.221e-04
310 1 0.000e+00 4.000e-01 0.000e+00 4.007e-04 1.289e-03 3.612e-04
311 1 -2.000e-01 2.000e-01 0.000e+00 -1.066e-03 8.567e-04 1.012e-03
312 1 -2.000e-01 2.000e-01 2.000e-01 -3.857e-04 1.221e-03 -7.812e-04
313 1 2.000e-01 -2.000e-01 -2.000e-01 -4.897e-04 9.588e-04 -3.831e-05
314 1 -2.000e-01 -2.000e-01 0.000e+00 2.701e-04 -2.441e-03 -1.218e-03
315 1 -2.000e-01 2.000e-01 -2.000e-01 -1.326e-03 -1.753e-03 -1.172e-03
316 1 0.000e+00 -2.000e-01 -2.000e-01 -3.718e-04 1.188e-03 -2.558e-04
317 1 2.000e-01 2.000e-01 0.000e+00 1.474e-03 7.725e-04 -9.928e-05
318 1 2.000e-01 -2.000e-01 2.000e-01 -2.266e-03 1.538e-03 -2.535e-04
319 1 -4.000e-01 0.000e+00 0.000e+00 -2.315e-04 -1.432e-03 1.430e-03
320 1 2.000e-01 -2.000e-01 0.000e+00 6.543e-04 -2.634e-03 -2.506e-03
ITEM: TIMESTEP
0
ITEM: NUMBER OF ATOMS
32
ITEM: BOX BOUNDS xy xz yz pp pp pp
                     -5.00000000000000e-01 5.00000000000000e-01 0.00000000000000e+00
-5.00000000000000e-01	5.00000000000000e-01	0.00000000000000e+00
-5.00000000000000e-01	5.00000000000000e-01	0.00000000000000e+00
ITEM: ATOMS id type x y z DisplacementX DisplacementY DisplacementZ
321 1 -2.000e-01 -2.000e-01 -2.000e-01 1.041e-03 3.446e-04 1.284e-04
322 1 -2.000e-01 2.000e-01 0.000e+00 -2.378e-04 -1.081e-04 1.609e-03
323 1 0.000e+00 4.000e-01 0.000e+00 9.752e-04 -1.429e-03 -2.889e-04
324 1 2.000e-01 2.000e-01 0.000e+00 -3.125e-04 1.252e-03 -1.098e-05
325 1 -2.000e-01 2.000e-01 2.000e-01 1.950e-03 4.394e-04 -1.337e-04
326 1 -2.000e-01 0.000e+00 0.000e+00 -1.925e-03 1.605e-04 9.473e-04
327 1 0.000e+00 0.000e+00 -2.000e-01 1.668e-04 -8.694e-04 7.607e-04
328 1 0.000e+00 2.000e-01 -2.000e-01 1.437e-03 6.434e-04 -4.381e-04
329 1 0.000e+00 -2.000e-01 -2.000e-01 3.730e-04 -2.856e-04 -8.874e-04
330 1 0.000e+00 0.000e+00 0.000e+00 -5.966e-04 1.995e-01 1.179e-03
331 1 0.000e+00 -2.000e-01 2.000e-01 -8.042e-04 -3.685e-04 1.201e-03
332 1 4.000e-01 0.000e+00 0.000e+00 -4.975e-04 -2.122e-04 9.232e-04
333 1 2.000e-01 0.000e+00 2.000e-01 5.795e-04 -7.768e-04 -1.808e-03
334 1 0.000e+00 -4.000e-01 0.000e+00 -1.159e-04 -1.322e-03 2.281e-04
335 1 -2.000e-01 2.000e-01 -2.000e-01 4.958e-04 -2.970e-04 -4.067e-04
336 1 -2.000e-01 -2.000e-01 0.000e+00 1.033e-03 1.287e-04 1.730e-03
337 1 2.000e-01 -2.000e-01 -2.000e-01 -1.424e-03 3.935e-04 -6.110e-04
338 1 0.000e+00 2.000e-01 2.000e-01 9.171e-04 -6.718e-04 2.313e-04
339 1 2.000e-01 2.000e-01 -2.000e-01 4.048e-04 -4.830e-04 2.047e-03
340 1 -2.000e-01 0.000e+00 -2.000e-01 4.494e-05 -7.838e-04 -4.644e-04
341 1 -4.000e-01 0.000e+00 0.000e+00 1.107e-03 -8.158e-04 -1.503e-03
342 1 -2.000e-01 0.000e+00 2.000e-01 3.758e-04 -2.688e-04 -7.732e-04
343 1 2.000e-01 -2.000e-01 0.000e+00 -3.780e-04 -5.401e-04 2.190e-03
344 1 0.000e+00 0.000e+00 -4.000e-01 -4.975e-04 -6.391e-04 -7.067e-04
345 1 0.000e+00 0.000e+00 4.000e-01 -2.110e-03 -5.122e-04 -8.190e-04
346 1 0.000e+00 0.000e+00 2.000e-01 6.132e-04 1.927e-04 -2.631e-04
347 1 2.000e-01 2.000e-01 2.000e-01 -4.977e-06 -1.552e-03 9.885e-04
348 1 2.000e-01 0.000e+00 0.000e+00 1.572e-03 4.519e-04 -1.084e-03
349 1 0.000e+00 -2.000e-01 0.000e+00 1.067e-03 1.365e-03 6.593e-04
350 1 2.000e-01 0.000e+00 -2.000e-01 1.279e-03 6.199e-04 1.999e-04
351 1 2.000e-01 -2.000e-01 2.000e-01 -1.439e-03 -5.321e-04 -9.636e-04
352 1 -2.000e-01 -2.000e-01 2.000e-01 4.070e-04 2.224e-03 -2.526e-04
ITEM: TIMESTEP
0
ITEM: NUMBER OF ATOMS
32
ITEM: BOX BOUNDS xy xz yz pp pp pp
                     -5.00000000000000e-01 5.00000000000000e-01 0.00000000000000e+00
-5.00000000000000e-01	5.00000000000000e-01	0.00000000000000e+00
-5.00000000000000e-01	5.00000000000000e-01	0.00000000000000e+00
ITEM: ATOMS id type x y z DisplacementX DisplacementY DisplacementZ
353 1 -2.000e-01 0.000e+00 -2.000e-01 -4.780e-04 -6.552e-06 1.659e-03
354 1 0.000e+00 2.000e-01 -2.000e-01 -1.644e-04 -9.730e-04 6.918e-04
355 1 2.000e-01 0.000e+00 -2.000e-01 1.219e-03 2.121e-04 4.278e-04
356 1 0.000e+00 0.000e+00 2.000e-01 -1.338e-03 1.196e-03 1.820e-05
357 1 -2.000e-01 0.000e+00 0.000e+00 -6.568e-04 4.908e-04 2.627e-04
358 1 -2.000e-01 2.000e-01 2.000e-01 2.180e-06 -1.473e-03 5.287e-04
359 1 -2.000e-01 0.000e+00 2.000e-01 -5.637e-04 1.857e-03 -4.697e-04
360 1 -2.000e-01 -2.000e-01 -2.000e-01 4.589e-04 -1.113e-03 6.929e-04
361 1 -2.000e-01 -2.000e-01 2.000e-01 4.944e-04 1.698e-03 6.671e-04
362 1 0.000e+00 0.000e+00 -4.000e-01 -8.566e-04 -1.197e-03 8.219e-05
363 1 2.000e-01 0.000e+00 2.000e-01 6.308e-04 -4.383e-04 2.459e-04
364 1 0.000e+00 -2.000e-01 -2.000e-01 1.051e-04 -1.467e-03 -1.593e-04
365 1 2.000e-01 2.000e-01 2.000e-01 3.458e-04 1.022e-04 1.056e-03
366 1 0.000e+00 -4.000e-01 0.000e+00 1.404e-03 -1.340e-03 2.480e-04
367 1 2.000e-01 -2.000e-01 0.000e+00 4.426e-04 6.001e-04 1.075e-03
368 1 0.000e+00 0.000e+00 4.000e-01 1.437e-04 8.191e-04 -3.697e-04
369 1 2.000e-01 2.000e-01 -2.000e-01 1.168e-05 -1.966e-04 1.129e-03
370 1 0.000e+00 0.000e+00 0.000e+00 -2.053e-03 1.606e-03 -2.007e-01
371 1 -2.000e-01 2.000e-01 -2.000e-01 -7.483e-04 6.799e-04 4.885e-04
372 1 0.000e+00 4.000e-01 0.000e+00 1.119e-03 -1.370e-03 -5.489e-04
373 1 -4.000e-01 0.000e+00 0.000e+00 1.149e-03 -5.261e-04 1.335e-04
374 1 -2.000e-01 -2.000e-01 0.000e+00 1.127e-03 -7.643e-04 -1.155e-03
375 1 0.000e+00 -2.000e-01 2.000e-01 -5.573e-04 -1.014e-03 -8.156e-04
376 1 0.000e+00 -2.000e-01 0.000e+00 8.179e-04 1.479e-03 3.842e-04
377 1 0.000e+00 2.000e-01 2.000e-01 7.631e-04 -3.151e-04 4.322e-05