ITEM: TIMESTEP
0
ITEM: NUMBER OF ATOMS
107
ITEM: BOX BOUNDS xy xz yz pp pp pp
                     0.00000000000000e+00 1.06000000000000e+01 0.00000000000000e+00
0.00000000000000e+00	1.06000000000000e+01	0.00000000000000e+00
0.00000000000000e+00	1.06000000000000e+01	0.00000000000000e+00
ITEM: ATOMS id type x y z DisplacementX DisplacementY DisplacementZ
1 1 3.529e-01 3.513e-01 3.541e-01 -1.931e-04 -1.166e-03 1.431e-03
2 1 2.123e+00 2.126e+00 3.536e-01 -5.551e-04 6.509e-04 -3.769e-04
3 1 2.124e+00 3.531e-01 2.123e+00 -2.382e-03 6.389e-04 -1.298e-03
4 1 3.527e-01 2.124e+00 2.126e+00 -3.953e-03 -1.356e-02 -1.650e-02
5 1 3.895e+00 3.535e-01 3.545e-01 -3.404e-04 -3.295e-04 7.023e-04
6 1 5.665e+00 2.123e+00 3.564e-01 1.491e-03 -1.289e-02 -1.620e-02
7 1 5.666e+00 3.515e-01 2.126e+00 -2.802e-03 -1.312e-02 -1.922e-02
8 1 3.895e+00 2.123e+00 2.125e+00 5.510e-03 -1.331e-02 -1.639e-02
9 1 7.434e+00 3.501e-01 3.566e-01 -5.933e-04 -1.335e-02 -2.216e-02
10 1 9.204e+00 2.126e+00 3.554e-01 -2.413e-03 -1.439e-02 -1.670e-02
11 1 9.202e+00 3.492e-01 2.126e+00 3.317e-03 -1.436e-02 -1.892e-02
12 1 7.433e+00 2.125e+00 2.123e+00 -6.669e-04 -2.474e-02 -1.721e-02
13 1 3.530e-01 3.896e+00 3.557e-01 -2.969e-03 -1.515e-02 -1.707e-02
14 1 2.126e+00 3.895e+00 2.125e+00 -9.545e-04 -1.998e-02 -1.765e-02
15 1 3.896e+00 3.895e+00 3.555e-01 1.213e-03 -1.485e-02 -1.482e-02
16 1 5.667e+00 3.896e+00 2.125e+00 8.629e-03 -9.995e-03 -1.640e-02
17 1 7.435e+00 3.896e+00 3.569e-01 1.384e-03 -1.119e-02 -1.116e-02
18 1 9.203e+00 3.898e+00 2.126e+00 -7.296e-03 -9.553e-03 -1.882e-02
19 1 3.513e-01 3.498e-01 3.895e+00 4.708e-04 8.640e-04 -3.311e-04
20 1 2.121e+00 2.125e+00 3.895e+00 9.537e-04 -1.237e-03 -4.593e-04
21 1 3.896e+00 3.494e-01 3.894e+00 1.113e-03 -8.835e-04 -2.021e-03
22 1 5.661e+00 2.125e+00 3.893e+00 4.322e-03 -1.162e-02 -1.724e-02
23 1 7.435e+00 3.638e-01 3.894e+00 2.317e-04 -2.775e-02 -1.578e-02
24 1 9.207e+00 2.124e+00 3.891e+00 -3.429e-03 -1.504e-02 -1.961e-02
25 1 3.506e-01 3.897e+00 3.894e+00 -1.424e-04 -1.706e-02 -1.814e-02
26 1 3.898e+00 3.897e+00 3.893e+00 -4.986e-04 -1.738e-02 -1.818e-02
27 1 7.435e+00 3.886e+00 3.895e+00 -2.115e-03 3.368e-03 -2.634e-02
28 1 2.125e+00 3.539e-01 5.663e+00 7.109e-04 -6.581e-04 -2.363e-03
29 1 3.539e-01 2.123e+00 5.664e+00 -1.825e-03 3.689e-05 9.419e-04
30 1 5.666e+00 3.507e-01 5.662e+00 -1.036e-03 2.181e-03 1.544e-03
31 1 3.895e+00 2.124e+00 5.665e+00 1.556e-03 -6.827e-04 1.927e-04
32 1 9.202e+00 3.507e-01 5.663e+00 -3.124e-04 1.352e-03 6.827e-04
33 1 7.435e+00 2.126e+00 5.665e+00 -9.227e-04 -1.385e-02 -2.222e-02
34 1 2.124e+00 3.894e+00 5.664e+00 2.219e-03 1.118e-04 8.278e-04
35 1 5.667e+00 3.895e+00 5.663e+00 9.358e-04 -1.710e-02 -1.828e-02
36 1 9.200e+00 3.897e+00 5.664e+00 3.372e-04 -1.690e-02 -1.807e-02
37 1 3.526e-01 3.532e-01 7.431e+00 -1.209e-03 -1.348e-03 1.058e-05
38 1 2.124e+00 2.125e+00 7.435e+00 1.523e-04 1.084e-03 -1.390e-03
39 1 2.124e+00 3.521e-01 9.205e+00 5.127e-04 9.118e-04 -5.384e-04
40 1 3.513e-01 2.123e+00 9.203e+00 -4.728e-04 -8.548e-04 -7.189e-05
41 1 3.896e+00 3.539e-01 7.431e+00 1.249e-03 -4.654e-05 5.332e-04
42 1 5.664e+00 2.122e+00 7.433e+00 -1.813e-04 8.622e-05 6.875e-04
43 1 5.665e+00 3.530e-01 9.204e+00 -1.401e-03 -1.111e-03 -7.788e-05
44 1 3.895e+00 2.125e+00 9.205e+00 -1.208e-03 -1.549e-04 -7.055e-04
45 1 7.436e+00 3.517e-01 7.432e+00 -6.957e-04 7.967e-04 2.276e-04
46 1 9.201e+00 2.122e+00 7.433e+00 -1.860e-03 3.897e-04 -8.282e-04
47 1 9.203e+00 3.520e-01 9.204e+00 -5.301e-04 -1.084e-03 -1.458e-03
48 1 7.435e+00 2.124e+00 9.203e+00 -8.275e-04 -1.450e-02 -1.531e-02
49 1 3.519e-01 3.896e+00 7.433e+00 -7.509e-05 -1.911e-03 1.169e-03
50 1 2.126e+00 3.894e+00 9.203e+00 5.343e-04 -4.622e-04 8.012e-04
51 1 3.895e+00 3.893e+00 7.433e+00 1.977e-04 -1.906e-04 -2.200e-04
52 1 5.664e+00 3.896e+00 9.203e+00 4.742e-04 -1.567e-02 -1.432e-02
53 1 7.433e+00 3.896e+00 7.430e+00 7.234e-04 -2.125e-02 -1.246e-02
54 1 9.203e+00 3.894e+00 9.205e+00 -1.357e-03 -1.657e-02 -1.258e-02
55 1 2.126e+00 5.667e+00 3.544e-01 -1.710e-03 -1.789e-02 -1.793e-02
56 1 3.522e-01 5.666e+00 2.124e+00 1.166e-02 -1.731e-02 -1.966e-02
57 1 5.667e+00 5.665e+00 3.562e-01 9.096e-03 -1.794e-02 -1.160e-02
58 1 3.898e+00 5.664e+00 2.126e+00 -1.208e-02 -1.711e-02 -1.926e-02
59 1 9.201e+00 5.666e+00 3.577e-01 -6.056e-03 -1.861e-02 -1.103e-02
60 1 7.433e+00 5.672e+00 2.131e+00 -1.112e-03 1.737e+00 1.735e+00
61 1 3.514e-01 7.435e+00 3.570e-01 -1.093e-04 -1.961e-02 -1.752e-02
62 1 2.122e+00 9.204e+00 3.531e-01 1.154e-03 1.778e-03 1.514e-03
63 1 2.122e+00 7.436e+00 2.122e+00 -3.218e-04 -1.518e-02 -1.489e-02
64 1 3.515e-01 9.204e+00 2.126e+00 -5.182e-04 -1.753e-02 -1.818e-02
65 1 3.899e+00 7.435e+00 3.575e-01 -1.273e-03 -1.741e-02 -1.609e-02
66 1 5.664e+00 9.202e+00 3.569e-01 7.743e-04 -1.694e-02 -1.656e-02
67 1 5.672e+00 7.434e+00 2.132e+00 -4.867e-05 -2.463e-02 -2.685e-02
68 1 3.897e+00 9.200e+00 2.126e+00 1.203e-03 -1.983e-02 -1.900e-02
69 1 7.434e+00 7.435e+00 3.467e-01 -1.353e-03 -2.709e-02 7.500e-04
70 1 9.202e+00 9.202e+00 3.558e-01 -3.717e-04 -1.638e-02 -1.827e-02
71 1 9.194e+00 7.435e+00 2.133e+00 6.302e-04 -2.583e-02 -2.701e-02
72 1 7.434e+00 9.194e+00 2.135e+00 6.249e-06 2.445e-03 -2.585e-02
73 1 2.125e+00 5.663e+00 3.894e+00 -1.251e-03 -1.704e-02 -1.517e-02
74 1 5.673e+00 5.674e+00 3.893e+00 1.130e-03 -2.508e-02 -2.781e-02
75 1 9.196e+00 5.674e+00 3.893e+00 -8.432e-04 -2.479e-02 -2.519e-02
76 1 3.646e-01 7.433e+00 3.895e+00 -1.186e-02 -1.831e-02 -1.813e-02
77 1 2.124e+00 9.205e+00 3.895e+00 8.008e-04 1.167e-03 1.614e-03
78 1 3.885e+00 7.433e+00 3.895e+00 1.236e-02 -1.863e-02 -1.824e-02
79 1 5.672e+00 9.196e+00 3.893e+00 -7.914e-03 -8.458e-03 -1.879e-02
80 1 9.194e+00 9.193e+00 3.894e+00 7.927e-03 -9.529e-03 -1.746e-02
81 1 3.507e-01 5.665e+00 5.664e+00 8.766e-04 -1.751e-02 -1.702e-02
82 1 3.896e+00 5.665e+00 5.663e+00 -2.145e-04 -1.674e-02 -1.748e-02
83 1 7.435e+00 5.671e+00 5.656e+00 9.732e-04 -2.652e-02 1.573e-03
84 1 2.123e+00 7.432e+00 5.665e+00 -3.125e-04 5.513e-04 -7.358e-05
85 1 3.522e-01 9.204e+00 5.663e+00 -1.670e-03 1.496e-04 -1.119e-04
86 1 5.673e+00 7.433e+00 5.655e+00 -8.372e-03 -1.713e-02 -9.309e-03
87 1 3.897e+00 9.204e+00 5.663e+00 -2.129e-03 -1.808e-04 -5.540e-05
88 1 9.195e+00 7.433e+00 5.653e+00 8.624e-03 -1.797e-02 -9.320e-03
89 1 7.433e+00 9.196e+00 5.655e+00 5.482e-04 -9.109e-03 -1.108e-02
90 1 2.125e+00 5.664e+00 7.434e+00 -1.335e-03 9.653e-04 -4.256e-04
91 1 3.546e-01 5.662e+00 9.204e+00 -3.506e-03 -1.711e-02 -1.357e-02
92 1 5.665e+00 5.665e+00 7.433e+00 -2.480e-03 -1.577e-02 -1.356e-02
93 1 3.894e+00 5.667e+00 9.203e+00 3.884e-03 -1.558e-02 -1.371e-02
94 1 9.203e+00 5.667e+00 7.431e+00 4.380e-03 -1.873e-02 -1.387e-02
95 1 7.433e+00 5.662e+00 9.207e+00 1.830e-03 -1.596e-02 -2.531e-02
96 1 3.500e-01 7.433e+00 7.432e+00 3.666e-04 -5.787e-04 -8.993e-04
97 1 2.124e+00 9.203e+00 7.433e+00 1.709e-04 -1.547e-04 -6.427e-04
98 1 2.125e+00 7.435e+00 9.203e+00 9.631e-04 1.955e-03 8.189e-04
99 1 3.526e-01 9.204e+00 9.204e+00 -1.906e-04 1.452e-03 -1.451e-03
100 1 3.897e+00 7.435e+00 7.431e+00 2.937e-04 7.906e-04 -2.885e-04
101 1 5.664e+00 9.202e+00 7.432e+00 -8.443e-04 2.575e-04 3.402e-05
102 1 5.661e+00 7.435e+00 9.204e+00 4.170e-03 -1.996e-02 -1.517e-02
103 1 3.894e+00 9.203e+00 9.205e+00 -2.509e-03 2.004e-03 2.062e-06
104 1 7.433e+00 7.435e+00 7.443e+00 -3.197e-04 -1.525e-02 -2.680e-02
105 1 9.202e+00 9.203e+00 7.431e+00 6.128e-04 -2.245e-06 -8.545e-04
106 1 9.205e+00 7.434e+00 9.204e+00 -2.848e-03 -1.881e-02 -1.422e-02
107 1 7.433e+00 9.206e+00 9.204e+00 8.465e-04 -1.868e-02 -1.491e-02
ITEM: TIMESTEP
0
ITEM: NUMBER OF ATOMS
107
ITEM: BOX BOUNDS xy xz yz pp pp pp
                     0.00000000000000e+00 1.06000000000000e+01 0.00000000000000e+00
0.00000000000000e+00	1.06000000000000e+01	0.00000000000000e+00
0.00000000000000e+00	1.06000000000000e+01	0.00000000000000e+00
ITEM: ATOMS id type x y z DisplacementX DisplacementY DisplacementZ
1 1 3.529e-01 3.513e-01 3.541e-01 -1.336e-03 -2.669e-03 -2.255e-03
2 1 2.123e+00 2.126e+00 3.536e-01 5.534e-04 -1.581e-03 -1.892e-03
3 1 2.124e+00 3.531e-01 2.123e+00 -1.360e-02 -3.067e-03 -1.663e-02
4 1 3.527e-01 2.124e+00 2.126e+00 4.812e-04 1.150e-03 4.442e-04
5 1 3.895e+00 3.535e-01 3.545e-01 -1.454e-02 -2.536e-03 -1.584e-02
6 1 5.665e+00 2.123e+00 3.564e-01 -1.623e-02 7.384e-04 -1.928e-02
7 1 5.666e+00 3.515e-01 2.126e+00 -1.828e-02 1.165e-02 -1.794e-02
8 1 3.895e+00 2.123e+00 2.125e+00 -1.894e-02 5.579e-04 -1.685e-02
9 1 7.434e+00 3.501e-01 3.566e-01 -1.795e-02 5.941e-04 -1.840e-02
10 1 9.204e+00 2.126e+00 3.554e-01 -1.144e-03 1.679e-03 1.384e-03
11 1 9.202e+00 3.492e-01 2.126e+00 -1.674e-02 -2.732e-04 -1.790e-02
12 1 7.433e+00 2.125e+00 2.123e+00 -1.507e-02 -1.462e-03 -1.386e-02
13 1 3.530e-01 3.896e+00 3.557e-01 -1.571e-03 2.020e-04 7.219e-04
14 1 2.126e+00 3.895e+00 2.125e+00 -1.376e-02 2.912e-03 -1.728e-02
15 1 3.896e+00 3.895e+00 3.555e-01 -1.510e-02 1.159e-03 -1.680e-02
16 1 5.667e+00 3.896e+00 2.125e+00 -1.861e-02 -1.042e-02 -1.920e-02
17 1 7.435e+00 3.896e+00 3.569e-01 -1.964e-02 3.469e-04 -1.866e-02
18 1 9.203e+00 3.898e+00 2.126e+00 -1.890e-02 9.090e-04 -1.631e-02
19 1 3.513e-01 3.498e-01 3.895e+00 5.937e-04 4.448e-04 -1.537e-03
20 1 2.121e+00 2.125e+00 3.895e+00 5.458e-04 -1.615e-03 3.444e-04
21 1 3.896e+00 3.494e-01 3.894e+00 -1.854e-02 1.860e-03 -1.770e-02
22 1 5.661e+00 2.125e+00 3.893e+00 -1.602e-02 -7.694e-04 -1.517e-02
23 1 7.435e+00 3.638e-01 3.894e+00 -1.887e-02 -1.062e-02 -1.680e-02
24 1 9.207e+00 2.124e+00 3.891e+00 1.316e-03 9.353e-04 -5.580e-04
25 1 3.506e-01 3.897e+00 3.894e+00 1.198e-03 1.640e-03 7.957e-04
26 1 3.898e+00 3.897e+00 3.893e+00 -1.976e-02 2.343e-04 -1.601e-02
27 1 7.435e+00 3.886e+00 3.895e+00 -1.785e-02 1.370e-02 -1.907e-02
28 1 2.125e+00 3.539e-01 5.663e+00 -6.425e-04 -3.684e-04 5.764e-04
29 1 3.539e-01 2.123e+00 5.664e+00 -1.661e-03 1.219e-04 1.139e-03
30 1 5.666e+00 3.507e-01 5.662e+00 -1.759e-02 3.404e-04 -1.703e-02
31 1 3.895e+00 2.124e+00 5.665e+00 -3.628e-04 -3.514e-04 7.418e-04
32 1 9.202e+00 3.507e-01 5.663e+00 1.261e-03 1.201e-03 5.640e-04
33 1 7.435e+00 2.126e+00 5.665e+00 -4.844e-04 -4.666e-04 1.053e-04
34 1 2.124e+00 3.894e+00 5.664e+00 1.880e-03 -5.381e-04 -2.002e-04
35 1 5.667e+00 3.895e+00 5.663e+00 -1.587e-02 3.178e-04 -1.906e-02
36 1 9.200e+00 3.897e+00 5.664e+00 2.678e-04 3.141e-04 -1.404e-03
37 1 3.526e-01 3.532e-01 7.431e+00 -1.830e-03 -4.735e-04 1.311e-04
38 1 2.124e+00 2.125e+00 7.435e+00 5.402e-04 1.325e-03 -1.940e-03
39 1 2.124e+00 3.521e-01 9.205e+00 4.869e-04 6.243e-04 -1.157e-03
40 1 3.513e-01 2.123e+00 9.203e+00 -3.064e-03 6.944e-04 -1.667e-03
41 1 3.896e+00 3.539e-01 7.431e+00 -5.652e-05 7.319e-04 -6.929e-05
42 1 5.664e+00 2.122e+00 7.433e+00 -9.765e-04 -1.350e-03 1.892e-04
43 1 5.665e+00 3.530e-01 9.204e+00 -1.662e-02 -4.488e-03 -1.333e-02
44 1 3.895e+00 2.125e+00 9.205e+00 6.835e-04 2.838e-03 -6.049e-05
45 1 7.436e+00 3.517e-01 7.432e+00 -1.706e-04 -1.169e-05 1.456e-04
46 1 9.201e+00 2.122e+00 7.433e+00 -7.765e-04 1.132e-03 -4.694e-04
47 1 9.203e+00 3.520e-01 9.204e+00 4.261e-04 -7.721e-04 1.466e-03
48 1 7.435e+00 2.124e+00 9.203e+00 -1.203e-04 -5.074e-04 -2.689e-04
49 1 3.519e-01 3.896e+00 7.433e+00 -1.972e-03 -1.870e-03 -8.313e-04
50 1 2.126e+00 3.894e+00 9.203e+00 5.941e-04 1.391e-03 -4.159e-04
51 1 3.895e+00 3.893e+00 7.433e+00 -2.335e-04 -3.137e-04 1.588e-03
52 1 5.664e+00 3.896e+00 9.203e+00 -1.562e-02 3.666e-03 -1.258e-02
53 1 7.433e+00 3.896e+00 7.430e+00 -1.112e-03 1.202e-03 -2.600e-04
54 1 9.203e+00 3.894e+00 9.205e+00 -8.535e-04 1.011e-03 -2.738e-05
55 1 2.126e+00 5.667e+00 3.544e-01 -1.309e-02 2.053e-03 -1.496e-02
56 1 3.522e-01 5.666e+00 2.124e+00 -1.394e-02 -3.127e-03 -1.665e-02
57 1 5.667e+00 5.665e+00 3.562e-01 -1.947e-02 7.525e-03 -9.878e-03
58 1 3.898e+00 5.664e+00 2.126e+00 -1.067e-02 5.908e-03 -1.699e-02
59 1 9.201e+00 5.666e+00 3.577e-01 -1.791e-02 2.955e-04 -1.846e-02
60 1 7.433e+00 5.672e+00 2.131e+00 -2.615e-02 8.831e-04 -2.668e-02
61 1 3.514e-01 7.435e+00 3.570e-01 -1.311e-02 9.351e-04 -2.039e-02
62 1 2.122e+00 9.204e+00 3.531e-01 -1.527e-02 -9.693e-04 -1.689e-02
63 1 2.122e+00 7.436e+00 2.122e+00 -2.513e-02 -1.474e-04 -1.665e-02
64 1 3.515e-01 9.204e+00 2.126e+00 -1.314e-02 3.735e-03 -1.819e-02
65 1 3.899e+00 7.435e+00 3.575e-01 -1.085e-02 -4.843e-04 -1.087e-02
66 1 5.664e+00 9.202e+00 3.569e-01 -1.724e-02 -7.910e-03 -9.654e-03
67 1 5.672e+00 7.434e+00 2.132e+00 1.733e+00 8.826e-04 1.733e+00
68 1 3.897e+00 9.200e+00 2.126e+00 -9.445e-03 -8.193e-03 -1.818e-02
69 1 7.434e+00 7.435e+00 3.467e-01 -2.313e-02 -9.950e-04 -3.955e-04
70 1 9.202e+00 9.202e+00 3.558e-01 -1.820e-02 2.967e-03 -1.710e-02
71 1 9.194e+00 7.435e+00 2.133e+00 1.302e-03 3.252e-04 -2.652e-02
72 1 7.434e+00 9.194e+00 2.135e+00 -2.575e-02 1.061e-03 -2.477e-02
73 1 2.125e+00 5.663e+00 3.894e+00 -1.421e-02 3.523e-03 -2.007e-02
74 1 5.673e+00 5.674e+00 3.893e+00 -2.577e-02 1.278e-03 -2.550e-02
75 1 9.196e+00 5.674e+00 3.893e+00 -1.007e-02 -7.708e-03 -1.832e-02
76 1 3.646e-01 7.433e+00 3.895e+00 -2.493e-02 3.920e-04 -1.409e-02
77 1 2.124e+00 9.205e+00 3.895e+00 -1.342e-02 -2.742e-03 -1.646e-02
78 1 3.885e+00 7.433e+00 3.895e+00 1.231e-04 1.231e-03 -2.378e-02
79 1 5.672e+00 9.196e+00 3.893e+00 -2.679e-02 -2.118e-04 -2.477e-02
80 1 9.194e+00 9.193e+00 3.894e+00 -9.617e-03 6.535e-03 -1.858e-02
81 1 3.507e-01 5.665e+00 5.664e+00 -1.242e-03 -7.634e-04 -1.087e-04
82 1 3.896e+00 5.665e+00 5.663e+00 -1.777e-02 9.855e-04 -1.817e-02
83 1 7.435e+00 5.671e+00 5.656e+00 -1.892e-02 -7.334e-03 -1.022e-02
84 1 2.123e+00 7.432e+00 5.665e+00 -1.185e-02 -4.460e-04 -1.969e-02
85 1 3.522e-01 9.204e+00 5.663e+00 -2.790e-03 -3.476e-04 1.313e-03
86 1 5.673e+00 7.433e+00 5.655e+00 -2.508e-02 -8.216e-04 1.368e-03
87 1 3.897e+00 9.204e+00 5.663e+00 -1.861e-02 -1.483e-04 -1.633e-02
88 1 9.195e+00 7.433e+00 5.653e+00 -1.143e-02 -6.377e-04 -9.438e-03
89 1 7.433e+00 9.196e+00 5.655e+00 -1.814e-02 6.431e-03 -9.379e-03
90 1 2.125e+00 5.664e+00 7.434e+00 -6.038e-04 1.192e-03 1.352e-03
91 1 3.546e-01 5.662e+00 9.204e+00 1.493e-03 -5.318e-04 -1.790e-04
92 1 5.665e+00 5.665e+00 7.433e+00 -1.856e-02 -3.015e-03 -1.452e-02
93 1 3.894e+00 5.667e+00 9.203e+00 -1.475e-02 1.762e-03 -1.502e-02
94 1 9.203e+00 5.667e+00 7.431e+00 -1.167e-03 3.829e-04 9.286e-04
95 1 7.433e+00 5.662e+00 9.207e+00 -1.815e-02 3.177e-03 -1.399e-02
96 1 3.500e-01 7.433e+00 7.432e+00 -6.926e-04 -9.177e-04 -1.285e-03
97 1 2.124e+00 9.203e+00 7.433e+00 2.054e-04 -4.293e-04 6.591e-04
98 1 2.125e+00 7.435e+00 9.203e+00 -1.666e-02 1.091e-03 -1.355e-02
99 1 3.526e-01 9.204e+00 9.204e+00 4.637e-04 1.797e-03 2.929e-04
100 1 3.897e+00 7.435e+00 7.431e+00 -2.199e-02 -2.637e-04 -1.419e-02
101 1 5.664e+00 9.202e+00 7.432e+00 -1.856e-02 2.705e-03 -1.492e-02
102 1 5.661e+00 7.435e+00 9.204e+00 -1.503e-02 2.426e-04 -2.550e-02
103 1 3.894e+00 9.203e+00 9.205e+00 -1.489e-02 -1.131e-03 -1.460e-02
104 1 7.433e+00 7.435e+00 7.443e+00 -1.300e-02 3.542e-04 -2.655e-02
105 1 9.202e+00 9.203e+00 7.431e+00 9.885e-04 -1.620e-03 1.304e-03
106 1 9.205e+00 7.434e+00 9.204e+00 -2.108e-02 -9.260e-05 -1.382e-02
107 1 7.433e+00 9.206e+00 9.204e+00 -1.739e-02 -4.294e-03 -1.565e-02
ITEM: TIMESTEP
0
ITEM: NUMBER OF ATOMS
107
ITEM: BOX BOUNDS xy xz yz pp pp pp
                     0.00000000000000e+00 1.06000000000000e+01 0.00000000000000e+00
0.00000000000000e+00	1.06000000000000e+01	0.00000000000000e+00
0.00000000000000e+00	1.06000000000000e+01	0.00000000000000e+00
ITEM: ATOMS id type x y z DisplacementX DisplacementY DisplacementZ
1 1 3.529e-01 3.513e-01 3.541e-01 1.639e-02 -1.995e-06 -1.550e-02
2 1 2.123e+00 2.126e+00 3.536e-01 -2.127e-03 9.810e-04 -1.671e-04
3 1 2.124e+00 3.531e-01 2.123e+00 1.367e-02 -3.497e-03 -1.604e-02
4 1 3.527e-01 2.124e+00 2.126e+00 1.934e-02 -3.147e-04 -1.850e-02
5 1 3.895e+00 3.535e-01 3.545e-01 -1.657e-03 -3.441e-04 1.235e-03
6 1 5.665e+00 2.123e+00 3.564e-01 1.914e-03 -9.195e-04 -9.422e-05
7 1 5.666e+00 3.515e-01 2.126e+00 1.834e-02 -1.171e-03 -1.733e-02
8 1 3.895e+00 2.123e+00 2.125e+00 8.844e-04 1.023e-03 1.818e-03
9 1 7.434e+00 3.501e-01 3.566e-01 1.888e-02 6.736e-05 -1.920e-02
10 1 9.204e+00 2.126e+00 3.554e-01 1.826e-02 -6.054e-04 -1.921e-02
11 1 9.202e+00 3.492e-01 2.126e+00 1.805e-02 1.160e-02 -1.694e-02
12 1 7.433e+00 2.125e+00 2.123e+00 1.702e-02 -1.175e-05 -1.488e-02
13 1 3.530e-01 3.896e+00 3.557e-01 1.581e-02 9.745e-04 -1.591e-02
14 1 2.126e+00 3.895e+00 2.125e+00 1.259e-02 4.423e-03 -1.641e-02
15 1 3.896e+00 3.895e+00 3.555e-01 -1.720e-03 -2.562e-04 1.314e-03
16 1 5.667e+00 3.896e+00 2.125e+00 1.802e-02 1.574e-03 -1.758e-02
17 1 7.435e+00 3.896e+00 3.569e-01 1.687e-02 3.496e-04 -1.835e-02
18 1 9.203e+00 3.898e+00 2.126e+00 1.646e-02 -1.238e-02 -1.831e-02
19 1 3.513e-01 3.498e-01 3.895e+00 1.984e-02 2.608e-04 -1.672e-02
20 1 2.121e+00 2.125e+00 3.895e+00 -9.642e-06 4.304e-04 6.481e-04
21 1 3.896e+00 3.494e-01 3.894e+00 4.471e-04 -3.912e-04 -2.498e-04
22 1 5.661e+00 2.125e+00 3.893e+00 -6.290e-04 9.908e-04 -1.690e-03
23 1 7.435e+00 3.638e-01 3.894e+00 1.845e-02 -1.148e-02 -1.908e-02
24 1 9.207e+00 2.124e+00 3.891e+00 1.483e-02 9.325e-04 -1.463e-02
25 1 3.506e-01 3.897e+00 3.894e+00 1.752e-02 4.200e-05 -1.721e-02
26 1 3.898e+00 3.897e+00 3.893e+00 -1.547e-04 -9.176e-04 1.882e-03
27 1 7.435e+00 3.886e+00 3.895e+00 1.882e-02 1.210e-02 -1.724e-02
28 1 2.125e+00 3.539e-01 5.663e+00 7.784e-05 -7.133e-04 1.143e-03
29 1 3.539e-01 2.123e+00 5.664e+00 -7.086e-04 3.275e-04 1.152e-03
30 1 5.666e+00 3.507e-01 5.662e+00 -9.950e-04 -5.429e-04 1.312e-03
31 1 3.895e+00 2.124e+00 5.665e+00 5.105e-04 8.187e-04 6.897e-04
32 1 9.202e+00 3.507e-01 5.663e+00 1.731e-02 -7.233e-04 -1.952e-02
33 1 7.435e+00 2.126e+00 5.665e+00 2.683e-05 -4.991e-04 -2.137e-03
34 1 2.124e+00 3.894e+00 5.664e+00 5.966e-04 -7.679e-04 -3.195e-05
35 1 5.667e+00 3.895e+00 5.663e+00 -4.752e-04 -2.771e-04 6.697e-04
36 1 9.200e+00 3.897e+00 5.664e+00 1.743e-02 3.194e-03 -1.746e-02
37 1 3.526e-01 3.532e-01 7.431e+00 -8.802e-04 5.572e-04 -1.218e-03
38 1 2.124e+00 2.125e+00 7.435e+00 -7.576e-04 9.519e-04 3.178e-05
39 1 2.124e+00 3.521e-01 9.205e+00 1.099e-03 6.406e-04 2.071e-04
40 1 3.513e-01 2.123e+00 9.203e+00 -2.134e-03 3.237e-04 -8.506e-04
41 1 3.896e+00 3.539e-01 7.431e+00 -1.177e-03 5.257e-04 -4.196e-04
42 1 5.664e+00 2.122e+00 7.433e+00 -1.391e-03 -1.133e-03 -3.459e-04
43 1 5.665e+00 3.530e-01 9.204e+00 -2.426e-04 -2.362e-03 4.335e-04
44 1 3.895e+00 2.125e+00 9.205e+00 6.495e-04 -2.654e-04 2.731e-04
45 1 7.436e+00 3.517e-01 7.432e+00 -5.366e-04 -5.454e-04 -1.652e-03
46 1 9.201e+00 2.122e+00 7.433e+00 7.301e-04 1.347e-03 1.037e-03
47 1 9.203e+00 3.520e-01 9.204e+00 1.710e-02 -4.192e-03 -1.380e-02
48 1 7.435e+00 2.124e+00 9.203e+00 9.578e-05 -1.212e-03 4.758e-04
49 1 3.519e-01 3.896e+00 7.433e+00 1.300e-03 -1.263e-03 1.058e-03
50 1 2.126e+00 3.894e+00 9.203e+00 -8.163e-04 4.869e-04 1.349e-03
51 1 3.895e+00 3.893e+00 7.433e+00 -1.023e-04 -1.140e-03 -1.545e-03
52 1 5.664e+00 3.896e+00 9.203e+00 1.435e-03 1.097e-03 9.620e-04
53 1 7.433e+00 3.896e+00 7.430e+00 1.302e-03 -5.751e-04 1.179e-03
54 1 9.203e+00 3.894e+00 9.205e+00 1.895e-02 2.647e-03 -1.424e-02
55 1 2.126e+00 5.667e+00 3.544e-01 1.419e-02 1.017e-03 -1.452e-02
56 1 3.522e-01 5.666e+00 2.124e+00 1.018e-02 7.938e-03 -1.864e-02
57 1 5.667e+00 5.665e+00 3.562e-01 1.507e-02 5.349e-04 -1.931e-02
58 1 3.898e+00 5.664e+00 2.126e+00 1.278e-02 -2.928e-03 -1.918e-02
59 1 9.201e+00 5.666e+00 3.577e-01 1.865e-02 7.389e-03 -1.135e-02
60 1 7.433e+00 5.672e+00 2.131e+00 2.515e-02 1.184e-03 -2.626e-02
61 1 3.514e-01 7.435e+00 3.570e-01 8.692e-03 -1.403e-03 -1.045e-02
62 1 2.122e+00 9.204e+00 3.531e-01 1.391e-02 -1.796e-03 -1.686e-02
63 1 2.122e+00 7.436e+00 2.122e+00 2.563e-02 -5.621e-04 -1.402e-02
64 1 3.515e-01 9.204e+00 2.126e+00 1.033e-02 -6.794e-03 -1.947e-02
65 1 3.899e+00 7.435e+00 3.575e-01 1.234e-02 1.335e-03 -2.361e-02
66 1 5.664e+00 9.202e+00 3.569e-01 1.888e-02 -6.957e-04 -1.731e-02
67 1 5.672e+00 7.434e+00 2.132e+00 -5.671e-04 1.049e-03 -2.513e-02
68 1 3.897e+00 9.200e+00 2.126e+00 1.351e-02 2.296e-03 -1.773e-02
69 1 7.434e+00 7.435e+00 3.467e-01 2.470e-02 -9.218e-04 3.766e-03
70 1 9.202e+00 9.202e+00 3.558e-01 1.880e-02 -7.746e-03 -9.509e-03
71 1 9.194e+00 7.435e+00 2.133e+00 -1.733e+00 5.222e-04 1.734e+00
72 1 7.434e+00 9.194e+00 2.135e+00 2.486e-02 -2.859e-04 -2.600e-02
73 1 2.125e+00 5.663e+00 3.894e+00 1.351e-02 3.632e-03 -1.709e-02
74 1 5.673e+00 5.674e+00 3.893e+00 9.482e-03 -6.808e-03 -1.842e-02
75 1 9.196e+00 5.674e+00 3.893e+00 2.633e-02 -1.017e-03 -2.603e-02
76 1 3.646e-01 7.433e+00 3.895e+00 -1.237e-03 -1.887e-04 -2.596e-02
77 1 2.124e+00 9.205e+00 3.895e+00 1.425e-02 -4.546e-03 -1.588e-02
78 1 3.885e+00 7.433e+00 3.895e+00 2.461e-02 4.372e-04 -1.677e-02
79 1 5.672e+00 9.196e+00 3.893e+00 1.010e-02 6.880e-03 -1.789e-02
80 1 9.194e+00 9.193e+00 3.894e+00 2.596e-02 6.155e-04 -2.441e-02
81 1 3.507e-01 5.665e+00 5.664e+00 1.598e-02 -8.902e-04 -1.932e-02
82 1 3.896e+00 5.665e+00 5.663e+00 2.131e-04 -1.185e-03 -4.670e-04
83 1 7.435e+00 5.671e+00 5.656e+00 1.797e-02 -7.684e-03 -9.862e-03
84 1 2.123e+00 7.432e+00 5.665e+00 1.184e-02 2.460e-04 -2.107e-02
85 1 3.522e-01 9.204e+00 5.663e+00 1.741e-02 9.529e-06 -1.883e-02
86 1 5.673e+00 7.433e+00 5.655e+00 1.013e-02 1.462e-03 -1.031e-02
87 1 3.897e+00 9.204e+00 5.663e+00 -6.890e-05 -4.997e-04 5.886e-04
88 1 9.195e+00 7.433e+00 5.653e+00 2.489e-02 8.885e-04 3.133e-03
89 1 7.433e+00 9.196e+00 5.655e+00 1.811e-02 6.922e-03 -8.191e-03
90 1 2.125e+00 5.664e+00 7.434e+00 -8.465e-04 2.925e-04 -1.389e-03
91 1 3.546e-01 5.662e+00 9.204e+00 1.524e-02 7.826e-04 -1.411e-02
92 1 5.665e+00 5.665e+00 7.433e+00 2.670e-04 7.954e-04 -2.832e-04
93 1 3.894e+00 5.667e+00 9.203e+00 1.284e-03 1.141e-03 -1.454e-03
94 1 9.203e+00 5.667e+00 7.431e+00 1.644e-02 -2.695e-03 -1.408e-02
95 1 7.433e+00 5.662e+00 9.207e+00 1.823e-02 4.051e-03 -1.523e-02
96 1 3.500e-01 7.433e+00 7.432e+00 2.216e-02 -6.932e-04 -1.146e-02
97 1 2.124e+00 9.203e+00 7.433e+00 -5.679e-04 1.209e-03 6.456e-04
98 1 2.125e+00 7.435e+00 9.203e+00 1.443e-02 2.875e-04 -1.352e-02
99 1 3.526e-01 9.204e+00 9.204e+00 1.482e-02 -1.942e-03 -1.554e-02
100 1 3.897e+00 7.435e+00 7.431e+00 4.593e-04 3.251e-04 -5.205e-04
101 1 5.664e+00 9.202e+00 7.432e+00 -4.093e-04 3.505e-04 1.696e-03
102 1 5.661e+00 7.435e+00 9.204e+00 2.021e-02 8.958e-04 -1.338e-02
103 1 3.894e+00 9.203e+00 9.205e+00 9.536e-04 -6.666e-04 3.059e-05
104 1 7.433e+00 7.435e+00 7.443e+00 1.496e-02 -2.103e-04 -2.557e-02
105 1 9.202e+00 9.203e+00 7.431e+00 1.818e-02 2.976e-03 -1.350e-02
106 1 9.205e+00 7.434e+00 9.204e+00 1.632e-02 1.357e-03 -2.752e-02
107 1 7.433e+00 9.206e+00 9.204e+00 1.771e-02 -3.297e-03 -1.340e-02
ITEM: TIMESTEP
0
ITEM: NUMBER OF ATOMS
107
ITEM: BOX BOUNDS xy xz yz pp pp pp
                     0.00000000000000e+00 1.06000000000000e+01 0.00000000000000e+00
0.00000000000000e+00	1.06000000000000e+01	0.00000000000000e+00
0.00000000000000e+00	1.06000000000000e+01	0.00000000000000e+00
ITEM: ATOMS id type x y z DisplacementX DisplacementY DisplacementZ
1 1 3.529e-01 3.513e-01 3.541e-01 -1.902e-03 1.619e-02 -1.594e-02
2 1 2.123e+00 2.126e+00 3.536e-01 -3.043e-04 -1.667e-03 -4.444e-04
3 1 2.124e+00 3.531e-01 2.123e+00 -7.730e-05 2.137e-02 -1.711e-02
4 1 3.527e-01 2.124e+00 2.126e+00 -1.936e-03 1.117e-02 -1.710e-02
5 1 3.895e+00 3.535e-01 3.545e-01 3.489e-03 1.445e-02 -1.424e-02
6 1 5.665e+00 2.123e+00 3.564e-01 3.266e-04 1.333e-02 -1.648e-02
7 1 5.666e+00 3.515e-01 2.126e+00 8.258e-03 1.019e-02 -1.971e-02
8 1 3.895e+00 2.123e+00 2.125e+00 3.717e-03 1.271e-02 -1.716e-02
9 1 7.434e+00 3.501e-01 3.566e-01 4.073e-05 1.104e-02 -1.190e-02
10 1 9.204e+00 2.126e+00 3.554e-01 -1.778e-03 1.385e-02 -1.395e-02
11 1 9.202e+00 3.492e-01 2.126e+00 -7.309e-03 1.125e-02 -1.675e-02
12 1 7.433e+00 2.125e+00 2.123e+00 2.212e-03 2.451e-02 -1.564e-02
13 1 3.530e-01 3.896e+00 3.557e-01 1.416e-03 3.895e-04 -8.226e-04
14 1 2.126e+00 3.895e+00 2.125e+00 -3.203e-04 -3.581e-04 4.311e-04
15 1 3.896e+00 3.895e+00 3.555e-01 -2.832e-04 8.649e-04 8.525e-04
16 1 5.667e+00 3.896e+00 2.125e+00 -2.515e-03 1.473e-02 -1.894e-02
17 1 7.435e+00 3.896e+00 3.569e-01 -1.326e-03 1.362e-02 -2.204e-02
18 1 9.203e+00 3.898e+00 2.126e+00 3.698e-03 1.474e-02 -1.811e-02
19 1 3.513e-01 3.498e-01 3.895e+00 7.279e-04 1.892e-02 -1.888e-02
20 1 2.121e+00 2.125e+00 3.895e+00 2.052e-03 -3.045e-04 7.656e-04
21 1 3.896e+00 3.494e-01 3.894e+00 4.023e-04 1.741e-02 -1.911e-02
22 1 5.661e+00 2.125e+00 3.893e+00 2.904e-03 1.374e-02 -1.832e-02
23 1 7.435e+00 3.638e-01 3.894e+00 -2.232e-03 -1.217e-03 -2.562e-02
24 1 9.207e+00 2.124e+00 3.891e+00 -2.727e-03 1.425e-02 -1.735e-02
25 1 3.506e-01 3.897e+00 3.894e+00 1.376e-03 -6.585e-04 -1.946e-03
26 1 3.898e+00 3.897e+00 3.893e+00 2.634e-04 1.104e-03 -1.513e-03
27 1 7.435e+00 3.886e+00 3.895e+00 2.921e-04 2.537e-02 -1.596e-02
28 1 2.125e+00 3.539e-01 5.663e+00 -6.117e-05 -1.030e-03 2.091e-03
29 1 3.539e-01 2.123e+00 5.664e+00 -3.369e-04 8.992e-05 1.338e-03
30 1 5.666e+00 3.507e-01 5.662e+00 1.207e-03 1.841e-02 -1.718e-02
31 1 3.895e+00 2.124e+00 5.665e+00 2.147e-03 1.710e-03 6.817e-04
32 1 9.202e+00 3.507e-01 5.663e+00 7.999e-04 1.863e-02 -1.600e-02
33 1 7.435e+00 2.126e+00 5.665e+00 3.268e-04 1.331e-02 -2.030e-02
34 1 2.124e+00 3.894e+00 5.664e+00 6.308e-04 -6.391e-04 1.404e-03
35 1 5.667e+00 3.895e+00 5.663e+00 -5.096e-04 -4.030e-04 1.156e-04
36 1 9.200e+00 3.897e+00 5.664e+00 1.604e-04 2.179e-04 -2.763e-04
37 1 3.526e-01 3.532e-01 7.431e+00 -1.867e-03 1.361e-03 -1.776e-03
38 1 2.124e+00 2.125e+00 7.435e+00 1.416e-04 5.422e-04 -4.759e-04
39 1 2.124e+00 3.521e-01 9.205e+00 1.165e-03 8.843e-04 1.005e-04
40 1 3.513e-01 2.123e+00 9.203e+00 -1.295e-04 -1.856e-03 -9.300e-04
41 1 3.896e+00 3.539e-01 7.431e+00 -6.413e-04 -1.346e-03 -1.108e-03
42 1 5.664e+00 2.122e+00 7.433e+00 -5.380e-04 -1.404e-03 1.463e-03
43 1 5.665e+00 3.530e-01 9.204e+00 2.157e-03 1.431e-02 -1.277e-02
44 1 3.895e+00 2.125e+00 9.205e+00 -1.232e-03 7.499e-05 -4.346e-04
45 1 7.436e+00 3.517e-01 7.432e+00 1.023e-03 2.280e-02 -1.494e-02
46 1 9.201e+00 2.122e+00 7.433e+00 5.233e-04 -1.506e-03 -9.380e-04
47 1 9.203e+00 3.520e-01 9.204e+00 -1.246e-03 1.286e-02 -1.472e-02
48 1 7.435e+00 2.124e+00 9.203e+00 1.500e-03 1.476e-02 -1.308e-02
49 1 3.519e-01 3.896e+00 7.433e+00 -1.823e-03 -1.642e-04 1.046e-03
50 1 2.126e+00 3.894e+00 9.203e+00 -1.622e-03 6.775e-04 -1.667e-03
51 1 3.895e+00 3.893e+00 7.433e+00 9.085e-04 1.426e-03 -5.651e-05
52 1 5.664e+00 3.896e+00 9.203e+00 1.203e-04 -6.427e-04 -3.279e-04
53 1 7.433e+00 3.896e+00 7.430e+00 -1.958e-03 4.738e-04 6.261e-04
54 1 9.203e+00 3.894e+00 9.205e+00 -6.024e-04 3.815e-04 1.087e-03
55 1 2.126e+00 5.667e+00 3.544e-01 -1.254e-03 6.469e-04 1.915e-03
56 1 3.522e-01 5.666e+00 2.124e+00 -1.235e-03 1.814e-02 -2.009e-02
57 1 5.667e+00 5.665e+00 3.562e-01 -2.266e-04 1.759e-02 -1.723e-02
58 1 3.898e+00 5.664e+00 2.126e+00 3.184e-04 1.759e-02 -1.890e-02
59 1 9.201e+00 5.666e+00 3.577e-01 9.222e-04 1.774e-02 -1.751e-02
60 1 7.433e+00 5.672e+00 2.131e+00 1.916e-03 -3.168e-04 -2.800e-02
61 1 3.514e-01 7.435e+00 3.570e-01 1.621e-03 1.841e-02 -1.844e-02
62 1 2.122e+00 9.204e+00 3.531e-01 -1.015e-03 1.596e-02 -2.047e-02
63 1 2.122e+00 7.436e+00 2.122e+00 5.562e-05 1.450e-02 -1.564e-02
64 1 3.515e-01 9.204e+00 2.126e+00 1.113e-02 1.769e-02 -1.998e-02
65 1 3.899e+00 7.435e+00 3.575e-01 -3.238e-04 1.723e-02 -1.663e-02
66 1 5.664e+00 9.202e+00 3.569e-01 8.391e-03 1.805e-02 -8.838e-03
67 1 5.672e+00 7.434e+00 2.132e+00 1.699e-03 2.626e-02 -2.475e-02
68 1 3.897e+00 9.200e+00 2.126e+00 -1.129e-02 1.939e-02 -1.761e-02
69 1 7.434e+00 7.435e+00 3.467e-01 -1.898e-03 2.577e-02 3.497e-04
70 1 9.202e+00 9.202e+00 3.558e-01 -8.405e-03 1.881e-02 -1.097e-02
71 1 9.194e+00 7.435e+00 2.133e+00 -1.424e-03 2.463e-02 -2.556e-02
72 1 7.434e+00 9.194e+00 2.135e+00 -8.327e-04 -1.737e+00 1.735e+00
73 1 2.125e+00 5.663e+00 3.894e+00 -6.184e-04 -8.692e-04 -2.379e-03
74 1 5.673e+00 5.674e+00 3.893e+00 -8.212e-03 9.163e-03 -1.785e-02
75 1 9.196e+00 5.674e+00 3.893e+00 8.228e-03 8.191e-03 -1.668e-02
76 1 3.646e-01 7.433e+00 3.895e+00 -1.147e-02 1.925e-02 -1.761e-02
77 1 2.124e+00 9.205e+00 3.895e+00 5.218e-05 1.704e-02 -1.584e-02
78 1 3.885e+00 7.433e+00 3.895e+00 1.071e-02 1.942e-02 -1.735e-02
79 1 5.672e+00 9.196e+00 3.893e+00 1.345e-04 2.772e-02 -2.475e-02
80 1 9.194e+00 9.193e+00 3.894e+00 -4.217e-04 2.714e-02 -2.568e-02
81 1 3.507e-01 5.665e+00 5.664e+00 -7.198e-05 -2.893e-04 1.016e-03
82 1 3.896e+00 5.665e+00 5.663e+00 4.915e-04 -3.219e-04 3.074e-06
83 1 7.435e+00 5.671e+00 5.656e+00 -2.326e-04 1.019e-02 -9.441e-03
84 1 2.123e+00 7.432e+00 5.665e+00 -1.773e-03 -1.450e-03 2.529e-04
85 1 3.522e-01 9.204e+00 5.663e+00 -3.396e-04 1.895e-02 -1.965e-02
86 1 5.673e+00 7.433e+00 5.655e+00 -8.472e-03 1.877e-02 -9.047e-03
87 1 3.897e+00 9.204e+00 5.663e+00 1.179e-03 1.933e-02 -1.796e-02
88 1 9.195e+00 7.433e+00 5.653e+00 7.617e-03 1.942e-02 -1.095e-02
89 1 7.433e+00 9.196e+00 5.655e+00 -2.254e-03 2.440e-02 1.606e-03
90 1 2.125e+00 5.664e+00 7.434e+00 -7.966e-04 -5.341e-04 -3.289e-04
91 1 3.546e-01 5.662e+00 9.204e+00 1.762e-03 -1.186e-03 1.720e-03
92 1 5.665e+00 5.665e+00 7.433e+00 -1.146e-04 6.595e-04 2.326e-04
93 1 3.894e+00 5.667e+00 9.203e+00 1.237e-03 1.141e-03 5.432e-04
94 1 9.203e+00 5.667e+00 7.431e+00 -1.800e-03 -6.298e-04 7.905e-04
95 1 7.433e+00 5.662e+00 9.207e+00 1.536e-03 2.226e-02 -1.211e-02
96 1 3.500e-01 7.433e+00 7.432e+00 -9.242e-05 -4.844e-04 4.127e-04
97 1 2.124e+00 9.203e+00 7.433e+00 -2.741e-05 3.266e-04 6.034e-04
98 1 2.125e+00 7.435e+00 9.203e+00 1.886e-03 5.618e-04 1.308e-03
99 1 3.526e-01 9.204e+00 9.204e+00 -2.558e-03 1.698e-02 -1.256e-02
100 1 3.897e+00 7.435e+00 7.431e+00 1.580e-03 6.474e-04 -6.170e-04
101 1 5.664e+00 9.202e+00 7.432e+00 -4.304e-03 1.702e-02 -1.431e-02
102 1 5.661e+00 7.435e+00 9.204e+00 3.273e-03 1.722e-02 -1.341e-02
103 1 3.894e+00 9.203e+00 9.205e+00 4.131e-03 1.712e-02 -1.360e-02
104 1 7.433e+00 7.435e+00 7.443e+00 -1.141e-03 1.352e-02 -2.647e-02
105 1 9.202e+00 9.203e+00 7.431e+00 9.804e-04 1.823e-02 -1.455e-02
106 1 9.205e+00 7.434e+00 9.204e+00 -2.618e-03 1.994e-02 -1.364e-02
107 1 7.433e+00 9.206e+00 9.204e+00 2.412e-03 1.557e-02 -2.425e-02