ITEM: TIMESTEP
0
ITEM: NUMBER OF ATOMS
8
ITEM: BOX BOUNDS xy xz yz pp pp pp
                     -5.00000000000000e-01 5.00000000000000e-01 0.00000000000000e+00
-5.00000000000000e-01	5.00000000000000e-01	0.00000000000000e+00
-5.00000000000000e-01	5.00000000000000e-01	0.00000000000000e+00
ITEM: ATOMS id type x y z DisplacementX DisplacementY DisplacementZ
1 1 1.000e-01 -1.000e-01 0.000e+00 8.101e-04 6.498e-03 -6.810e-03
2 1 1.000e-01 0.000e+00 0.000e+00 7.727e-03 -4.987e-03 2.001e-03
3 1 0.000e+00 1.000e-01 0.000e+00 6.138e-03 -4.162e-03 3.223e-03
4 1 1.000e-01 1.000e-01 0.000e+00 2.606e-04 -1.475e-02 -1.012e-02
5 1 0.000e+00 0.000e+00 0.000e+00 -9.345e-02 -2.167e-02 5.716e-04
6 1 -1.000e-01 -1.000e-01 0.000e+00 2.874e-02 1.585e-02 -1.207e-03
7 1 -1.000e-01 1.000e-01 0.000e+00 4.557e-03 -1.571e-02 -9.192e-03
8 1 0.000e+00 -1.000e-01 0.000e+00 -4.304e-03 -1.005e-02 4.540e-03
ITEM: TIMESTEP
0
ITEM: NUMBER OF ATOMS
8
ITEM: BOX BOUNDS xy xz yz pp pp pp
                     -5.00000000000000e-01 5.00000000000000e-01 0.00000000000000e+00
-5.00000000000000e-01	5.00000000000000e-01	0.00000000000000e+00
-5.00000000000000e-01	5.00000000000000e-01	0.00000000000000e+00
ITEM: ATOMS id type x y z DisplacementX DisplacementY DisplacementZ
9 1 -1.000e-01 -1.000e-01 0.000e+00 -9.626e-03 1.032e-02 4.610e-03
10 1 0.000e+00 -1.000e-01 0.000e+00 -4.988e-03 -4.224e-03 2.282e-02
11 1 -1.000e-01 0.000e+00 0.000e+00 -1.517e-02 6.008e-03 7.786e-03
12 1 0.000e+00 1.000e-01 0.000e+00 -6.220e-03 -1.093e-02 -5.871e-03
13 1 -1.000e-01 1.000e-01 0.000e+00 -1.441e-02 1.639e-02 -3.254e-03
14 1 0.000e+00 0.000e+00 0.000e+00 8.782e-02 -5.972e-03 6.487e-03
15 1 1.000e-01 -1.000e-01 0.000e+00 1.447e-02 5.504e-03 -5.298e-03
16 1 1.000e-01 1.000e-01 0.000e+00 -1.522e-03 6.013e-03 8.417e-03
