ITEM: TIMESTEP
0
ITEM: NUMBER OF ATOMS
18
ITEM: BOX BOUNDS xy xz yz pp pp pp
                     -5.00000000000000e-01 5.00000000000000e-01 0.00000000000000e+00
-5.00000000000000e-01	5.00000000000000e-01	0.00000000000000e+00
-5.00000000000000e-01	5.00000000000000e-01	0.00000000000000e+00
ITEM: ATOMS id type x y z DisplacementX DisplacementY DisplacementZ
1 1 -inf  nan -6.990e-01 1.454e-02 -1.102e-03 -1.923e-02
2 1  nan -6.990e-01 -inf -1.385e-02 -1.304e-02 6.295e-03
3 1 -inf -inf -inf 2.039e-01 2.485e-02 1.357e-02
4 1  nan -inf  nan 1.422e-02 2.751e-03 -9.358e-03
5 1 -inf -6.990e-01  nan -5.791e-03 -2.080e-03 -1.676e-04
6 1 -6.990e-01 -inf  nan 8.638e-06 -7.063e-03 1.780e-02
7 1  nan -inf -6.990e-01 -9.559e-03 -8.703e-04 -3.588e-03
8 1 -6.990e-01 -6.990e-01 -inf 1.728e-02 -4.859e-03 3.646e-03
9 1 -6.990e-01  nan -inf 7.331e-03 6.953e-03 -5.893e-03
10 1 -inf  nan -inf -1.703e-02 1.423e-02 8.213e-03
11 1 -inf -6.990e-01 -inf 3.402e-04 -7.129e-03 5.462e-03
12 1  nan -inf -inf 1.211e-02 2.155e-02 1.610e-03
13 1 -inf -inf -6.990e-01 7.645e-03 7.858e-03 1.252e-02
14 1 -inf -6.990e-01 -6.990e-01 2.498e-03 8.176e-03 7.043e-03
15 1 -inf  nan  nan 1.278e-02 5.711e-03 7.991e-03
16 1 -6.990e-01 -inf -6.990e-01 1.611e-02 6.623e-03 1.017e-03
17 1 -inf -inf  nan 3.037e-03 -2.945e-03 1.206e-02
18 1  nan  nan -inf -8.121e-03 -2.686e-03 -1.702e-02
ITEM: TIMESTEP
0
ITEM: NUMBER OF ATOMS
18
ITEM: BOX BOUNDS xy xz yz pp pp pp
                     -5.00000000000000e-01 5.00000000000000e-01 0.00000000000000e+00
-5.00000000000000e-01	5.00000000000000e-01	0.00000000000000e+00
-5.00000000000000e-01	5.00000000000000e-01	0.00000000000000e+00
ITEM: ATOMS id type x y z DisplacementX DisplacementY DisplacementZ
19 1 -inf  nan  nan 2.095e-03 2.576e-03 -1.430e-04
20 1 -6.990e-01 -6.990e-01 -inf -6.364e-03 1.998e-03 9.897e-03
21 1 -inf -inf  nan 3.390e-03 7.226e-03 1.991e-03
22 1 -inf -6.990e-01  nan -8.932e-03 -1.010e-02 1.911e-03
23 1  nan -inf -6.990e-01 -2.894e-04 -8.077e-03 -4.229e-04
24 1  nan -6.990e-01 -inf -6.635e-03 -6.522e-03 7.079e-03
25 1 -6.990e-01  nan -inf 1.257e-02 9.088e-03 4.943e-03
26 1 -inf -6.990e-01 -inf -2.343e-04 6.299e-03 8.591e-03
27 1 -inf -inf -inf 7.998e-03 -1.352e-02 1.949e-01
28 1  nan -inf  nan -5.133e-03 8.140e-03 1.112e-03
29 1 -6.990e-01 -inf -inf -1.372e-02 1.055e-02 -3.372e-03
30 1 -6.990e-01 -inf  nan -2.763e-04 2.084e-03 -4.675e-03
31 1 -inf -6.990e-01 -6.990e-01 1.219e-03 5.842e-03 -8.441e-03
32 1 -6.990e-01 -inf -6.990e-01 -1.054e-03 -8.430e-03 -3.466e-03
33 1 -inf  nan -6.990e-01 -5.106e-03 1.710e-02 -4.692e-03
34 1 -inf  nan -inf 4.209e-04 -7.054e-03 1.147e-02
35 1  nan  nan -inf -1.001e-03 -8.821e-03 2.776e-04
36 1  nan -inf -inf 8.249e-04 6.129e-03 -4.813e-03
ITEM: TIMESTEP
0
ITEM: NUMBER OF ATOMS
18
ITEM: BOX BOUNDS xy xz yz pp pp pp
                     -5.00000000000000e-01 5.00000000000000e-01 0.00000000000000e+00
-5.00000000000000e-01	5.00000000000000e-01	0.00000000000000e+00
-5.00000000000000e-01	5.00000000000000e-01	0.00000000000000e+00
ITEM: ATOMS id type x y z DisplacementX DisplacementY DisplacementZ
37 1 -6.990e-01 -inf  nan 9.601e-03 6.127e-03 -1.222e-02
38 1 -inf -6.990e-01 -inf 1.354e-02 -8.889e-04 -2.332e-02
39 1  nan -6.990e-01 -inf 1.270e-02 1.371e-03 6.776e-03
40 1 -inf -6.990e-01  nan 2.789e-03 5.783e-03 -2.020e-02
41 1  nan  nan -inf 1.490e-02 3.371e-03 -1.869e-02
42 1  nan -inf  nan -7.758e-03 8.719e-04 -2.222e-03
43 1 -inf -inf  nan -7.070e-03 -6.359e-03 2.192e-03
44 1 -inf  nan  nan -5.283e-03 -3.946e-03 -7.354e-04
45 1 -inf -inf -inf 1.459e-02 -2.016e-01 -1.509e-03
46 1 -6.990e-01  nan -inf 6.920e-03 -1.384e-03 9.266e-04
47 1 -6.990e-01 -6.990e-01 -inf 1.195e-02 1.251e-02 6.921e-03
48 1  nan -inf -inf -6.013e-04 -1.980e-03 1.006e-02
49 1 -inf -inf -6.990e-01 -1.330e-03 -1.286e-02 2.837e-03
50 1 -6.990e-01 -inf -6.990e-01 -1.174e-02 7.650e-03 -9.750e-03
51 1  nan -inf -6.990e-01 -1.107e-02 -6.143e-03 2.137e-03
52 1 -inf  nan -6.990e-01 1.821e-02 6.018e-03 -4.505e-03
53 1 -6.990e-01 -inf -inf 8.003e-05 -1.737e-02 -1.778e-02
54 1 -inf -6.990e-01 -6.990e-01 -2.801e-04 1.369e-02 5.122e-04
ITEM: TIMESTEP
0
ITEM: NUMBER OF ATOMS
18
ITEM: BOX BOUNDS xy xz yz pp pp pp
                     -5.00000000000000e-01 5.00000000000000e-01 0.00000000000000e+00
-5.00000000000000e-01	5.00000000000000e-01	0.00000000000000e+00
-5.00000000000000e-01	5.00000000000000e-01	0.00000000000000e+00
ITEM: ATOMS id type x y z DisplacementX DisplacementY DisplacementZ
55 1 -inf -6.990e-01  nan -7.035e-04 -2.003e-02 -1.441e-02
56 1 -6.990e-01  nan -inf 1.326e-02 -1.449e-02 -4.500e-03
57 1 -6.990e-01 -inf -inf -1.278e-02 -1.940e-02 -1.211e-02
58 1 -6.990e-01 -inf  nan -7.871e-03 -9.902e-03 -1.423e-02
59 1 -inf  nan  nan 6.433e-03 -9.072e-03 -2.805e-03
60 1  nan -inf  nan -6.050e-03 2.376e-02 -5.840e-03
61 1 -6.990e-01 -inf -6.990e-01 -9.857e-03 8.791e-03 9.562e-03
62 1 -inf -inf  nan 6.460e-03 -2.062e-03 -6.123e-03
63 1 -inf -inf -6.990e-01 -2.913e-03 9.719e-03 -3.432e-03
64 1  nan -6.990e-01 -inf 7.156e-03 1.407e-02 -1.008e-02
65 1 -inf -inf -inf -2.004e-01 -1.955e-03 1.245e-02
66 1  nan  nan -inf -1.554e-02 1.490e-02 -1.215e-02
67 1 -6.990e-01 -6.990e-01 -inf -1.027e-02 1.153e-02 7.578e-03
68 1 -inf  nan -6.990e-01 1.382e-02 -1.065e-02 -4.215e-03
69 1 -inf -6.990e-01 -6.990e-01 4.183e-03 7.426e-03 7.048e-03
70 1  nan -inf -6.990e-01 -1.136e-02 -1.133e-03 8.864e-04
71 1 -inf  nan -inf -9.199e-04 8.079e-03 1.151e-02
72 1 -inf -6.990e-01 -inf -4.695e-03 -1.315e-03 -9.127e-03
ITEM: TIMESTEP
0
ITEM: NUMBER OF ATOMS
18
ITEM: BOX BOUNDS xy xz yz pp pp pp
                     -5.00000000000000e-01 5.00000000000000e-01 0.00000000000000e+00
-5.00000000000000e-01	5.00000000000000e-01	0.00000000000000e+00
-5.00000000000000e-01	5.00000000000000e-01	0.00000000000000e+00
ITEM: ATOMS id type x y z DisplacementX DisplacementY DisplacementZ
73 1  nan -inf -6.990e-01 6.196e-03 3.533e-03 2.492e-03
74 1  nan  nan -inf 1.212e-02 -1.227e-02 7.113e-03
75 1 -6.990e-01  nan -inf 3.127e-03 -1.904e-02 -7.988e-03
76 1  nan -6.990e-01 -inf -3.333e-03 2.468e-03 -1.136e-03
77 1 -inf  nan  nan -8.329e-03 -5.900e-03 2.396e-03
78 1 -6.990e-01 -inf  nan 3.449e-04 7.918e-03 8.621e-03
79 1 -inf  nan -6.990e-01 1.693e-03 -1.807e-02 -1.081e-03
80 1 -inf -6.990e-01  nan -1.383e-02 -6.509e-04 -7.083e-03
81 1 -6.990e-01 -6.990e-01 -inf 6.545e-03 -1.593e-02 4.429e-03
82 1 -inf -inf -inf -8.290e-03 1.978e-01 1.111e-02
83 1 -inf -inf  nan 6.656e-03 1.662e-02 -5.747e-03
84 1 -inf -inf -6.990e-01 2.421e-03 -1.759e-02 2.885e-03
85 1  nan -inf -inf 8.674e-03 -6.878e-03 -2.167e-02
86 1 -inf  nan -inf -8.140e-04 7.469e-03 -1.521e-03
87 1 -6.990e-01 -inf -6.990e-01 -5.449e-03 -1.160e-02 -4.093e-03
88 1  nan -inf  nan -6.691e-03 7.702e-03 1.260e-02
89 1 -inf -6.990e-01 -6.990e-01 -7.380e-03 1.006e-03 1.547e-03
90 1 -6.990e-01 -inf -inf 3.254e-02 -2.806e-03 -5.944e-03
ITEM: TIMESTEP
0
ITEM: NUMBER OF ATOMS
18
ITEM: BOX BOUNDS xy xz yz pp pp pp
                     -5.00000000000000e-01 5.00000000000000e-01 0.00000000000000e+00
-5.00000000000000e-01	5.00000000000000e-01	0.00000000000000e+00
-5.00000000000000e-01	5.00000000000000e-01	0.00000000000000e+00
ITEM: ATOMS id type x y z DisplacementX DisplacementY DisplacementZ
91 1  nan  nan -inf -1.594e-02 1.180e-02 5.236e-03
92 1 -inf  nan -6.990e-01 1.827e-03 -4.566e-04 2.522e-03
93 1 -inf -inf -6.990e-01 1.065e-02 1.271e-03 -5.819e-03
94 1  nan -inf  nan 4.558e-03 -1.085e-02 -2.372e-02
95 1  nan -inf -6.990e-01 1.134e-02 -1.434e-02 7.673e-04
96 1 -6.990e-01 -inf -inf 7.983e-03 -1.479e-02 -7.084e-03
97 1 -inf -6.990e-01  nan 1.964e-03 1.599e-02 1.373e-02
98 1 -6.990e-01 -inf  nan 1.236e-02 -9.697e-04 -1.776e-02
99 1 -inf  nan  nan -5.311e-03 -9.342e-03 -1.429e-03
100 1 -inf  nan -inf 1.518e-02 -3.448e-03 8.882e-04
101 1 -6.990e-01 -inf -6.990e-01 -8.734e-03 4.441e-03 1.245e-02
102 1 -inf -6.990e-01 -inf 1.947e-03 8.590e-04 8.989e-03
103 1 -inf -6.990e-01 -6.990e-01 -7.084e-03 7.494e-05 2.618e-03
104 1 -6.990e-01  nan -inf -1.342e-02 -1.209e-02 -2.269e-02
105 1 -6.990e-01 -6.990e-01 -inf -1.681e-02 -3.810e-03 -8.671e-03
106 1  nan -inf -inf 1.160e-02 -1.632e-02 -7.526e-03
107 1  nan -6.990e-01 -inf -3.926e-03 9.053e-03 4.646e-03
108 1 -inf -inf -inf -1.446e-03 -4.055e-05 -2.007e-01
ITEM: TIMESTEP
0
ITEM: NUMBER OF ATOMS
18
ITEM: BOX BOUNDS xy xz yz pp pp pp
                     -5.00000000000000e-01 5.00000000000000e-01 0.00000000000000e+00
-5.00000000000000e-01	5.00000000000000e-01	0.00000000000000e+00
-5.00000000000000e-01	5.00000000000000e-01	0.00000000000000e+00
ITEM: ATOMS id type x y z DisplacementX DisplacementY DisplacementZ
109 1 -inf -6.990e-01 -6.990e-01 2.071e-03 7.251e-03 1.081e-02
110 1 -inf -inf -inf -3.445e-03 -1.848e-01 -2.592e-04
111 1 -6.990e-01 -inf  nan -1.518e-02 -7.152e-03 -5.568e-03
112 1 -6.990e-01 -6.990e-01 -inf 1.053e-02 1.071e-02 -2.504e-02
113 1 -inf -inf -6.990e-01 -2.435e-03 -1.801e-03 -4.674e-03
114 1  nan  nan -inf -2.604e-02 -5.048e-03 -3.494e-03
115 1 -inf -inf  nan 1.838e-02 1.144e-02 1.498e-02
116 1 -inf -6.990e-01  nan -8.653e-04 -1.263e-02 -4.123e-03
117 1 -inf  nan -6.990e-01 -1.027e-02 -1.195e-02 6.518e-03
118 1 -6.990e-01 -inf -6.990e-01 2.918e-06 -2.716e-03 -1.940e-02
119 1  nan -inf -6.990e-01 -3.286e-03 9.227e-03 4.057e-04
120 1 -inf -6.990e-01 -inf 5.311e-03 -8.074e-03 8.265e-03
121 1  nan -inf -inf 1.247e-03 1.268e-02 5.327e-04
122 1  nan -6.990e-01 -inf -2.340e-03 -9.579e-03 8.530e-03
123 1  nan -inf  nan -4.603e-03 -1.843e-02 7.273e-03
124 1 -6.990e-01 -inf -inf -2.174e-02 4.119e-03 3.191e-03
125 1 -inf  nan  nan -6.655e-03 6.760e-04 -5.096e-03
126 1 -6.990e-01  nan -inf -1.096e-02 -8.414e-03 4.213e-03
ITEM: TIMESTEP
0
ITEM: NUMBER OF ATOMS
18
ITEM: BOX BOUNDS xy xz yz pp pp pp
                     -5.00000000000000e-01 5.00000000000000e-01 0.00000000000000e+00
-5.00000000000000e-01	5.00000000000000e-01	0.00000000000000e+00
-5.00000000000000e-01	5.00000000000000e-01	0.00000000000000e+00
ITEM: ATOMS id type x y z DisplacementX DisplacementY DisplacementZ
127 1 -inf -inf  nan -5.618e-03 1.360e-02 -4.785e-03
128 1  nan -inf -inf -9.049e-04 -1.643e-02 2.651e-02
129 1  nan -6.990e-01 -inf 1.493e-02 -4.855e-03 3.014e-03
130 1 -6.990e-01 -6.990e-01 -inf -2.516e-02 8.800e-03 4.851e-03
131 1 -inf  nan  nan 4.983e-03 -7.349e-03 2.766e-03
132 1 -inf -inf -inf 1.997e-01 -6.538e-03 -1.618e-02
133 1 -6.990e-01 -inf -6.990e-01 1.636e-02 1.264e-04 -6.647e-05
134 1 -inf  nan -6.990e-01 -1.479e-02 -6.609e-03 -1.778e-02
135 1  nan -inf -6.990e-01 1.273e-02 1.318e-02 3.246e-03
136 1 -inf  nan -inf -1.291e-03 -7.155e-05 4.068e-03
137 1  nan -inf  nan 8.723e-03 1.514e-02 7.992e-03
138 1 -inf -6.990e-01 -6.990e-01 1.113e-02 1.089e-02 8.351e-03
139 1 -inf -6.990e-01 -inf 2.341e-03 5.139e-03 -1.344e-03
140 1 -inf -6.990e-01  nan -1.364e-02 3.865e-03 1.235e-02
141 1 -6.990e-01  nan -inf -2.111e-03 -2.824e-03 -3.579e-03
142 1 -inf -inf -6.990e-01 2.329e-03 1.171e-02 -2.228e-03
143 1 -6.990e-01 -inf  nan -1.354e-02 -9.016e-03 -2.513e-02
144 1  nan  nan -inf -1.009e-02 -3.964e-04 4.389e-03
ITEM: TIMESTEP
0
ITEM: NUMBER OF ATOMS
18
ITEM: BOX BOUNDS xy xz yz pp pp pp
                     -5.00000000000000e-01 5.00000000000000e-01 0.00000000000000e+00
-5.00000000000000e-01	5.00000000000000e-01	0.00000000000000e+00
-5.00000000000000e-01	5.00000000000000e-01	0.00000000000000e+00
ITEM: ATOMS id type x y z DisplacementX DisplacementY DisplacementZ
145 1 -6.990e-01  nan -inf -1.042e-03 -7.907e-03 2.826e-03
146 1 -inf -6.990e-01 -6.990e-01 6.149e-03 7.692e-03 1.162e-02
147 1 -inf -6.990e-01  nan 9.913e-04 2.188e-02 -8.383e-03
148 1 -6.990e-01 -inf -6.990e-01 -1.311e-02 -2.821e-03 1.946e-02
149 1 -6.990e-01 -inf -inf -1.479e-03 -1.195e-02 -1.547e-02
150 1  nan -inf -6.990e-01 -2.824e-03 5.196e-03 1.366e-02
151 1 -inf -6.990e-01 -inf -8.918e-03 -6.988e-03 -7.904e-03
152 1  nan -inf  nan 6.643e-03 -7.582e-03 -4.455e-03
153 1 -inf -inf -inf 8.255e-04 -1.047e-02 -2.008e-01
154 1  nan  nan -inf -1.010e-02 -4.982e-03 5.903e-04
155 1 -6.990e-01 -6.990e-01 -inf -2.858e-03 -1.789e-02 1.531e-02
156 1 -inf  nan -inf -6.653e-03 -2.130e-02 1.411e-02
157 1 -inf -inf -6.990e-01 4.338e-03 -7.723e-03 -7.117e-03
158 1  nan -6.990e-01 -inf 3.385e-03 3.595e-03 -2.805e-03
159 1 -inf  nan  nan -1.510e-02 -2.213e-02 -9.713e-03
160 1  nan -inf -inf -1.296e-02 -2.348e-02 7.207e-03
161 1 -inf  nan -6.990e-01 1.378e-02 7.022e-03 1.605e-02
162 1 -6.990e-01 -inf  nan 1.203e-02 1.250e-03 7.759e-03
ITEM: TIMESTEP
0
ITEM: NUMBER OF ATOMS
18
ITEM: BOX BOUNDS xy xz yz pp pp pp
                     -5.00000000000000e-01 5.00000000000000e-01 0.00000000000000e+00
-5.00000000000000e-01	5.00000000000000e-01	0.00000000000000e+00
-5.00000000000000e-01	5.00000000000000e-01	0.00000000000000e+00
ITEM: ATOMS id type x y z DisplacementX DisplacementY DisplacementZ
163 1 -6.990e-01 -inf -6.990e-01 -1.513e-02 -5.729e-03 5.653e-03
164 1 -6.990e-01 -inf -inf -3.681e-03 4.332e-03 7.137e-03
165 1  nan -inf  nan 4.821e-03 -1.570e-02 3.027e-03
166 1  nan -6.990e-01 -inf -1.121e-02 -4.891e-03 -3.410e-03
167 1 -inf -6.990e-01 -6.990e-01 1.380e-02 6.471e-03 -7.225e-03
168 1 -6.990e-01  nan -inf 7.090e-03 -4.434e-03 -2.675e-03
169 1 -inf  nan -6.990e-01 1.138e-02 2.850e-03 -1.025e-02
170 1  nan -inf -6.990e-01 -1.340e-02 -6.839e-03 -1.007e-02
171 1 -inf -inf -6.990e-01 3.345e-03 -1.125e-07 -5.006e-03
172 1  nan -inf -inf 4.727e-03 1.147e-02 6.182e-04
173 1 -inf  nan  nan 2.011e-02 8.037e-03 6.776e-03
174 1 -6.990e-01 -inf  nan 8.486e-03 1.115e-02 -1.494e-02
175 1 -inf -inf -inf -1.899e-02 2.059e-01 9.037e-03
176 1 -inf -6.990e-01  nan -1.589e-03 5.864e-04 5.166e-03
177 1  nan  nan -inf -2.013e-02 2.039e-02 -4.085e-03
178 1 -6.990e-01 -6.990e-01 -inf 9.235e-04 -5.623e-03 -2.084e-02
179 1 -inf  nan -inf -3.481e-03 -1.993e-02 1.109e-02
180 1 -inf -inf  nan -3.635e-03 6.398e-03 -1.282e-02
ITEM: TIMESTEP
0
ITEM: NUMBER OF ATOMS
18
ITEM: BOX BOUNDS xy xz yz pp pp pp
                     -5.00000000000000e-01 5.00000000000000e-01 0.00000000000000e+00
-5.00000000000000e-01	5.00000000000000e-01	0.00000000000000e+00
-5.00000000000000e-01	5.00000000000000e-01	0.00000000000000e+00
ITEM: ATOMS id type x y z DisplacementX DisplacementY DisplacementZ
181 1  nan -inf -inf 4.348e-03 -8.850e-03 8.443e-04
182 1 -6.990e-01 -inf  nan -1.251e-02 -7.908e-03 -1.133e-02
183 1 -inf  nan  nan 6.674e-03 1.275e-02 -2.319e-03
184 1 -inf -6.990e-01 -6.990e-01 -4.911e-03 -8.449e-03 -1.065e-02
185 1 -6.990e-01 -6.990e-01 -inf -2.699e-05 2.423e-04 -1.274e-03
186 1  nan -inf  nan 8.747e-04 3.609e-03 1.844e-02
187 1  nan  nan -inf -1.945e-03 -1.108e-02 -1.706e-02
188 1  nan -inf -6.990e-01 1.294e-02 1.371e-02 -1.062e-02
189 1 -inf -6.990e-01 -inf 9.583e-03 -6.558e-03 -3.232e-03
190 1 -inf -inf  nan -3.004e-03 1.949e-02 7.639e-03
191 1 -inf -6.990e-01  nan 8.380e-03 2.850e-03 -4.792e-04
192 1 -6.990e-01 -inf -inf -5.805e-03 2.485e-02 1.245e-02
193 1 -6.990e-01  nan -inf 2.447e-03 1.871e-02 8.327e-03
194 1  nan -6.990e-01 -inf 1.395e-02 -7.985e-03 1.679e-02
195 1 -inf  nan -6.990e-01 9.194e-03 -9.234e-03 1.803e-02
196 1 -inf -inf -inf 2.050e-02 9.207e-05 2.072e-01
197 1 -6.990e-01 -inf -6.990e-01 7.790e-03 4.433e-03 1.643e-03
198 1 -inf  nan -inf -1.716e-02 -1.006e-02 4.481e-03
ITEM: TIMESTEP
0
ITEM: NUMBER OF ATOMS
18
ITEM: BOX BOUNDS xy xz yz pp pp pp
                     -5.00000000000000e-01 5.00000000000000e-01 0.00000000000000e+00
-5.00000000000000e-01	5.00000000000000e-01	0.00000000000000e+00
-5.00000000000000e-01	5.00000000000000e-01	0.00000000000000e+00
ITEM: ATOMS id type x y z DisplacementX DisplacementY DisplacementZ
199 1 -inf  nan -6.990e-01 -2.499e-03 6.958e-03 2.567e-03
200 1  nan -6.990e-01 -inf 7.691e-03 1.332e-02 5.047e-04
201 1 -inf -6.990e-01  nan -1.623e-02 -4.574e-03 5.217e-03
202 1 -inf -inf -6.990e-01 1.673e-02 8.162e-03 1.589e-02
203 1 -6.990e-01 -inf  nan -3.168e-03 3.756e-03 -3.066e-03
204 1 -inf  nan -inf -9.238e-04 3.748e-04 9.652e-03
205 1 -6.990e-01 -inf -6.990e-01 5.053e-03 -3.589e-03 -9.239e-03
206 1 -6.990e-01  nan -inf -8.012e-03 6.404e-03 -1.567e-02
207 1  nan -inf -6.990e-01 1.213e-02 5.175e-03 9.444e-03
208 1 -6.990e-01 -inf -inf 7.307e-03 1.812e-03 1.505e-02
209 1 -inf -6.990e-01 -6.990e-01 -6.566e-04 -6.035e-03 1.320e-03
210 1 -inf -inf  nan -9.831e-03 -1.108e-02 7.946e-03
211 1 -6.990e-01 -6.990e-01 -inf 2.116e-02 2.170e-02 6.208e-04
212 1 -inf  nan  nan 2.434e-04 -5.873e-03 -2.288e-02
213 1  nan  nan -inf -2.074e-03 -1.986e-02 2.102e-03
214 1 -inf -6.990e-01 -inf 3.550e-03 1.029e-02 -1.647e-02
215 1  nan -inf  nan 7.377e-03 -2.168e-02 3.194e-03
216 1 -inf -inf -inf -1.915e-01 1.848e-03 -4.141e-03
ITEM: TIMESTEP
0
ITEM: NUMBER OF ATOMS
18
ITEM: BOX BOUNDS xy xz yz pp pp pp
                     -5.00000000000000e-01 5.00000000000000e-01 0.00000000000000e+00
-5.00000000000000e-01	5.00000000000000e-01	0.00000000000000e+00
-5.00000000000000e-01	5.00000000000000e-01	0.00000000000000e+00
ITEM: ATOMS id type x y z DisplacementX DisplacementY DisplacementZ
217 1 -inf -inf -inf -1.863e-02 -2.726e-03 -1.933e-01
218 1  nan -6.990e-01 -inf -9.878e-03 1.124e-02 1.306e-02
219 1 -6.990e-01 -inf -inf -6.691e-04 1.773e-03 1.351e-03
220 1  nan  nan -inf -3.707e-03 1.129e-02 6.300e-03
221 1 -inf  nan  nan 6.143e-03 4.263e-03 1.455e-02
222 1 -6.990e-01  nan -inf -1.934e-02 1.245e-02 -7.013e-03
223 1  nan -inf -inf -3.271e-03 1.337e-02 6.043e-03
224 1  nan -inf -6.990e-01 1.594e-02 -7.489e-03 -5.868e-03
225 1 -inf -6.990e-01  nan -1.589e-02 9.122e-03 -1.318e-02
226 1 -inf  nan -6.990e-01 -2.236e-03 -2.010e-02 3.029e-02
227 1 -6.990e-01 -inf  nan -6.130e-03 -8.610e-03 -1.615e-02
228 1 -inf -6.990e-01 -inf 6.123e-03 -4.988e-03 1.299e-03
229 1 -inf -6.990e-01 -6.990e-01 9.369e-03 -2.718e-03 6.260e-03
230 1 -6.990e-01 -6.990e-01 -inf 1.203e-03 -8.829e-03 -1.221e-02
231 1 -inf -inf -6.990e-01 1.410e-02 2.039e-03 8.388e-03
232 1 -6.990e-01 -inf -6.990e-01 6.010e-04 -1.391e-02 1.921e-03
233 1  nan -inf  nan 1.350e-04 4.505e-03 1.828e-02
234 1 -inf  nan -inf -2.294e-03 -2.615e-03 5.291e-03
ITEM: TIMESTEP
0
ITEM: NUMBER OF ATOMS
18
ITEM: BOX BOUNDS xy xz yz pp pp pp
                     -5.00000000000000e-01 5.00000000000000e-01 0.00000000000000e+00
-5.00000000000000e-01	5.00000000000000e-01	0.00000000000000e+00
-5.00000000000000e-01	5.00000000000000e-01	0.00000000000000e+00
ITEM: ATOMS id type x y z DisplacementX DisplacementY DisplacementZ
235 1 -inf -6.990e-01 -6.990e-01 8.852e-03 6.745e-03 7.504e-03
236 1 -inf  nan -6.990e-01 9.092e-03 -3.243e-03 -6.021e-03
237 1  nan -inf -6.990e-01 -3.699e-03 6.761e-03 9.739e-03
238 1 -inf  nan -inf 1.005e-03 6.789e-03 -4.401e-03
239 1 -inf -inf -inf 1.014e-02 2.166e-01 4.908e-03
240 1 -6.990e-01 -inf -6.990e-01 3.973e-03 -4.836e-03 2.426e-03
241 1 -inf  nan  nan -1.290e-03 4.375e-03 -1.686e-03
242 1 -inf -6.990e-01  nan 1.288e-03 -7.543e-04 3.787e-03
243 1  nan -inf  nan -2.095e-02 -1.127e-03 -3.655e-03
244 1 -6.990e-01 -inf  nan 4.906e-03 3.309e-03 4.143e-03
245 1 -inf -inf  nan -6.600e-03 -9.827e-03 1.976e-02
246 1 -6.990e-01  nan -inf 2.628e-05 3.561e-03 2.969e-03
247 1 -6.990e-01 -6.990e-01 -inf 1.239e-02 1.247e-02 2.764e-03
248 1 -6.990e-01 -inf -inf 6.371e-03 1.525e-02 3.008e-04
249 1  nan  nan -inf 5.205e-03 7.247e-03 4.870e-03
250 1  nan -6.990e-01 -inf 4.861e-03 -8.977e-04 1.162e-02
251 1  nan -inf -inf 6.031e-03 -1.272e-02 -4.537e-03
252 1 -inf -inf -6.990e-01 2.097e-03 -9.083e-03 -5.733e-03
ITEM: TIMESTEP
0
ITEM: NUMBER OF ATOMS
18
ITEM: BOX BOUNDS xy xz yz pp pp pp
                     -5.00000000000000e-01 5.00000000000000e-01 0.00000000000000e+00
-5.00000000000000e-01	5.00000000000000e-01	0.00000000000000e+00
-5.00000000000000e-01	5.00000000000000e-01	0.00000000000000e+00
ITEM: ATOMS id type x y z DisplacementX DisplacementY DisplacementZ
253 1 -inf  nan -6.990e-01 5.389e-03 7.603e-03 8.113e-03
254 1 -inf -6.990e-01  nan 2.102e-02 -1.143e-02 7.715e-03
255 1 -inf -inf  nan -2.240e-03 -1.275e-03 -7.688e-03
256 1 -inf -inf -inf -1.549e-02 -1.469e-02 1.841e-01
257 1  nan  nan -inf -1.208e-02 -2.461e-02 -1.355e-02
258 1 -6.990e-01  nan -inf -1.552e-02 1.895e-02 1.103e-02
259 1  nan -inf  nan 5.019e-03 -6.022e-04 1.968e-02
260 1 -6.990e-01 -6.990e-01 -inf -1.196e-02 1.326e-02 -3.536e-03
261 1 -inf  nan -inf -3.026e-04 -1.280e-02 -8.045e-03
262 1 -inf -6.990e-01 -6.990e-01 5.445e-03 1.324e-02 -7.032e-03
263 1 -inf -6.990e-01 -inf -9.978e-03 1.452e-03 3.767e-03
264 1 -6.990e-01 -inf -6.990e-01 2.809e-03 1.084e-02 9.665e-03
265 1  nan -inf -inf -4.457e-03 -5.203e-03 1.786e-03
266 1 -6.990e-01 -inf  nan -4.536e-03 -8.119e-03 7.931e-03
267 1 -inf  nan  nan 9.823e-03 8.523e-03 9.388e-03
268 1 -6.990e-01 -inf -inf -3.070e-03 -1.124e-03 5.029e-03
269 1  nan -6.990e-01 -inf 1.018e-02 -4.748e-03 -1.384e-02
270 1  nan -inf -6.990e-01 -5.087e-03 6.580e-03 -2.488e-03
ITEM: TIMESTEP
0
ITEM: NUMBER OF ATOMS
18
ITEM: BOX BOUNDS xy xz yz pp pp pp
                     -5.00000000000000e-01 5.00000000000000e-01 0.00000000000000e+00
-5.00000000000000e-01	5.00000000000000e-01	0.00000000000000e+00
-5.00000000000000e-01	5.00000000000000e-01	0.00000000000000e+00
ITEM: ATOMS id type x y z DisplacementX DisplacementY DisplacementZ
271 1 -inf  nan -6.990e-01 -2.051e-02 4.733e-03 -4.168e-03
272 1  nan -inf -6.990e-01 4.107e-03 -4.608e-03 -1.366e-02
273 1 -inf -6.990e-01 -6.990e-01 4.420e-03 2.572e-03 6.118e-03
274 1 -6.990e-01 -inf -inf 8.863e-03 -1.074e-02 7.153e-03
275 1 -inf  nan  nan -6.774e-03 -2.654e-02 5.528e-04
276 1 -inf -6.990e-01  nan -6.708e-03 -8.394e-04 1.030e-02
277 1 -6.990e-01 -inf  nan -3.310e-03 5.348e-03 2.431e-03
278 1 -inf -inf -inf -5.776e-04 -2.078e-01 6.963e-03
279 1 -inf -inf  nan -1.231e-02 6.482e-03 -4.925e-03
280 1 -6.990e-01  nan -inf 6.079e-03 -1.032e-02 -2.356e-02
281 1 -inf -6.990e-01 -inf 1.249e-03 2.370e-02 2.006e-02
282 1 -inf -inf -6.990e-01 9.042e-03 -2.539e-03 -8.949e-03
283 1 -6.990e-01 -inf -6.990e-01 2.222e-03 -2.422e-03 -4.452e-03
284 1  nan -inf -inf -4.591e-03 3.479e-03 -1.379e-02
285 1  nan -6.990e-01 -inf -1.461e-02 -9.139e-03 -9.972e-03
286 1  nan -inf  nan -3.768e-03 1.990e-03 8.394e-03
287 1 -6.990e-01 -6.990e-01 -inf 1.262e-02 -1.625e-03 -7.671e-03
288 1  nan  nan -inf -1.115e-02 -7.644e-03 -2.687e-03
ITEM: TIMESTEP
0
ITEM: NUMBER OF ATOMS
18
ITEM: BOX BOUNDS xy xz yz pp pp pp
                     -5.00000000000000e-01 5.00000000000000e-01 0.00000000000000e+00
-5.00000000000000e-01	5.00000000000000e-01	0.00000000000000e+00
-5.00000000000000e-01	5.00000000000000e-01	0.00000000000000e+00
ITEM: ATOMS id type x y z DisplacementX DisplacementY DisplacementZ
289 1  nan -inf -6.990e-01 -8.961e-03 6.796e-03 1.183e-02
290 1 -inf -inf -6.990e-01 9.333e-03 7.630e-03 -1.348e-02
291 1  nan  nan -inf -7.007e-03 -3.592e-04 1.703e-02
292 1 -inf  nan -6.990e-01 9.067e-03 -5.885e-04 1.298e-03
293 1 -inf -6.990e-01 -inf -3.847e-03 -6.608e-03 2.965e-03
294 1  nan -inf  nan -1.101e-02 -8.957e-03 1.578e-03
295 1 -inf  nan  nan -1.947e-03 -4.659e-03 1.242e-02
296 1 -inf -6.990e-01  nan -4.019e-03 1.755e-02 -6.944e-03
297 1  nan -6.990e-01 -inf -2.899e-03 4.891e-03 1.427e-02
298 1 -6.990e-01 -inf  nan -1.264e-02 4.555e-03 4.605e-03
299 1 -6.990e-01 -inf -6.990e-01 1.575e-02 2.213e-02 -6.895e-03
300 1 -inf -inf -inf -1.969e-01 4.400e-03 9.320e-03
301 1 -6.990e-01 -inf -inf 1.282e-02 5.781e-03 -2.877e-03
302 1 -6.990e-01  nan -inf -1.124e-02 -1.798e-02 -6.376e-03
303 1 -inf -6.990e-01 -6.990e-01 -5.542e-03 -4.855e-03 2.930e-03
304 1 -inf  nan -inf 1.715e-03 6.560e-03 -3.091e-04
305 1 -6.990e-01 -6.990e-01 -inf 5.025e-03 3.772e-03 -3.127e-03
306 1 -inf -inf  nan -6.808e-03 3.686e-03 7.693e-03
ITEM: TIMESTEP
0
ITEM: NUMBER OF ATOMS
18
ITEM: BOX BOUNDS xy xz yz pp pp pp
                     -5.00000000000000e-01 5.00000000000000e-01 0.00000000000000e+00
-5.00000000000000e-01	5.00000000000000e-01	0.00000000000000e+00
-5.00000000000000e-01	5.00000000000000e-01	0.00000000000000e+00
ITEM: ATOMS id type x y z DisplacementX DisplacementY DisplacementZ
307 1 -6.990e-01 -inf -6.990e-01 -1.431e-02 1.085e-02 1.156e-02
308 1 -inf -6.990e-01 -6.990e-01 1.799e-02 2.063e-02 -1.428e-02
309 1  nan -6.990e-01 -inf 5.329e-03 -9.197e-03 -1.115e-02
310 1 -inf  nan -6.990e-01 6.206e-03 3.066e-04 1.877e-03
311 1  nan  nan -inf -1.996e-02 -1.088e-02 9.163e-04
312 1 -6.990e-01  nan -inf 1.925e-02 -9.269e-03 1.399e-03
313 1 -6.990e-01 -inf  nan 1.355e-02 -4.628e-03 6.011e-03
314 1 -inf  nan  nan -2.163e-02 2.886e-03 3.157e-02
315 1  nan -inf  nan 9.505e-03 1.805e-03 1.600e-02
316 1 -inf -inf -6.990e-01 -4.423e-03 -1.266e-02 -1.645e-03
317 1 -6.990e-01 -6.990e-01 -inf 1.325e-02 7.674e-03 1.810e-02
318 1 -inf -inf  nan 1.389e-02 -8.168e-03 -2.599e-03
319 1  nan -inf -6.990e-01 -1.333e-04 4.258e-03 -7.491e-03
320 1 -inf -6.990e-01 -inf -1.557e-03 1.561e-02 -1.098e-02
321 1  nan -inf -inf 1.232e-02 1.470e-02 3.306e-03
322 1 -inf -6.990e-01  nan 1.946e-03 -1.674e-02 -5.384e-03
323 1 -inf -inf -inf 1.920e-01 -3.311e-03 2.393e-03
324 1 -inf  nan -inf -6.898e-03 -3.675e-03 -8.364e-03
ITEM: TIMESTEP
0
ITEM: NUMBER OF ATOMS
18
ITEM: BOX BOUNDS xy xz yz pp pp pp
                     -5.00000000000000e-01 5.00000000000000e-01 0.00000000000000e+00
-5.00000000000000e-01	5.00000000000000e-01	0.00000000000000e+00
-5.00000000000000e-01	5.00000000000000e-01	0.00000000000000e+00
ITEM: ATOMS id type x y z DisplacementX DisplacementY DisplacementZ
325 1 -6.990e-01 -inf -6.990e-01 -3.588e-04 -9.054e-03 7.694e-03
326 1 -inf -6.990e-01  nan -1.835e-05 -2.881e-03 1.001e-03
327 1 -inf -6.990e-01 -inf -3.013e-02 -7.505e-03 -9.933e-03
328 1 -inf -inf -inf -2.078e-01 2.232e-02 -9.625e-03
329 1 -inf  nan -6.990e-01 -7.518e-03 1.827e-02 1.963e-02
330 1 -6.990e-01  nan -inf -3.371e-03 -1.794e-02 4.241e-03
331 1 -inf -inf -6.990e-01 3.244e-03 -8.789e-03 -5.381e-03
332 1 -6.990e-01 -6.990e-01 -inf 1.073e-02 6.594e-03 -7.145e-03
333 1  nan -6.990e-01 -inf 9.088e-03 -8.886e-03 -1.118e-02
334 1 -inf -6.990e-01 -6.990e-01 6.905e-03 -2.999e-03 2.852e-03
335 1 -inf -inf  nan 2.776e-02 5.248e-04 1.089e-02
336 1 -6.990e-01 -inf -inf -7.309e-03 -3.574e-03 2.117e-02
337 1  nan -inf -6.990e-01 1.108e-02 -8.946e-03 -5.876e-03
338 1  nan  nan -inf 1.917e-02 -9.928e-03 -4.786e-03
339 1 -inf  nan -inf 2.112e-03 1.137e-02 -4.121e-03
340 1 -6.990e-01 -inf  nan 3.596e-03 7.446e-03 1.066e-02
341 1 -inf  nan  nan -5.560e-03 -4.208e-03 -6.275e-03
342 1  nan -inf  nan -5.578e-03 -1.860e-02 1.685e-02
ITEM: TIMESTEP
0
ITEM: NUMBER OF ATOMS
18
ITEM: BOX BOUNDS xy xz yz pp pp pp
                     -5.00000000000000e-01 5.00000000000000e-01 0.00000000000000e+00
-5.00000000000000e-01	5.00000000000000e-01	0.00000000000000e+00
-5.00000000000000e-01	5.00000000000000e-01	0.00000000000000e+00
ITEM: ATOMS id type x y z DisplacementX DisplacementY DisplacementZ
343 1  nan -inf  nan 4.508e-04 5.540e-03 1.093e-02
344 1 -6.990e-01 -inf  nan -2.237e-02 4.545e-03 1.701e-02
345 1  nan -6.990e-01 -inf 7.119e-03 1.874e-02 -4.176e-03
346 1 -6.990e-01 -inf -inf -4.163e-03 1.532e-02 1.663e-02
347 1 -6.990e-01  nan -inf -9.136e-03 -1.031e-02 8.052e-03
348 1 -inf -6.990e-01 -6.990e-01 1.363e-02 -3.769e-03 1.083e-02
349 1  nan -inf -6.990e-01 -4.257e-03 -1.868e-03 -1.019e-02
350 1  nan -inf -inf -2.149e-04 1.523e-03 1.167e-03
351 1 -inf -inf -inf 2.439e-02 -1.916e-01 2.025e-03
352 1 -6.990e-01 -inf -6.990e-01 8.972e-05 -1.219e-02 5.964e-03
353 1  nan  nan -inf -2.841e-03 4.373e-04 -1.701e-02
354 1 -inf  nan -6.990e-01 -4.126e-03 8.041e-03 1.129e-02
355 1 -inf -inf  nan -5.810e-03 8.101e-04 -6.812e-04
356 1 -inf -6.990e-01  nan -2.955e-03 2.473e-02 -1.437e-03
357 1 -inf -6.990e-01 -inf 1.015e-02 -4.408e-03 2.004e-02
358 1 -6.990e-01 -6.990e-01 -inf -1.051e-03 -6.323e-04 1.428e-02
359 1 -inf  nan  nan -7.242e-05 -1.051e-02 1.885e-02
360 1 -inf -inf -6.990e-01 9.567e-03 4.126e-03 -9.642e-03
ITEM: TIMESTEP
0
ITEM: NUMBER OF ATOMS
18
ITEM: BOX BOUNDS xy xz yz pp pp pp
                     -5.00000000000000e-01 5.00000000000000e-01 0.00000000000000e+00
-5.00000000000000e-01	5.00000000000000e-01	0.00000000000000e+00
-5.00000000000000e-01	5.00000000000000e-01	0.00000000000000e+00
ITEM: ATOMS id type x y z DisplacementX DisplacementY DisplacementZ
361 1 -inf -6.990e-01  nan -3.023e-03 1.408e-04 -1.850e-02
362 1  nan -6.990e-01 -inf -3.940e-03 1.016e-03 -1.768e-02
363 1  nan -inf  nan -9.526e-03 1.085e-02 -7.085e-03
364 1 -inf  nan -6.990e-01 3.205e-03 -4.507e-04 1.475e-02
365 1  nan -inf -inf -2.897e-02 -1.435e-02 -7.418e-03
366 1 -inf -6.990e-01 -6.990e-01 -1.717e-02 -9.537e-03 -1.279e-02
367 1 -inf -6.990e-01 -inf 1.258e-02 -8.547e-03 -9.468e-03
368 1 -inf -inf  nan 2.126e-03 5.200e-03 -2.346e-02
369 1 -6.990e-01 -6.990e-01 -inf 1.154e-02 1.785e-02 -7.619e-05
370 1 -inf -inf -inf 1.998e-01 -9.886e-04 -3.334e-03
371 1 -6.990e-01 -inf -6.990e-01 -3.691e-03 3.086e-03 1.367e-03
372 1 -6.990e-01  nan -inf -7.570e-03 4.508e-03 8.340e-03
373 1  nan -inf -6.990e-01 -1.090e-02 4.701e-03 2.571e-05
374 1  nan  nan -inf -6.066e-03 6.234e-03 9.163e-03
375 1 -inf  nan  nan -1.432e-02 4.817e-03 1.346e-02
376 1 -inf -inf -6.990e-01 1.705e-02 1.216e-02 -2.132e-02
377 1 -6.990e-01 -inf  nan 6.709e-03 6.298e-03 -1.798e-02
378 1 -inf  nan -inf 1.100e-02 1.200e-03 -7.924e-03
ITEM: TIMESTEP
0
ITEM: NUMBER OF ATOMS
18
ITEM: BOX BOUNDS xy xz yz pp pp pp
                     -5.00000000000000e-01 5.00000000000000e-01 0.00000000000000e+00
-5.00000000000000e-01	5.00000000000000e-01	0.00000000000000e+00
-5.00000000000000e-01	5.00000000000000e-01	0.00000000000000e+00
ITEM: ATOMS id type x y z DisplacementX DisplacementY DisplacementZ
379 1 -6.990e-01 -inf  nan 1.248e-02 1.868e-03 -1.608e-02
380 1 -6.990e-01  nan -inf 1.170e-03 -5.077e-03 -1.546e-02
381 1  nan  nan -inf 3.170e-03 -8.274e-03 1.116e-02
382 1 -inf -6.990e-01 -6.990e-01 9.771e-05 -1.474e-02 -1.209e-03
383 1 -inf  nan -inf -1.064e-02 1.194e-02 -2.606e-03
384 1  nan -6.990e-01 -inf 1.745e-02 -7.835e-04 5.679e-03
385 1 -6.990e-01 -inf -inf 3.194e-03 -3.672e-03 2.011e-02
386 1 -inf -6.990e-01  nan -1.497e-02 -1.127e-02 1.111e-03
387 1 -6.990e-01 -6.990e-01 -inf 5.219e-03 -1.953e-02 2.579e-03