ITEM: TIMESTEP
0
ITEM: NUMBER OF ATOMS
8
ITEM: BOX BOUNDS xy xz yz pp pp pp
                     -5.00000000000000e-01 5.00000000000000e-01 0.00000000000000e+00
-5.00000000000000e-01	5.00000000000000e-01	0.00000000000000e+00
-5.00000000000000e-01	5.00000000000000e-01	0.00000000000000e+00
ITEM: ATOMS id type x y z DisplacementX DisplacementY DisplacementZ
1 1 0.000e+00 0.000e+00 0.000e+00 -1.296e-03 -1.012e-01 2.404e-04
2 1 -1.000e-01 1.000e-01 0.000e+00 -6.263e-05 -1.194e-03 9.030e-04
3 1 0.000e+00 1.000e-01 0.000e+00 3.367e-04 1.432e-04 -1.417e-03
4 1 1.000e-01 0.000e+00 0.000e+00 4.343e-04 1.345e-03 5.690e-04
5 1 1.000e-01 1.000e-01 0.000e+00 -3.855e-04 -7.211e-04 3.744e-04
6 1 1.000e-01 -1.000e-01 0.000e+00 -1.353e-04 -6.122e-05 -1.719e-04
7 1 -1.000e-01 -1.000e-01 0.000e+00 5.442e-04 -6.713e-05 9.016e-04
8 1 -1.000e-01 0.000e+00 0.000e+00 -1.231e-03 2.574e-04 -2.256e-06
ITEM: TIMESTEP
0
ITEM: NUMBER OF ATOMS
8
ITEM: BOX BOUNDS xy xz yz pp pp pp
                     -5.00000000000000e-01 5.00000000000000e-01 0.00000000000000e+00
-5.00000000000000e-01	5.00000000000000e-01	0.00000000000000e+00
-5.00000000000000e-01	5.00000000000000e-01	0.00000000000000e+00
ITEM: ATOMS id type x y z DisplacementX DisplacementY DisplacementZ
9 1 0.000e+00 0.000e+00 0.000e+00 1.202e-03 9.836e-02 -7.232e-04
10 1 0.000e+00 -1.000e-01 0.000e+00 1.467e-03 -1.543e-04 -2.110e-04
11 1 -1.000e-01 -1.000e-01 0.000e+00 -1.045e-03 7.992e-04 9.631e-04
12 1 1.000e-01 1.000e-01 0.000e+00 -1.160e-03 -4.117e-04 -4.901e-04
13 1 -1.000e-01 1.000e-01 0.000e+00 -1.240e-03 5.032e-04 -1.205e-03
14 1 1.000e-01 0.000e+00 0.000e+00 9.078e-05 1.091e-03 -1.228e-04
15 1 1.000e-01 -1.000e-01 0.000e+00 8.510e-04 -8.200e-04 2.123e-04
16 1 -1.000e-01 0.000e+00 0.000e+00 1.440e-06 -2.542e-04 7.864e-04
ITEM: TIMESTEP
0
ITEM: NUMBER OF ATOMS
8
ITEM: BOX BOUNDS xy xz yz pp pp pp
                     -5.00000000000000e-01 5.00000000000000e-01 0.00000000000000e+00
-5.00000000000000e-01	5.00000000000000e-01	0.00000000000000e+00
-5.00000000000000e-01	5.00000000000000e-01	0.00000000000000e+00
ITEM: ATOMS id type x y z DisplacementX DisplacementY DisplacementZ
17 1 -1.000e-01 1.000e-01 0.000e+00 -1.093e-03 -1.028e-03 -2.531e-04
18 1 -1.000e-01 -1.000e-01 0.000e+00 5.745e-04 6.527e-04 1.363e-03
19 1 1.000e-01 1.000e-01 0.000e+00 4.422e-04 2.092e-03 1.351e-03
20 1 1.000e-01 0.000e+00 0.000e+00 -8.280e-04 -3.624e-04 -3.694e-04
21 1 0.000e+00 1.000e-01 0.000e+00 -2.743e-04 7.060e-04 -9.959e-05
22 1 1.000e-01 -1.000e-01 0.000e+00 -4.638e-05 6.264e-04 -2.056e-04
23 1 0.000e+00 0.000e+00 0.000e+00 -1.003e-01 -1.160e-03 -3.946e-05
24 1 0.000e+00 -1.000e-01 0.000e+00 8.885e-05 6.700e-04 -4.053e-04
ITEM: TIMESTEP
0
ITEM: NUMBER OF ATOMS
8
ITEM: BOX BOUNDS xy xz yz pp pp pp
                     -5.00000000000000e-01 5.00000000000000e-01 0.00000000000000e+00
-5.00000000000000e-01	5.00000000000000e-01	0.00000000000000e+00
-5.00000000000000e-01	5.00000000000000e-01	0.00000000000000e+00
ITEM: ATOMS id type x y z DisplacementX DisplacementY DisplacementZ
25 1 1.000e-01 1.000e-01 0.000e+00 3.749e-04 6.176e-04 -6.575e-04
26 1 1.000e-01 -1.000e-01 0.000e+00 -1.507e-03 8.525e-04 3.039e-04
27 1 -1.000e-01 0.000e+00 0.000e+00 1.308e-03 -1.116e-03 3.264e-04
28 1 -1.000e-01 1.000e-01 0.000e+00 9.024e-04 9.307e-05 -5.125e-04
29 1 0.000e+00 0.000e+00 0.000e+00 1.005e-01 2.605e-04 4.631e-04
30 1 0.000e+00 1.000e-01 0.000e+00 -1.715e-03 1.084e-03 -1.824e-04
31 1 -1.000e-01 -1.000e-01 0.000e+00 7.873e-04 -3.919e-04 -1.859e-03
32 1 0.000e+00 -1.000e-01 0.000e+00 -7.944e-04 2.470e-04 8.454e-04
ITEM: TIMESTEP
0
ITEM: NUMBER OF ATOMS
8
ITEM: BOX BOUNDS xy xz yz pp pp pp
                     -5.00000000000000e-01 5.00000000000000e-01 0.00000000000000e+00
-5.00000000000000e-01	5.00000000000000e-01	0.00000000000000e+00
-5.00000000000000e-01	5.00000000000000e-01	0.00000000000000e+00
ITEM: ATOMS id type x y z DisplacementX DisplacementY DisplacementZ
33 1 0.000e+00 1.000e-01 0.000e+00 -4.892e-04 9.737e-04 -5.843e-04
34 1 1.000e-01 1.000e-01 0.000e+00 -1.419e-03 1.062e-03 1.357e-04
35 1 -1.000e-01 1.000e-01 0.000e+00 -9.888e-04 -3.385e-04 -5.406e-04
36 1 0.000e+00 0.000e+00 0.000e+00 4.440e-04 -1.016e-01 7.343e-05
37 1 -1.000e-01 -1.000e-01 0.000e+00 -1.681e-03 -6.029e-04 -4.146e-04
38 1 1.000e-01 0.000e+00 0.000e+00 -3.798e-04 -1.639e-05 -1.303e-03
39 1 -1.000e-01 0.000e+00 0.000e+00 -1.608e-03 -1.401e-03 2.738e-04
40 1 1.000e-01 -1.000e-01 0.000e+00 1.433e-03 -9.639e-05 -2.438e-05
ITEM: TIMESTEP
0
ITEM: NUMBER OF ATOMS
8
ITEM: BOX BOUNDS xy xz yz pp pp pp
                     -5.00000000000000e-01 5.00000000000000e-01 0.00000000000000e+00
-5.00000000000000e-01	5.00000000000000e-01	0.00000000000000e+00
-5.00000000000000e-01	5.00000000000000e-01	0.00000000000000e+00
ITEM: ATOMS id type x y z DisplacementX DisplacementY DisplacementZ
41 1 1.000e-01 1.000e-01 0.000e+00 -1.795e-03 -2.344e-04 7.782e-04
42 1 -1.000e-01 -1.000e-01 0.000e+00 -3.246e-03 1.388e-03 1.909e-03
43 1 -1.000e-01 1.000e-01 0.000e+00 2.088e-03 9.907e-04 1.274e-03
44 1 0.000e+00 0.000e+00 0.000e+00 1.005e-01 -1.940e-03 8.750e-04
45 1 0.000e+00 -1.000e-01 0.000e+00 1.808e-05 6.866e-04 -5.200e-04
46 1 -1.000e-01 0.000e+00 0.000e+00 5.301e-05 -1.573e-03 1.303e-03
47 1 0.000e+00 1.000e-01 0.000e+00 2.284e-03 -1.692e-03 -9.203e-04
48 1 1.000e-01 -1.000e-01 0.000e+00 1.471e-03 1.379e-03 1.635e-03
ITEM: TIMESTEP
0
ITEM: NUMBER OF ATOMS
8
ITEM: BOX BOUNDS xy xz yz pp pp pp
                     -5.00000000000000e-01 5.00000000000000e-01 0.00000000000000e+00
-5.00000000000000e-01	5.00000000000000e-01	0.00000000000000e+00
-5.00000000000000e-01	5.00000000000000e-01	0.00000000000000e+00
ITEM: ATOMS id type x y z DisplacementX DisplacementY DisplacementZ
49 1 1.000e-01 -1.000e-01 0.000e+00 9.056e-05 -1.304e-04 -2.104e-03
50 1 1.000e-01 0.000e+00 0.000e+00 3.110e-04 -6.817e-05 2.363e-03
51 1 -1.000e-01 1.000e-01 0.000e+00 1.635e-04 -6.258e-04 1.782e-03
52 1 0.000e+00 -1.000e-01 0.000e+00 -4.347e-04 -7.054e-04 6.966e-04
53 1 -1.000e-01 0.000e+00 0.000e+00 -7.421e-04 1.941e-03 1.540e-03
54 1 0.000e+00 0.000e+00 0.000e+00 1.773e-04 1.010e-01 1.764e-03
55 1 -1.000e-01 -1.000e-01 0.000e+00 -1.238e-03 8.971e-04 1.187e-03
56 1 1.000e-01 1.000e-01 0.000e+00 8.842e-04 1.451e-03 2.411e-04
ITEM: TIMESTEP
0
ITEM: NUMBER OF ATOMS
8
ITEM: BOX BOUNDS xy xz yz pp pp pp
                     -5.00000000000000e-01 5.00000000000000e-01 0.00000000000000e+00
-5.00000000000000e-01	5.00000000000000e-01	0.00000000000000e+00
-5.00000000000000e-01	5.00000000000000e-01	0.00000000000000e+00
ITEM: ATOMS id type x y z DisplacementX DisplacementY DisplacementZ
57 1 -1.000e-01 1.000e-01 0.000e+00 1.362e-03 -1.517e-03 3.278e-04
58 1 0.000e+00 -1.000e-01 0.000e+00 -1.864e-03 5.152e-04 9.741e-04
59 1 0.000e+00 1.000e-01 0.000e+00 6.434e-04 5.310e-04 -9.324e-04
60 1 1.000e-01 0.000e+00 0.000e+00 5.562e-04 3.375e-04 1.774e-03
61 1 1.000e-01 -1.000e-01 0.000e+00 -7.590e-05 5.920e-04 -8.192e-04
62 1 -1.000e-01 -1.000e-01 0.000e+00 3.123e-04 -1.528e-03 -6.765e-04
63 1 1.000e-01 1.000e-01 0.000e+00 -3.754e-04 6.307e-04 -4.763e-04
64 1 0.000e+00 0.000e+00 0.000e+00 -9.778e-02 -1.214e-04 5.142e-04
ITEM: TIMESTEP
0
ITEM: NUMBER OF ATOMS
8
ITEM: BOX BOUNDS xy xz yz pp pp pp
                     -5.00000000000000e-01 5.00000000000000e-01 0.00000000000000e+00
-5.00000000000000e-01	5.00000000000000e-01	0.00000000000000e+00
-5.00000000000000e-01	5.00000000000000e-01	0.00000000000000e+00
ITEM: ATOMS id type x y z DisplacementX DisplacementY DisplacementZ
65 1 -1.000e-01 1.000e-01 0.000e+00 2.441e-04 1.139e-03 -1.264e-04
66 1 0.000e+00 1.000e-01 0.000e+00 -3.748e-04 -1.713e-03 -4.469e-04
67 1 0.000e+00 0.000e+00 0.000e+00 -2.461e-04 -1.001e-01 4.867e-04
68 1 1.000e-01 1.000e-01 0.000e+00 1.160e-03 -2.027e-04 3.891e-04
69 1 1.000e-01 -1.000e-01 0.000e+00 1.775e-03 -9.603e-04 1.029e-03
70 1 -1.000e-01 -1.000e-01 0.000e+00 -9.129e-04 -3.003e-04 -1.965e-04
71 1 -1.000e-01 0.000e+00 0.000e+00 -3.064e-04 -7.080e-04 8.677e-04
72 1 1.000e-01 0.000e+00 0.000e+00 -1.428e-03 1.733e-03 -1.461e-03
ITEM: TIMESTEP
0
ITEM: NUMBER OF ATOMS
8
ITEM: BOX BOUNDS xy xz yz pp pp pp
                     -5.00000000000000e-01 5.00000000000000e-01 0.00000000000000e+00
-5.00000000000000e-01	5.00000000000000e-01	0.00000000000000e+00
-5.00000000000000e-01	5.00000000000000e-01	0.00000000000000e+00
ITEM: ATOMS id type x y z DisplacementX DisplacementY DisplacementZ
73 1 0.000e+00 -1.000e-01 0.000e+00 -6.003e-04 -1.227e-03 1.757e-03
74 1 1.000e-01 0.000e+00 0.000e+00 -1.551e-03 -8.051e-04 -2.318e-03
75 1 -1.000e-01 0.000e+00 0.000e+00 -1.404e-03 1.731e-03 -1.933e-03
76 1 -1.000e-01 -1.000e-01 0.000e+00 -3.035e-04 -7.787e-04 -4.062e-04
77 1 0.000e+00 0.000e+00 0.000e+00 6.785e-04 1.007e-01 1.895e-04
78 1 1.000e-01 1.000e-01 0.000e+00 -7.898e-05 6.436e-04 3.353e-05
79 1 -1.000e-01 1.000e-01 0.000e+00 -2.748e-04 2.922e-04 1.078e-03
80 1 1.000e-01 -1.000e-01 0.000e+00 3.513e-04 1.271e-03 4.113e-04
ITEM: TIMESTEP
0
ITEM: NUMBER OF ATOMS
8
ITEM: BOX BOUNDS xy xz yz pp pp pp
                     -5.00000000000000e-01 5.00000000000000e-01 0.00000000000000e+00
-5.00000000000000e-01	5.00000000000000e-01	0.00000000000000e+00
-5.00000000000000e-01	5.00000000000000e-01	0.00000000000000e+00
ITEM: ATOMS id type x y z DisplacementX DisplacementY DisplacementZ
81 1 1.000e-01 0.000e+00 0.000e+00 -9.216e-04 -3.991e-04 5.609e-05
82 1 0.000e+00 -1.000e-01 0.000e+00 1.238e-03 -5.956e-06 1.408e-04
83 1 1.000e-01 -1.000e-01 0.000e+00 6.880e-04 1.547e-03 9.297e-05
84 1 1.000e-01 1.000e-01 0.000e+00 5.084e-04 1.058e-04 1.664e-04
85 1 -1.000e-01 1.000e-01 0.000e+00 4.291e-04 -1.919e-03 -5.673e-04
86 1 -1.000e-01 -1.000e-01 0.000e+00 1.748e-03 -1.313e-03 -1.242e-03
87 1 0.000e+00 0.000e+00 0.000e+00 -1.004e-01 6.420e-04 9.954e-04
88 1 0.000e+00 1.000e-01 0.000e+00 -4.692e-05 8.161e-04 -2.272e-03
ITEM: TIMESTEP
0
ITEM: NUMBER OF ATOMS
8
ITEM: BOX BOUNDS xy xz yz pp pp pp
                     -5.00000000000000e-01 5.00000000000000e-01 0.00000000000000e+00
-5.00000000000000e-01	5.00000000000000e-01	0.00000000000000e+00
-5.00000000000000e-01	5.00000000000000e-01	0.00000000000000e+00
ITEM: ATOMS id type x y z DisplacementX DisplacementY DisplacementZ
89 1 -1.000e-01 -1.000e-01 0.000e+00 1.049e-03 2.534e-04 -1.716e-03
90 1 -1.000e-01 0.000e+00 0.000e+00 -1.048e-04 1.512e-03 -8.420e-04
91 1 0.000e+00 -1.000e-01 0.000e+00 1.251e-03 1.616e-03 -2.471e-03
92 1 1.000e-01 1.000e-01 0.000e+00 1.674e-03 5.270e-05 -1.148e-03
93 1 1.000e-01 -1.000e-01 0.000e+00 1.709e-03 -1.329e-04 -8.532e-04
94 1 0.000e+00 0.000e+00 0.000e+00 9.978e-02 -6.793e-04 2.111e-03
95 1 0.000e+00 1.000e-01 0.000e+00 9.446e-05 1.797e-04 1.587e-03
96 1 -1.000e-01 1.000e-01 0.000e+00 -5.959e-04 -5.754e-04 -1.471e-03
ITEM: TIMESTEP
0
ITEM: NUMBER OF ATOMS
8
ITEM: BOX BOUNDS xy xz yz pp pp pp
                     -5.00000000000000e-01 5.00000000000000e-01 0.00000000000000e+00
-5.00000000000000e-01	5.00000000000000e-01	0.00000000000000e+00
-5.00000000000000e-01	5.00000000000000e-01	0.00000000000000e+00
ITEM: ATOMS id type x y z DisplacementX DisplacementY DisplacementZ
97 1 0.000e+00 0.000e+00 0.000e+00 5.311e-04 1.003e-01 1.367e-03
98 1 0.000e+00 -1.000e-01 0.000e+00 2.110e-03 -7.901e-04 5.245e-05
99 1 -1.000e-01 -1.000e-01 0.000e+00 1.963e-03 -1.984e-03 1.066e-03
100 1 1.000e-01 1.000e-01 0.000e+00 -4.987e-04 -3.591e-04 -1.590e-03
101 1 1.000e-01 -1.000e-01 0.000e+00 2.377e-03 1.747e-03 9.907e-06
102 1 -1.000e-01 1.000e-01 0.000e+00 -2.872e-04 7.665e-04 4.274e-04
103 1 -1.000e-01 0.000e+00 0.000e+00 1.032e-03 2.796e-04 -4.884e-04
104 1 1.000e-01 0.000e+00 0.000e+00 3.789e-04 -9.151e-04 9.566e-04
ITEM: TIMESTEP
0
ITEM: NUMBER OF ATOMS
8
ITEM: BOX BOUNDS xy xz yz pp pp pp
                     -5.00000000000000e-01 5.00000000000000e-01 0.00000000000000e+00
-5.00000000000000e-01	5.00000000000000e-01	0.00000000000000e+00
-5.00000000000000e-01	5.00000000000000e-01	0.00000000000000e+00
ITEM: ATOMS id type x y z DisplacementX DisplacementY DisplacementZ
105 1 0.000e+00 1.000e-01 0.000e+00 2.460e-04 8.422e-04 1.006e-03
106 1 1.000e-01 0.000e+00 0.000e+00 -1.775e-04 -2.411e-03 8.071e-04
107 1 -1.000e-01 1.000e-01 0.000e+00 -2.959e-03 -6.305e-04 -8.311e-04
108 1 -1.000e-01 0.000e+00 0.000e+00 -9.457e-04 -7.058e-04 -2.551e-03
109 1 0.000e+00 0.000e+00 0.000e+00 -6.532e-04 -9.981e-02 -5.882e-04
110 1 1.000e-01 -1.000e-01 0.000e+00 3.214e-04 2.949e-03 -2.057e-03
111 1 -1.000e-01 -1.000e-01 0.000e+00 -6.603e-04 -7.750e-04 2.520e-03
112 1 1.000e-01 1.000e-01 0.000e+00 4.502e-04 1.792e-04 -5.307e-04
ITEM: TIMESTEP
0
ITEM: NUMBER OF ATOMS
8
ITEM: BOX BOUNDS xy xz yz pp pp pp
                     -5.00000000000000e-01 5.00000000000000e-01 0.00000000000000e+00
-5.00000000000000e-01	5.00000000000000e-01	0.00000000000000e+00
-5.00000000000000e-01	5.00000000000000e-01	0.00000000000000e+00
ITEM: ATOMS id type x y z DisplacementX DisplacementY DisplacementZ
113 1 0.000e+00 1.000e-01 0.000e+00 2.092e-04 2.032e-03 1.420e-04
114 1 -1.000e-01 -1.000e-01 0.000e+00 -3.502e-04 8.128e-04 -4.280e-04
115 1 1.000e-01 -1.000e-01 0.000e+00 1.443e-03 -3.502e-06 5.410e-04
116 1 -1.000e-01 1.000e-01 0.000e+00 -1.491e-03 -1.120e-03 9.538e-04
117 1 1.000e-01 0.000e+00 0.000e+00 -1.694e-03 2.617e-04 -3.557e-04
118 1 0.000e+00 0.000e+00 0.000e+00 -1.004e-01 6.899e-04 7.711e-04
119 1 1.000e-01 1.000e-01 0.000e+00 4.406e-05 -7.782e-04 3.227e-04
120 1 0.000e+00 -1.000e-01 0.000e+00 -6.214e-04 -9.521e-04 -9.574e-04
ITEM: TIMESTEP
0
ITEM: NUMBER OF ATOMS
8
ITEM: BOX BOUNDS xy xz yz pp pp pp
                     -5.00000000000000e-01 5.00000000000000e-01 0.00000000000000e+00
-5.00000000000000e-01	5.00000000000000e-01	0.00000000000000e+00
-5.00000000000000e-01	5.00000000000000e-01	0.00000000000000e+00
ITEM: ATOMS id type x y z DisplacementX DisplacementY DisplacementZ
121 1 1.000e-01 -1.000e-01 0.000e+00 -6.174e-04 2.092e-04 1.340e-04
122 1 0.000e+00 1.000e-01 0.000e+00 -1.615e-03 1.159e-03 1.804e-05
123 1 1.000e-01 1.000e-01 0.000e+00 7.641e-04 -7.593e-04 9.476e-04
124 1 0.000e+00 0.000e+00 0.000e+00 1.013e-01 -3.964e-04 -2.501e-04
125 1 0.000e+00 -1.000e-01 0.000e+00 7.385e-04 1.706e-04 6.492e-04
126 1 -1.000e-01 -1.000e-01 0.000e+00 4.252e-04 -7.958e-04 1.978e-03
127 1 -1.000e-01 1.000e-01 0.000e+00 -7.489e-04 8.989e-04 -8.650e-04
128 1 -1.000e-01 0.000e+00 0.000e+00 2.654e-04 5.657e-04 7.499e-04
ITEM: TIMESTEP
0
ITEM: NUMBER OF ATOMS
8
ITEM: BOX BOUNDS xy xz yz pp pp pp
                     -5.00000000000000e-01 5.00000000000000e-01 0.00000000000000e+00
-5.00000000000000e-01	5.00000000000000e-01	0.00000000000000e+00
-5.00000000000000e-01	5.00000000000000e-01	0.00000000000000e+00
ITEM: ATOMS id type x y z DisplacementX DisplacementY DisplacementZ
129 1 0.000e+00 1.000e-01 0.000e+00 1.116e-04 -1.263e-03 -6.168e-04
130 1 1.000e-01 1.000e-01 0.000e+00 1.784e-03 -4.508e-04 2.992e-04
131 1 0.000e+00 0.000e+00 0.000e+00 -1.001e-01 6.582e-04 -2.116e-03
132 1 1.000e-01 0.000e+00 0.000e+00 -1.401e-03 -1.721e-04 -4.973e-04
133 1 -1.000e-01 1.000e-01 0.000e+00 -1.274e-04 2.730e-04 -1.050e-03
134 1 0.000e+00 -1.000e-01 0.000e+00 1.965e-04 5.710e-04 1.771e-04
135 1 1.000e-01 -1.000e-01 0.000e+00 9.363e-04 1.283e-03 -1.047e-03
136 1 -1.000e-01 -1.000e-01 0.000e+00 -1.136e-03 -7.024e-04 -1.246e-03
ITEM: TIMESTEP
0
ITEM: NUMBER OF ATOMS
8
ITEM: BOX BOUNDS xy xz yz pp pp pp
                     -5.00000000000000e-01 5.00000000000000e-01 0.00000000000000e+00
-5.00000000000000e-01	5.00000000000000e-01	0.00000000000000e+00
-5.00000000000000e-01	5.00000000000000e-01	0.00000000000000e+00
ITEM: ATOMS id type x y z DisplacementX DisplacementY DisplacementZ
137 1 1.000e-01 0.000e+00 0.000e+00 1.323e-03 3.530e-04 -6.593e-04
138 1 -1.000e-01 0.000e+00 0.000e+00 1.311e-04 -5.917e-04 -1.344e-03
139 1 1.000e-01 -1.000e-01 0.000e+00 4.420e-04 -8.895e-06 -5.537e-04
140 1 0.000e+00 0.000e+00 0.000e+00 1.633e-03 -9.967e-02 5.465e-04
141 1 -1.000e-01 -1.000e-01 0.000e+00 -1.373e-03 1.286e-04 5.572e-04
142 1 0.000e+00 1.000e-01 0.000e+00 6.601e-05 1.828e-03 8.680e-04
143 1 1.000e-01 1.000e-01 0.000e+00 -1.226e-03 -1.647e-03 8.008e-05
144 1 -1.000e-01 1.000e-01 0.000e+00 -6.826e-04 1.222e-03 -1.572e-03
ITEM: TIMESTEP
0
ITEM: NUMBER OF ATOMS
8
ITEM: BOX BOUNDS xy xz yz pp pp pp
                     -5.00000000000000e-01 5.00000000000000e-01 0.00000000000000e+00
-5.00000000000000e-01	5.00000000000000e-01	0.00000000000000e+00
-5.00000000000000e-01	5.00000000000000e-01	0.00000000000000e+00
ITEM: ATOMS id type x y z DisplacementX DisplacementY DisplacementZ
145 1 -1.000e-01 -1.000e-01 0.000e+00 1.086e-03 3.665e-04 9.462e-04
146 1 0.000e+00 -1.000e-01 0.000e+00 -7.746e-04 -6.973e-04 -3.810e-04
147 1 0.000e+00 1.000e-01 0.000e+00 -6.363e-05 3.642e-04 2.655e-04
148 1 1.000e-01 1.000e-01 0.000e+00 -1.095e-03 -1.341e-03 7.574e-04
149 1 0.000e+00 0.000e+00 0.000e+00 1.009e-01 -5.578e-04 -6.325e-05
150 1 -1.000e-01 0.000e+00 0.000e+00 5.608e-04 -5.255e-04 -1.793e-03
151 1 -1.000e-01 1.000e-01 0.000e+00 -4.067e-04 -2.480e-05 7.486e-04
152 1 1.000e-01 -1.000e-01 0.000e+00 -1.369e-03 -2.602e-03 -4.664e-04
ITEM: TIMESTEP
0
ITEM: NUMBER OF ATOMS
8
ITEM: BOX BOUNDS xy xz yz pp pp pp
                     -5.00000000000000e-01 5.00000000000000e-01 0.00000000000000e+00
-5.00000000000000e-01	5.00000000000000e-01	0.00000000000000e+00
-5.00000000000000e-01	5.00000000000000e-01	0.00000000000000e+00
ITEM: ATOMS id type x y z DisplacementX DisplacementY DisplacementZ
153 1 -1.000e-01 0.000e+00 0.000e+00 -5.350e-04 -4.504e-04 5.312e-04
154 1 1.000e-01 1.000e-01 0.000e+00 -3.023e-05 -4.086e-05 -7.874e-04
155 1 1.000e-01 -1.000e-01 0.000e+00 -5.827e-04 -3.469e-04 -1.448e-03
156 1 -1.000e-01 1.000e-01 0.000e+00 -1.019e-03 -4.449e-05 9.144e-04
157 1 -1.000e-01 -1.000e-01 0.000e+00 -1.753e-03 1.168e-03 -8.528e-04
158 1 0.000e+00 -1.000e-01 0.000e+00 -3.513e-04 -6.249e-04 -2.122e-04
159 1 1.000e-01 0.000e+00 0.000e+00 -1.558e-03 7.562e-04 2.892e-04
160 1 0.000e+00 0.000e+00 0.000e+00 1.062e-04 1.016e-01 -6.289e-04
