ITEM: TIMESTEP
0
ITEM: NUMBER OF ATOMS
32
ITEM: BOX BOUNDS xy xz yz pp pp pp
                     -5.00000000000000e-01 5.00000000000000e-01 0.00000000000000e+00
-5.00000000000000e-01	5.00000000000000e-01	0.00000000000000e+00
-5.00000000000000e-01	5.00000000000000e-01	0.00000000000000e+00
ITEM: ATOMS id type x y z DisplacementX DisplacementY DisplacementZ
1 1 2.000e-01 0.000e+00 0.000e+00 -2.747e-04 9.573e-04 1.798e-04
2 1 0.000e+00 2.000e-01 2.000e-01 3.741e-05 1.955e-03 -2.362e-04
3 1 0.000e+00 2.000e-01 0.000e+00 1.339e-03 1.729e-04 7.067e-04
4 1 -2.000e-01 2.000e-01 0.000e+00 1.815e-05 3.507e-04 -1.080e-03
5 1 0.000e+00 0.000e+00 2.000e-01 9.611e-05 -9.544e-04 1.005e-03
6 1 -2.000e-01 2.000e-01 2.000e-01 -5.755e-04 3.512e-04 9.748e-04
7 1 -2.000e-01 2.000e-01 -2.000e-01 1.296e-03 1.024e-03 8.901e-04
8 1 0.000e+00 0.000e+00 0.000e+00 -5.340e-04 -2.004e-01 7.746e-04
9 1 -2.000e-01 -2.000e-01 -2.000e-01 4.025e-04 -2.753e-04 3.399e-04
10 1 0.000e+00 0.000e+00 4.000e-01 1.563e-03 5.086e-04 -1.683e-04
11 1 -2.000e-01 -2.000e-01 0.000e+00 -1.191e-03 1.446e-03 -1.548e-04
12 1 0.000e+00 4.000e-01 0.000e+00 1.158e-03 -2.067e-03 4.302e-04
13 1 -2.000e-01 0.000e+00 2.000e-01 -4.460e-04 -1.161e-05 -5.292e-04
14 1 0.000e+00 -2.000e-01 -2.000e-01 9.676e-04 -3.476e-04 9.267e-05
15 1 0.000e+00 0.000e+00 -4.000e-01 -1.017e-03 -9.868e-05 -1.299e-03
16 1 2.000e-01 -2.000e-01 -2.000e-01 -5.451e-04 -7.134e-04 3.902e-04
17 1 2.000e-01 -2.000e-01 0.000e+00 -7.844e-04 -5.047e-04 -1.573e-03
18 1 2.000e-01 2.000e-01 2.000e-01 3.152e-04 -1.209e-03 -9.634e-04
19 1 0.000e+00 0.000e+00 -2.000e-01 1.770e-04 1.020e-03 7.087e-04
20 1 0.000e+00 -2.000e-01 2.000e-01 2.396e-04 -4.678e-04 5.412e-05
21 1 2.000e-01 2.000e-01 0.000e+00 -3.474e-04 2.219e-03 -2.527e-03
22 1 0.000e+00 2.000e-01 -2.000e-01 -1.162e-04 9.857e-05 5.827e-04
23 1 -2.000e-01 -2.000e-01 2.000e-01 4.584e-04 -1.998e-03 1.266e-04
24 1 2.000e-01 -2.000e-01 2.000e-01 -8.880e-04 4.057e-04 -1.519e-03
25 1 -2.000e-01 0.000e+00 -2.000e-01 1.846e-03 1.840e-03 -4.043e-04
26 1 -4.000e-01 0.000e+00 0.000e+00 -1.847e-04 -9.925e-04 7.460e-05
27 1 4.000e-01 0.000e+00 0.000e+00 4.472e-04 3.123e-04 1.756e-03
28 1 2.000e-01 0.000e+00 -2.000e-01 5.528e-04 -7.940e-04 1.124e-04
29 1 2.000e-01 2.000e-01 -2.000e-01 -1.177e-03 -2.187e-03 -1.527e-03
30 1 0.000e+00 -4.000e-01 0.000e+00 1.020e-03 6.059e-04 7.810e-04
31 1 2.000e-01 0.000e+00 2.000e-01 -1.298e-03 -3.883e-04 9.433e-04
32 1 -2.000e-01 0.000e+00 0.000e+00 5.949e-04 -1.657e-03 1.772e-03
ITEM: TIMESTEP
0
ITEM: NUMBER OF ATOMS
32
ITEM: BOX BOUNDS xy xz yz pp pp pp
                     -5.00000000000000e-01 5.00000000000000e-01 0.00000000000000e+00
-5.00000000000000e-01	5.00000000000000e-01	0.00000000000000e+00
-5.00000000000000e-01	5.00000000000000e-01	0.00000000000000e+00
ITEM: ATOMS id type x y z DisplacementX DisplacementY DisplacementZ
33 1 0.000e+00 -4.000e-01 0.000e+00 1.292e-03 -1.359e-03 -7.697e-04
34 1 0.000e+00 -2.000e-01 0.000e+00 -5.931e-04 -2.316e-04 -7.081e-04
35 1 0.000e+00 4.000e-01 0.000e+00 -2.413e-04 -6.221e-04 4.749e-04
36 1 -2.000e-01 -2.000e-01 2.000e-01 1.439e-03 -5.488e-04 -6.864e-04
37 1 2.000e-01 2.000e-01 2.000e-01 -1.517e-04 -7.100e-05 -1.857e-03
38 1 -2.000e-01 -2.000e-01 0.000e+00 1.481e-05 1.561e-03 -1.097e-03
39 1 0.000e+00 0.000e+00 -4.000e-01 -9.829e-04 4.279e-04 1.115e-03
40 1 2.000e-01 -2.000e-01 -2.000e-01 -4.796e-04 -7.647e-04 -7.660e-04
41 1 2.000e-01 2.000e-01 0.000e+00 3.285e-04 8.686e-04 -2.354e-04
42 1 -2.000e-01 2.000e-01 -2.000e-01 1.024e-04 -3.319e-04 -1.791e-03
43 1 0.000e+00 0.000e+00 -2.000e-01 1.198e-04 6.607e-04 -3.329e-04
44 1 -2.000e-01 2.000e-01 2.000e-01 -8.829e-04 -6.656e-04 7.718e-04
45 1 0.000e+00 -2.000e-01 2.000e-01 3.255e-04 7.040e-04 -1.431e-03
46 1 0.000e+00 0.000e+00 0.000e+00 2.012e-01 -8.662e-04 4.791e-05
47 1 0.000e+00 2.000e-01 2.000e-01 1.267e-04 9.132e-04 5.286e-04
48 1 2.000e-01 0.000e+00 -2.000e-01 3.995e-04 7.423e-04 4.622e-04
49 1 4.000e-01 0.000e+00 0.000e+00 1.640e-03 3.246e-04 8.074e-05
50 1 2.000e-01 -2.000e-01 2.000e-01 -9.412e-04 1.971e-03 1.418e-03
51 1 -4.000e-01 0.000e+00 0.000e+00 -7.056e-04 3.640e-04 8.836e-05
52 1 2.000e-01 2.000e-01 -2.000e-01 8.701e-04 -4.868e-05 -1.763e-03
53 1 2.000e-01 0.000e+00 2.000e-01 -9.569e-04 -4.674e-04 -1.387e-04
54 1 0.000e+00 0.000e+00 2.000e-01 -1.168e-03 -4.828e-04 -1.268e-03
55 1 0.000e+00 2.000e-01 -2.000e-01 4.205e-04 6.753e-04 2.234e-04
56 1 0.000e+00 -2.000e-01 -2.000e-01 9.326e-04 7.160e-04 -1.401e-04
57 1 -2.000e-01 2.000e-01 0.000e+00 -2.537e-03 -5.251e-04 -1.183e-03
58 1 -2.000e-01 -2.000e-01 -2.000e-01 3.829e-04 -1.044e-03 -7.256e-04
59 1 -2.000e-01 0.000e+00 2.000e-01 -6.182e-04 1.973e-03 2.631e-04
60 1 -2.000e-01 0.000e+00 -2.000e-01 -1.533e-03 -1.330e-03 -3.216e-04
61 1 2.000e-01 -2.000e-01 0.000e+00 -8.607e-04 4.389e-05 -2.226e-05
62 1 0.000e+00 0.000e+00 4.000e-01 4.253e-04 -4.594e-05 -2.977e-04
63 1 -2.000e-01 0.000e+00 0.000e+00 3.753e-04 3.762e-04 -1.611e-04
64 1 0.000e+00 2.000e-01 0.000e+00 4.160e-04 1.822e-03 8.990e-04
ITEM: TIMESTEP
0
ITEM: NUMBER OF ATOMS
32
ITEM: BOX BOUNDS xy xz yz pp pp pp
                     -5.00000000000000e-01 5.00000000000000e-01 0.00000000000000e+00
-5.00000000000000e-01	5.00000000000000e-01	0.00000000000000e+00
-5.00000000000000e-01	5.00000000000000e-01	0.00000000000000e+00
ITEM: ATOMS id type x y z DisplacementX DisplacementY DisplacementZ
65 1 2.000e-01 0.000e+00 -2.000e-01 -6.252e-04 -7.065e-04 9.165e-04
66 1 2.000e-01 2.000e-01 2.000e-01 1.334e-04 1.446e-04 9.640e-04
67 1 -2.000e-01 -2.000e-01 2.000e-01 -1.368e-03 1.806e-04 -9.046e-04
68 1 0.000e+00 0.000e+00 -2.000e-01 -1.161e-03 3.730e-04 -7.084e-04
69 1 4.000e-01 0.000e+00 0.000e+00 -1.674e-03 -4.227e-04 2.279e-03
70 1 -2.000e-01 0.000e+00 -2.000e-01 -2.989e-04 2.255e-03 1.030e-03
71 1 0.000e+00 -2.000e-01 0.000e+00 -4.201e-05 -2.330e-04 -1.712e-03
72 1 -2.000e-01 2.000e-01 -2.000e-01 -1.199e-04 -1.092e-03 -6.933e-04
73 1 0.000e+00 2.000e-01 2.000e-01 5.213e-04 -8.447e-04 9.560e-05
74 1 -2.000e-01 0.000e+00 0.000e+00 -7.085e-04 9.148e-04 1.722e-03
75 1 -2.000e-01 0.000e+00 2.000e-01 -4.519e-04 -1.323e-03 1.787e-03
76 1 0.000e+00 0.000e+00 0.000e+00 -1.332e-03 -5.935e-04 1.990e-01
77 1 0.000e+00 0.000e+00 -4.000e-01 2.125e-03 9.289e-04 -2.121e-03
78 1 0.000e+00 2.000e-01 -2.000e-01 -1.091e-03 2.432e-04 -1.291e-03
79 1 2.000e-01 0.000e+00 0.000e+00 1.702e-03 9.766e-05 4.615e-04
80 1 0.000e+00 -2.000e-01 -2.000e-01 -3.556e-04 -3.130e-04 4.803e-04
81 1 2.000e-01 0.000e+00 2.000e-01 -1.186e-03 -1.043e-03 7.705e-04
82 1 0.000e+00 -4.000e-01 0.000e+00 -2.472e-04 -1.137e-03 -4.264e-04
83 1 2.000e-01 2.000e-01 -2.000e-01 -1.086e-03 -1.503e-04 -2.398e-04
84 1 0.000e+00 2.000e-01 0.000e+00 6.998e-04 -1.223e-03 5.201e-04
85 1 2.000e-01 -2.000e-01 2.000e-01 -3.648e-04 -5.711e-04 -4.665e-04
86 1 0.000e+00 0.000e+00 4.000e-01 8.064e-04 6.559e-04 -1.065e-03
87 1 2.000e-01 -2.000e-01 -2.000e-01 8.684e-04 -6.471e-04 -3.069e-05
88 1 0.000e+00 4.000e-01 0.000e+00 -2.586e-04 -6.603e-04 3.233e-04
89 1 -2.000e-01 -2.000e-01 -2.000e-01 -5.354e-04 -1.576e-03 3.124e-04
90 1 -2.000e-01 2.000e-01 0.000e+00 -4.243e-05 1.123e-03 1.162e-03
91 1 -2.000e-01 -2.000e-01 0.000e+00 2.426e-04 -2.142e-04 1.138e-03
92 1 2.000e-01 2.000e-01 0.000e+00 -7.449e-04 -6.449e-04 3.511e-04
93 1 2.000e-01 -2.000e-01 0.000e+00 -2.758e-06 -8.768e-04 8.884e-06
94 1 -4.000e-01 0.000e+00 0.000e+00 -2.131e-03 -7.745e-04 -5.013e-04
95 1 0.000e+00 -2.000e-01 2.000e-01 4.071e-04 -5.570e-05 -3.405e-04
96 1 -2.000e-01 2.000e-01 2.000e-01 -3.473e-04 -8.427e-04 -1.331e-04
ITEM: TIMESTEP
0
ITEM: NUMBER OF ATOMS
32
ITEM: BOX BOUNDS xy xz yz pp pp pp
                     -5.00000000000000e-01 5.00000000000000e-01 0.00000000000000e+00
-5.00000000000000e-01	5.00000000000000e-01	0.00000000000000e+00
-5.00000000000000e-01	5.00000000000000e-01	0.00000000000000e+00
ITEM: ATOMS id type x y z DisplacementX DisplacementY DisplacementZ
97 1 0.000e+00 0.000e+00 -4.000e-01 -2.288e-04 -1.698e-03 -7.936e-05
98 1 0.000e+00 2.000e-01 0.000e+00 -8.736e-04 1.220e-03 -1.203e-04
99 1 0.000e+00 -2.000e-01 2.000e-01 -3.975e-04 -6.319e-04 2.663e-03
100 1 0.000e+00 0.000e+00 4.000e-01 -3.154e-04 -4.370e-04 -4.274e-04
101 1 -2.000e-01 2.000e-01 2.000e-01 -1.103e-03 1.343e-04 -1.577e-03
102 1 2.000e-01 0.000e+00 -2.000e-01 2.798e-04 7.694e-05 9.785e-04
103 1 -2.000e-01 -2.000e-01 -2.000e-01 3.956e-04 -1.654e-03 -6.295e-04
104 1 -2.000e-01 2.000e-01 0.000e+00 -2.189e-03 -3.118e-03 1.842e-03
105 1 2.000e-01 0.000e+00 2.000e-01 1.928e-03 4.404e-04 -5.742e-04
106 1 2.000e-01 2.000e-01 2.000e-01 -1.252e-03 9.550e-04 -1.507e-04
107 1 -4.000e-01 0.000e+00 0.000e+00 -1.306e-03 -2.302e-04 2.287e-04
108 1 -2.000e-01 0.000e+00 -2.000e-01 -8.297e-04 -1.046e-03 1.283e-03
109 1 0.000e+00 0.000e+00 -2.000e-01 6.318e-04 1.743e-04 -1.284e-03
110 1 0.000e+00 0.000e+00 0.000e+00 -2.008e-01 -1.736e-03 1.105e-03
111 1 2.000e-01 -2.000e-01 0.000e+00 -2.774e-04 7.671e-04 -1.667e-03
112 1 -2.000e-01 -2.000e-01 2.000e-01 -8.096e-04 -2.264e-04 -1.817e-03
113 1 2.000e-01 0.000e+00 0.000e+00 1.291e-03 -9.364e-04 3.529e-04
114 1 -2.000e-01 2.000e-01 -2.000e-01 -8.006e-04 -5.086e-04 1.445e-03
115 1 0.000e+00 -2.000e-01 0.000e+00 -1.285e-04 -3.784e-04 1.213e-03
116 1 -2.000e-01 0.000e+00 2.000e-01 -4.350e-04 -4.101e-04 -4.858e-04
117 1 0.000e+00 4.000e-01 0.000e+00 3.994e-05 -2.837e-04 -3.798e-04
118 1 0.000e+00 0.000e+00 2.000e-01 -1.348e-03 1.175e-03 3.392e-04
119 1 2.000e-01 -2.000e-01 2.000e-01 2.511e-03 -4.288e-04 -8.020e-04
120 1 2.000e-01 -2.000e-01 -2.000e-01 -1.726e-03 7.638e-04 -1.427e-03
121 1 2.000e-01 2.000e-01 0.000e+00 -5.777e-04 -3.411e-04 3.943e-04
122 1 2.000e-01 2.000e-01 -2.000e-01 -4.558e-04 8.694e-04 7.276e-05
123 1 0.000e+00 2.000e-01 -2.000e-01 1.379e-03 -1.634e-03 4.674e-05
124 1 0.000e+00 -2.000e-01 -2.000e-01 5.930e-04 8.875e-05 -2.651e-05
125 1 0.000e+00 -4.000e-01 0.000e+00 -2.122e-04 7.518e-04 -7.665e-04
126 1 -2.000e-01 -2.000e-01 0.000e+00 5.726e-04 2.613e-03 -8.478e-05
127 1 4.000e-01 0.000e+00 0.000e+00 -1.448e-03 -5.094e-04 6.686e-04
128 1 0.000e+00 2.000e-01 2.000e-01 2.473e-04 2.946e-05 3.898e-04
ITEM: TIMESTEP
0
ITEM: NUMBER OF ATOMS
32
ITEM: BOX BOUNDS xy xz yz pp pp pp
                     -5.00000000000000e-01 5.00000000000000e-01 0.00000000000000e+00
-5.00000000000000e-01	5.00000000000000e-01	0.00000000000000e+00
-5.00000000000000e-01	5.00000000000000e-01	0.00000000000000e+00
ITEM: ATOMS id type x y z DisplacementX DisplacementY DisplacementZ
129 1 2.000e-01 2.000e-01 -2.000e-01 -1.152e-03 7.652e-04 2.752e-04
130 1 2.000e-01 -2.000e-01 0.000e+00 -1.135e-03 1.411e-03 -5.009e-05
131 1 2.000e-01 0.000e+00 2.000e-01 8.391e-04 -3.510e-04 2.366e-04
132 1 0.000e+00 4.000e-01 0.000e+00 7.518e-04 3.586e-04 2.081e-03
133 1 -2.000e-01 -2.000e-01 -2.000e-01 -1.086e-03 1.478e-05 1.158e-03
134 1 0.000e+00 -4.000e-01 0.000e+00 7.207e-04 -3.587e-05 3.947e-04
135 1 0.000e+00 2.000e-01 0.000e+00 -2.947e-05 2.414e-04 4.941e-04
136 1 0.000e+00 0.000e+00 4.000e-01 1.191e-03 2.184e-03 2.131e-03
137 1 -2.000e-01 -2.000e-01 2.000e-01 -1.907e-03 1.790e-04 -1.006e-03
138 1 0.000e+00 2.000e-01 -2.000e-01 2.161e-04 1.256e-04 1.038e-03
139 1 4.000e-01 0.000e+00 0.000e+00 -1.025e-04 1.043e-03 1.057e-03
140 1 0.000e+00 2.000e-01 2.000e-01 1.930e-04 1.574e-03 1.246e-03
141 1 -2.000e-01 -2.000e-01 0.000e+00 1.022e-03 -6.752e-04 -2.038e-04
142 1 -2.000e-01 0.000e+00 -2.000e-01 -2.326e-04 5.338e-04 5.852e-04
143 1 -2.000e-01 2.000e-01 0.000e+00 -4.587e-04 1.877e-03 4.823e-04
144 1 0.000e+00 0.000e+00 -4.000e-01 5.810e-04 -1.709e-03 -1.056e-03
145 1 0.000e+00 0.000e+00 2.000e-01 1.037e-03 6.267e-04 5.274e-04
146 1 2.000e-01 2.000e-01 2.000e-01 -2.140e-03 -1.624e-04 4.615e-05
147 1 -2.000e-01 2.000e-01 2.000e-01 1.401e-04 7.362e-04 4.852e-04
148 1 2.000e-01 0.000e+00 -2.000e-01 4.247e-04 3.028e-04 -8.694e-04
149 1 0.000e+00 -2.000e-01 0.000e+00 9.864e-04 -1.560e-03 -1.075e-03
150 1 2.000e-01 -2.000e-01 -2.000e-01 -1.566e-04 3.628e-04 -3.516e-04
151 1 0.000e+00 0.000e+00 0.000e+00 -1.380e-03 3.049e-04 -1.989e-01
152 1 -2.000e-01 0.000e+00 0.000e+00 6.428e-04 2.062e-03 -5.170e-04
153 1 2.000e-01 0.000e+00 0.000e+00 1.697e-03 -1.097e-03 -3.336e-04
154 1 2.000e-01 -2.000e-01 2.000e-01 -1.486e-03 1.792e-03 1.401e-03
155 1 -4.000e-01 0.000e+00 0.000e+00 -1.255e-03 -1.913e-03 1.946e-03
156 1 0.000e+00 -2.000e-01 2.000e-01 -4.145e-04 1.652e-03 3.689e-04
157 1 0.000e+00 -2.000e-01 -2.000e-01 -1.314e-04 -1.378e-03 -1.535e-03
158 1 -2.000e-01 0.000e+00 2.000e-01 1.016e-03 -1.252e-04 1.371e-04
159 1 2.000e-01 2.000e-01 0.000e+00 -1.154e-03 2.997e-04 1.354e-03
160 1 -2.000e-01 2.000e-01 -2.000e-01 6.828e-04 5.720e-04 -6.692e-04
ITEM: TIMESTEP
0
ITEM: NUMBER OF ATOMS
32
ITEM: BOX BOUNDS xy xz yz pp pp pp
                     -5.00000000000000e-01 5.00000000000000e-01 0.00000000000000e+00
-5.00000000000000e-01	5.00000000000000e-01	0.00000000000000e+00
-5.00000000000000e-01	5.00000000000000e-01	0.00000000000000e+00
ITEM: ATOMS id type x y z DisplacementX DisplacementY DisplacementZ
161 1 2.000e-01 0.000e+00 2.000e-01 -5.407e-04 -4.125e-04 6.666e-05
162 1 -2.000e-01 -2.000e-01 0.000e+00 3.025e-04 2.223e-03 -1.325e-03
163 1 0.000e+00 -4.000e-01 0.000e+00 5.402e-04 4.958e-04 -9.438e-04
164 1 -2.000e-01 0.000e+00 0.000e+00 -3.073e-04 2.412e-04 1.415e-03
165 1 0.000e+00 -2.000e-01 2.000e-01 -9.634e-04 2.161e-04 3.108e-04
166 1 -4.000e-01 0.000e+00 0.000e+00 -3.450e-04 9.260e-04 -1.036e-03
167 1 2.000e-01 -2.000e-01 2.000e-01 -4.354e-04 2.598e-03 2.748e-05
168 1 -2.000e-01 -2.000e-01 2.000e-01 2.032e-03 8.443e-04 1.009e-03
169 1 0.000e+00 0.000e+00 -2.000e-01 1.543e-03 -2.317e-04 4.071e-04
170 1 2.000e-01 -2.000e-01 -2.000e-01 -8.567e-05 -8.903e-04 3.784e-04
171 1 0.000e+00 4.000e-01 0.000e+00 -5.889e-04 -4.971e-04 1.104e-03
172 1 -2.000e-01 2.000e-01 -2.000e-01 -5.572e-04 7.009e-04 3.051e-04
173 1 -2.000e-01 0.000e+00 2.000e-01 -5.978e-04 3.169e-04 7.207e-04
174 1 -2.000e-01 2.000e-01 0.000e+00 1.632e-04 6.434e-04 2.005e-03
175 1 0.000e+00 -2.000e-01 0.000e+00 7.813e-04 1.485e-03 6.905e-04
176 1 0.000e+00 2.000e-01 -2.000e-01 1.152e-03 9.834e-05 1.728e-03
177 1 2.000e-01 2.000e-01 -2.000e-01 -6.530e-04 -3.454e-04 4.350e-05
178 1 0.000e+00 0.000e+00 -4.000e-01 -3.272e-04 6.268e-04 1.598e-03
179 1 2.000e-01 2.000e-01 0.000e+00 3.466e-04 1.806e-04 -1.587e-04
180 1 4.000e-01 0.000e+00 0.000e+00 -2.680e-04 -1.291e-03 4.114e-04
181 1 0.000e+00 0.000e+00 2.000e-01 6.477e-04 -8.919e-04 1.339e-03
182 1 0.000e+00 -2.000e-01 -2.000e-01 -1.144e-03 4.632e-04 1.967e-04
183 1 -2.000e-01 -2.000e-01 -2.000e-01 -7.454e-04 -1.629e-03 -8.955e-04
184 1 2.000e-01 0.000e+00 0.000e+00 -3.190e-04 1.559e-04 -9.619e-04
185 1 0.000e+00 2.000e-01 2.000e-01 1.713e-04 -2.527e-03 7.319e-04
186 1 -2.000e-01 2.000e-01 2.000e-01 -5.720e-05 -6.248e-04 -7.050e-04
187 1 2.000e-01 2.000e-01 2.000e-01 6.471e-04 1.610e-05 1.118e-05
188 1 -2.000e-01 0.000e+00 -2.000e-01 3.042e-04 -2.637e-04 5.725e-04
189 1 2.000e-01 0.000e+00 -2.000e-01 -9.519e-05 2.607e-03 -5.109e-04
190 1 2.000e-01 -2.000e-01 0.000e+00 5.703e-04 8.041e-04 1.265e-03
191 1 0.000e+00 0.000e+00 4.000e-01 -7.690e-04 -1.252e-03 -6.277e-04
192 1 0.000e+00 0.000e+00 0.000e+00 2.684e-04 2.004e-01 -1.662e-04
ITEM: TIMESTEP
0
ITEM: NUMBER OF ATOMS
32
ITEM: BOX BOUNDS xy xz yz pp pp pp
                     -5.00000000000000e-01 5.00000000000000e-01 0.00000000000000e+00
-5.00000000000000e-01	5.00000000000000e-01	0.00000000000000e+00
-5.00000000000000e-01	5.00000000000000e-01	0.00000000000000e+00
ITEM: ATOMS id type x y z DisplacementX DisplacementY DisplacementZ
193 1 -2.000e-01 -2.000e-01 -2.000e-01 -6.354e-04 1.382e-03 2.162e-04
194 1 0.000e+00 0.000e+00 0.000e+00 -1.986e-01 -6.081e-04 1.569e-03
195 1 2.000e-01 2.000e-01 -2.000e-01 -3.071e-03 -2.412e-04 -2.604e-04
196 1 0.000e+00 0.000e+00 4.000e-01 4.314e-04 -1.536e-03 2.761e-04
197 1 -2.000e-01 -2.000e-01 0.000e+00 1.994e-04 2.404e-03 -1.991e-04
198 1 4.000e-01 0.000e+00 0.000e+00 6.735e-04 -6.669e-04 -2.374e-04
199 1 2.000e-01 0.000e+00 2.000e-01 8.410e-04 -2.609e-03 1.990e-03
200 1 0.000e+00 -4.000e-01 0.000e+00 2.414e-04 2.289e-03 4.496e-04
201 1 -2.000e-01 2.000e-01 0.000e+00 -6.051e-05 -3.425e-04 -4.881e-05
202 1 -2.000e-01 -2.000e-01 2.000e-01 1.154e-03 -2.166e-04 -2.052e-04
203 1 2.000e-01 -2.000e-01 0.000e+00 -9.615e-05 -5.556e-04 8.658e-04
204 1 0.000e+00 0.000e+00 2.000e-01 1.059e-03 -3.824e-04 -8.457e-04
205 1 -2.000e-01 0.000e+00 2.000e-01 2.763e-04 -1.376e-03 -6.823e-04
206 1 0.000e+00 0.000e+00 -4.000e-01 1.189e-03 -3.901e-04 5.662e-04
207 1 -2.000e-01 2.000e-01 2.000e-01 3.397e-05 1.728e-03 3.406e-03
208 1 -2.000e-01 0.000e+00 -2.000e-01 -1.472e-03 2.059e-04 -3.665e-05
209 1 0.000e+00 -2.000e-01 -2.000e-01 -1.875e-03 1.473e-03 -1.326e-03
210 1 0.000e+00 4.000e-01 0.000e+00 -2.891e-05 5.700e-04 1.885e-04
211 1 0.000e+00 2.000e-01 0.000e+00 1.450e-03 1.057e-03 -5.020e-04
212 1 -2.000e-01 2.000e-01 -2.000e-01 8.178e-04 -1.648e-03 2.097e-04
213 1 2.000e-01 2.000e-01 2.000e-01 -1.483e-03 6.723e-04 -8.513e-04
214 1 2.000e-01 2.000e-01 0.000e+00 5.359e-05 -1.689e-03 1.158e-03
215 1 0.000e+00 -2.000e-01 2.000e-01 -4.694e-04 -1.019e-03 8.025e-04
216 1 -4.000e-01 0.000e+00 0.000e+00 8.982e-04 1.065e-03 -8.527e-04
217 1 2.000e-01 0.000e+00 -2.000e-01 2.363e-03 7.685e-04 -1.698e-04
218 1 0.000e+00 0.000e+00 -2.000e-01 9.517e-04 6.752e-04 -2.009e-03
219 1 0.000e+00 -2.000e-01 0.000e+00 -2.360e-05 6.441e-04 -1.213e-03
220 1 2.000e-01 -2.000e-01 -2.000e-01 2.345e-04 -1.611e-04 6.497e-04
221 1 0.000e+00 2.000e-01 -2.000e-01 1.546e-03 -1.803e-03 -6.673e-04
222 1 2.000e-01 -2.000e-01 2.000e-01 1.263e-05 -1.322e-03 1.148e-03
223 1 2.000e-01 0.000e+00 0.000e+00 4.519e-04 4.834e-04 -1.542e-03
224 1 0.000e+00 2.000e-01 2.000e-01 -3.522e-04 1.157e-03 -2.972e-04
ITEM: TIMESTEP
0
ITEM: NUMBER OF ATOMS
32
ITEM: BOX BOUNDS xy xz yz pp pp pp
                     -5.00000000000000e-01 5.00000000000000e-01 0.00000000000000e+00
-5.00000000000000e-01	5.00000000000000e-01	0.00000000000000e+00
-5.00000000000000e-01	5.00000000000000e-01	0.00000000000000e+00
ITEM: ATOMS id type x y z DisplacementX DisplacementY DisplacementZ
225 1 0.000e+00 0.000e+00 -4.000e-01 8.737e-04 5.143e-06 2.081e-03
226 1 0.000e+00 0.000e+00 -2.000e-01 -4.251e-04 -9.362e-05 6.108e-04
227 1 2.000e-01 2.000e-01 0.000e+00 1.329e-03 -1.960e-03 -2.826e-03
228 1 -2.000e-01 0.000e+00 0.000e+00 5.226e-04 -5.997e-04 1.461e-03
229 1 -4.000e-01 0.000e+00 0.000e+00 -1.152e-03 6.001e-04 -8.660e-05
230 1 -2.000e-01 -2.000e-01 0.000e+00 -2.701e-04 5.662e-04 4.578e-04
231 1 0.000e+00 0.000e+00 0.000e+00 -1.123e-03 1.984e-01 -8.733e-04
232 1 0.000e+00 -4.000e-01 0.000e+00 -1.356e-05 1.571e-03 -1.497e-03
233 1 2.000e-01 -2.000e-01 0.000e+00 -1.545e-03 -5.268e-04 8.655e-05
234 1 0.000e+00 4.000e-01 0.000e+00 2.220e-03 -2.208e-03 1.123e-03
235 1 0.000e+00 0.000e+00 2.000e-01 -6.214e-04 -5.754e-04 -2.265e-04
236 1 0.000e+00 -2.000e-01 -2.000e-01 -4.294e-04 2.014e-04 -2.130e-03
237 1 2.000e-01 -2.000e-01 2.000e-01 6.134e-04 4.255e-04 2.401e-04
238 1 4.000e-01 0.000e+00 0.000e+00 -5.536e-04 1.031e-03 1.310e-03
239 1 2.000e-01 2.000e-01 2.000e-01 7.406e-04 -3.411e-05 5.823e-04
240 1 0.000e+00 2.000e-01 2.000e-01 4.721e-05 -4.086e-04 5.349e-06
241 1 0.000e+00 0.000e+00 4.000e-01 -1.033e-03 -1.139e-03 -3.415e-04
242 1 2.000e-01 -2.000e-01 -2.000e-01 8.186e-04 -2.254e-03 2.816e-03
243 1 -2.000e-01 0.000e+00 2.000e-01 -6.106e-04 2.912e-05 -1.171e-04
244 1 0.000e+00 2.000e-01 -2.000e-01 2.298e-03 -1.081e-03 6.522e-05
245 1 -2.000e-01 -2.000e-01 -2.000e-01 -2.750e-04 -2.322e-05 -4.865e-05
246 1 2.000e-01 0.000e+00 -2.000e-01 -1.313e-03 7.794e-04 3.317e-04
247 1 -2.000e-01 0.000e+00 -2.000e-01 2.214e-03 1.099e-03 -3.027e-04
248 1 -2.000e-01 2.000e-01 2.000e-01 -1.561e-03 9.825e-05 -7.153e-04
249 1 2.000e-01 0.000e+00 2.000e-01 3.958e-04 -6.532e-04 -1.125e-03
250 1 -2.000e-01 -2.000e-01 2.000e-01 2.215e-03 1.478e-03 -1.353e-03
251 1 -2.000e-01 2.000e-01 0.000e+00 -3.052e-04 1.067e-03 7.750e-04
252 1 2.000e-01 2.000e-01 -2.000e-01 -5.385e-05 1.094e-03 -9.565e-04
253 1 2.000e-01 0.000e+00 0.000e+00 7.698e-04 -1.587e-03 -1.467e-04
254 1 0.000e+00 -2.000e-01 0.000e+00 -1.804e-03 1.180e-03 -1.765e-03
255 1 0.000e+00 -2.000e-01 2.000e-01 1.202e-03 -1.433e-03 2.047e-03
256 1 -2.000e-01 2.000e-01 -2.000e-01 -7.748e-04 7.517e-04 -5.819e-05
ITEM: TIMESTEP
0
ITEM: NUMBER OF ATOMS
32
ITEM: BOX BOUNDS xy xz yz pp pp pp
                     -5.00000000000000e-01 5.00000000000000e-01 0.00000000000000e+00
-5.00000000000000e-01	5.00000000000000e-01	0.00000000000000e+00
-5.00000000000000e-01	5.00000000000000e-01	0.00000000000000e+00
ITEM: ATOMS id type x y z DisplacementX DisplacementY DisplacementZ
257 1 2.000e-01 2.000e-01 2.000e-01 -2.154e-03 1.754e-03 -5.378e-04
258 1 0.000e+00 2.000e-01 -2.000e-01 -1.393e-03 1.286e-03 8.490e-04
259 1 2.000e-01 -2.000e-01 0.000e+00 -3.448e-04 -8.456e-05 8.803e-04
260 1 0.000e+00 2.000e-01 2.000e-01 -9.952e-05 9.097e-04 3.762e-04
261 1 -2.000e-01 2.000e-01 -2.000e-01 -7.221e-04 4.365e-04 1.476e-04
262 1 0.000e+00 0.000e+00 -4.000e-01 1.901e-04 1.308e-04 9.008e-04
263 1 2.000e-01 2.000e-01 -2.000e-01 9.021e-04 1.319e-03 -2.723e-03
264 1 0.000e+00 -4.000e-01 0.000e+00 4.710e-04 1.847e-03 1.565e-03
265 1 0.000e+00 2.000e-01 0.000e+00 1.076e-04 -6.453e-05 -9.796e-04
266 1 -2.000e-01 0.000e+00 2.000e-01 1.492e-03 4.083e-04 8.234e-04
267 1 -2.000e-01 0.000e+00 -2.000e-01 -1.608e-03 -3.025e-04 -1.363e-03
268 1 -2.000e-01 2.000e-01 0.000e+00 1.388e-04 -4.889e-04 -5.546e-04
269 1 0.000e+00 0.000e+00 0.000e+00 -1.149e-03 -1.979e-01 1.189e-04
270 1 2.000e-01 -2.000e-01 2.000e-01 3.160e-04 1.200e-03 3.077e-04
271 1 0.000e+00 -2.000e-01 2.000e-01 -3.292e-04 -2.102e-04 -2.085e-03
272 1 0.000e+00 0.000e+00 2.000e-01 4.298e-04 -5.543e-04 -8.268e-04
273 1 -2.000e-01 2.000e-01 2.000e-01 3.242e-04 -3.689e-04 7.568e-04
274 1 0.000e+00 0.000e+00 4.000e-01 6.335e-04 -5.380e-06 1.859e-03
275 1 0.000e+00 -2.000e-01 -2.000e-01 3.519e-04 -4.246e-04 -3.178e-04
276 1 2.000e-01 2.000e-01 0.000e+00 8.112e-04 1.357e-04 -2.078e-04
277 1 2.000e-01 0.000e+00 0.000e+00 1.584e-03 -4.644e-04 -2.317e-04
278 1 0.000e+00 0.000e+00 -2.000e-01 -1.480e-04 9.383e-04 -3.000e-03
279 1 -2.000e-01 -2.000e-01 2.000e-01 -8.695e-05 -4.017e-04 -5.088e-04
280 1 4.000e-01 0.000e+00 0.000e+00 1.266e-03 1.477e-03 7.411e-04
281 1 -2.000e-01 0.000e+00 0.000e+00 -4.107e-05 -8.829e-04 -4.228e-05
282 1 -2.000e-01 -2.000e-01 0.000e+00 1.044e-03 -1.378e-03 7.042e-04
283 1 2.000e-01 -2.000e-01 -2.000e-01 -8.895e-04 5.231e-05 2.403e-04
284 1 2.000e-01 0.000e+00 -2.000e-01 2.222e-04 1.052e-03 -1.098e-03
285 1 -4.000e-01 0.000e+00 0.000e+00 8.516e-04 -1.317e-03 -2.221e-04
286 1 0.000e+00 4.000e-01 0.000e+00 1.784e-03 5.802e-04 -6.719e-04
287 1 2.000e-01 0.000e+00 2.000e-01 -1.390e-03 -4.382e-04 2.437e-04
288 1 -2.000e-01 -2.000e-01 -2.000e-01 3.274e-04 1.303e-03 -2.039e-04
ITEM: TIMESTEP
0
ITEM: NUMBER OF ATOMS
32
ITEM: BOX BOUNDS xy xz yz pp pp pp
                     -5.00000000000000e-01 5.00000000000000e-01 0.00000000000000e+00
-5.00000000000000e-01	5.00000000000000e-01	0.00000000000000e+00
-5.00000000000000e-01	5.00000000000000e-01	0.00000000000000e+00
ITEM: ATOMS id type x y z DisplacementX DisplacementY DisplacementZ
289 1 2.000e-01 0.000e+00 -2.000e-01 1.308e-03 -3.281e-04 1.912e-03
290 1 0.000e+00 4.000e-01 0.000e+00 -1.296e-03 -1.014e-04 -1.811e-03
291 1 -2.000e-01 -2.000e-01 -2.000e-01 1.347e-03 7.639e-04 -1.253e-03
292 1 -2.000e-01 0.000e+00 2.000e-01 1.791e-03 1.009e-03 2.274e-03
293 1 2.000e-01 0.000e+00 2.000e-01 5.232e-04 -1.364e-03 2.446e-03
294 1 0.000e+00 -2.000e-01 -2.000e-01 -5.182e-04 -9.256e-04 -2.919e-04
295 1 -2.000e-01 2.000e-01 0.000e+00 1.303e-03 -9.903e-04 1.513e-03
296 1 -2.000e-01 2.000e-01 2.000e-01 -1.883e-04 1.982e-03 1.472e-03
297 1 4.000e-01 0.000e+00 0.000e+00 1.137e-04 -2.412e-03 -1.940e-03
298 1 0.000e+00 2.000e-01 -2.000e-01 -6.271e-04 1.739e-04 2.876e-04
299 1 0.000e+00 -2.000e-01 0.000e+00 -5.544e-04 -1.066e-03 1.296e-03
300 1 2.000e-01 0.000e+00 0.000e+00 6.428e-04 1.767e-03 1.574e-04
301 1 -4.000e-01 0.000e+00 0.000e+00 1.034e-03 -7.913e-05 -3.817e-04
302 1 0.000e+00 0.000e+00 0.000e+00 2.218e-05 1.082e-03 -2.001e-01
303 1 0.000e+00 0.000e+00 2.000e-01 6.686e-04 -1.133e-03 1.060e-03
304 1 0.000e+00 -2.000e-01 2.000e-01 -2.327e-03 -1.771e-03 -7.710e-04
305 1 0.000e+00 2.000e-01 0.000e+00 -1.480e-03 2.875e-05 -1.170e-03
306 1 -2.000e-01 -2.000e-01 0.000e+00 8.710e-04 -1.499e-05 -1.637e-03
307 1 0.000e+00 2.000e-01 2.000e-01 -1.814e-04 5.752e-04 -8.107e-04
308 1 0.000e+00 0.000e+00 -4.000e-01 -2.852e-03 3.057e-04 -6.482e-04
309 1 2.000e-01 2.000e-01 -2.000e-01 -4.911e-04 3.596e-04 -7.138e-04
310 1 0.000e+00 0.000e+00 4.000e-01 2.475e-03 -4.979e-05 -1.121e-04
311 1 -2.000e-01 0.000e+00 0.000e+00 5.607e-04 -1.286e-03 -5.328e-04
312 1 2.000e-01 -2.000e-01 0.000e+00 1.620e-03 -1.362e-04 -6.428e-04
313 1 -2.000e-01 2.000e-01 -2.000e-01 1.021e-03 3.291e-04 3.790e-04
314 1 -2.000e-01 0.000e+00 -2.000e-01 1.525e-04 3.100e-04 -4.874e-04
315 1 2.000e-01 2.000e-01 2.000e-01 -8.526e-04 -7.825e-04 6.819e-04
316 1 2.000e-01 -2.000e-01 2.000e-01 8.641e-04 2.517e-05 4.189e-04
317 1 2.000e-01 -2.000e-01 -2.000e-01 -1.672e-03 1.054e-03 1.502e-03
318 1 -2.000e-01 -2.000e-01 2.000e-01 9.712e-04 7.000e-04 1.283e-03
319 1 2.000e-01 2.000e-01 0.000e+00 1.555e-03 -1.684e-03 -5.447e-04
320 1 0.000e+00 -4.000e-01 0.000e+00 6.145e-04 -1.750e-03 1.092e-03
ITEM: TIMESTEP
0
ITEM: NUMBER OF ATOMS
32
ITEM: BOX BOUNDS xy xz yz pp pp pp
                     -5.00000000000000e-01 5.00000000000000e-01 0.00000000000000e+00
-5.00000000000000e-01	5.00000000000000e-01	0.00000000000000e+00
-5.00000000000000e-01	5.00000000000000e-01	0.00000000000000e+00
ITEM: ATOMS id type x y z DisplacementX DisplacementY DisplacementZ
321 1 0.000e+00 -2.000e-01 -2.000e-01 1.046e-04 -1.388e-03 2.400e-03
322 1 0.000e+00 -2.000e-01 0.000e+00 1.099e-03 8.205e-04 1.344e-03
323 1 0.000e+00 4.000e-01 0.000e+00 8.587e-04 4.117e-04 -3.001e-06
324 1 -2.000e-01 -2.000e-01 -2.000e-01 -1.274e-04 -2.026e-03 -1.965e-04
325 1 2.000e-01 0.000e+00 2.000e-01 -6.985e-04 -1.002e-03 -2.188e-04
326 1 -4.000e-01 0.000e+00 0.000e+00 1.164e-03 -7.711e-04 -1.215e-03
327 1 -2.000e-01 -2.000e-01 2.000e-01 -7.067e-05 -4.826e-04 -5.384e-04
328 1 0.000e+00 2.000e-01 -2.000e-01 5.441e-05 5.254e-04 1.052e-03
329 1 0.000e+00 -2.000e-01 2.000e-01 -3.751e-04 -7.639e-04 -1.396e-03
330 1 2.000e-01 -2.000e-01 -2.000e-01 -8.069e-04 -1.122e-03 -5.507e-04
331 1 -2.000e-01 2.000e-01 0.000e+00 1.164e-03 1.184e-03 1.227e-03
332 1 0.000e+00 2.000e-01 2.000e-01 7.413e-04 8.848e-04 1.675e-03
333 1 0.000e+00 -4.000e-01 0.000e+00 5.698e-04 2.147e-03 1.329e-05
334 1 -2.000e-01 2.000e-01 -2.000e-01 -4.321e-04 2.753e-04 -3.949e-04
335 1 0.000e+00 0.000e+00 4.000e-01 -6.085e-04 1.130e-03 8.016e-04
336 1 -2.000e-01 0.000e+00 -2.000e-01 -3.960e-05 -6.959e-04 -8.287e-04
337 1 2.000e-01 0.000e+00 -2.000e-01 -5.729e-04 -1.153e-03 -1.088e-03
338 1 0.000e+00 0.000e+00 -4.000e-01 -1.613e-03 -5.791e-04 1.972e-03
339 1 0.000e+00 0.000e+00 0.000e+00 5.633e-05 1.540e-03 2.014e-01
340 1 2.000e-01 -2.000e-01 0.000e+00 -7.369e-04 1.170e-03 1.262e-03
341 1 2.000e-01 2.000e-01 2.000e-01 1.987e-04 -8.634e-04 -1.560e-03
342 1 0.000e+00 2.000e-01 0.000e+00 -5.432e-04 -8.780e-04 3.055e-04
343 1 0.000e+00 0.000e+00 -2.000e-01 -1.043e-03 -8.441e-04 4.570e-04
344 1 -2.000e-01 -2.000e-01 0.000e+00 -1.200e-04 -1.296e-03 2.217e-03
345 1 -2.000e-01 2.000e-01 2.000e-01 3.935e-04 -1.248e-04 -1.209e-03
346 1 -2.000e-01 0.000e+00 2.000e-01 1.618e-03 7.902e-04 1.637e-03
347 1 4.000e-01 0.000e+00 0.000e+00 2.315e-04 -1.845e-03 2.724e-04
348 1 2.000e-01 0.000e+00 0.000e+00 -4.967e-04 9.823e-04 -1.143e-03
349 1 2.000e-01 -2.000e-01 2.000e-01 6.194e-04 -1.880e-03 1.188e-04
350 1 2.000e-01 2.000e-01 -2.000e-01 8.077e-04 -1.280e-03 -1.066e-03
351 1 2.000e-01 2.000e-01 0.000e+00 5.363e-04 -1.647e-05 -4.195e-04
352 1 -2.000e-01 0.000e+00 0.000e+00 1.609e-05 -1.120e-03 2.012e-04
ITEM: TIMESTEP
0
ITEM: NUMBER OF ATOMS
32
ITEM: BOX BOUNDS xy xz yz pp pp pp
                     -5.00000000000000e-01 5.00000000000000e-01 0.00000000000000e+00
-5.00000000000000e-01	5.00000000000000e-01	0.00000000000000e+00
-5.00000000000000e-01	5.00000000000000e-01	0.00000000000000e+00
ITEM: ATOMS id type x y z DisplacementX DisplacementY DisplacementZ
353 1 2.000e-01 -2.000e-01 -2.000e-01 -3.810e-04 6.429e-04 9.820e-04
354 1 -2.000e-01 2.000e-01 -2.000e-01 -3.095e-04 -3.659e-04 1.657e-03
355 1 4.000e-01 0.000e+00 0.000e+00 -1.149e-03 2.322e-03 -1.613e-05
356 1 -2.000e-01 0.000e+00 -2.000e-01 2.141e-04 3.090e-04 -3.271e-04
357 1 0.000e+00 -2.000e-01 0.000e+00 -7.320e-04 -5.422e-04 1.763e-03
358 1 -2.000e-01 -2.000e-01 -2.000e-01 3.191e-04 -3.209e-04 6.097e-04
359 1 0.000e+00 0.000e+00 4.000e-01 -2.655e-04 2.034e-03 6.428e-04
360 1 -2.000e-01 -2.000e-01 0.000e+00 1.179e-03 6.239e-04 6.644e-04
361 1 0.000e+00 -4.000e-01 0.000e+00 -5.184e-04 -3.721e-04 5.333e-04
362 1 2.000e-01 -2.000e-01 0.000e+00 -8.911e-04 -3.655e-04 5.433e-04
363 1 0.000e+00 2.000e-01 2.000e-01 8.002e-05 -2.010e-03 -1.916e-04
364 1 -2.000e-01 0.000e+00 0.000e+00 -5.895e-04 -2.494e-03 1.322e-04
365 1 0.000e+00 2.000e-01 -2.000e-01 7.657e-05 -3.318e-04 1.619e-04
366 1 0.000e+00 4.000e-01 0.000e+00 1.092e-04 7.329e-04 7.882e-05
367 1 2.000e-01 2.000e-01 0.000e+00 -7.045e-04 -4.385e-05 -9.825e-04
368 1 2.000e-01 -2.000e-01 2.000e-01 -1.148e-03 -1.303e-03 -8.397e-04
369 1 -2.000e-01 -2.000e-01 2.000e-01 1.287e-03 -9.208e-04 5.383e-06
370 1 -2.000e-01 0.000e+00 2.000e-01 -2.262e-05 -9.763e-04 -2.354e-03
371 1 2.000e-01 0.000e+00 2.000e-01 -2.122e-03 2.091e-03 -1.303e-03
372 1 0.000e+00 0.000e+00 -4.000e-01 1.708e-04 8.104e-04 1.275e-03
373 1 -2.000e-01 2.000e-01 2.000e-01 1.301e-03 2.648e-04 -2.767e-03
374 1 2.000e-01 2.000e-01 2.000e-01 -1.382e-03 -5.018e-05 -4.300e-04
375 1 0.000e+00 -2.000e-01 2.000e-01 -9.960e-05 1.019e-03 -7.872e-04
376 1 2.000e-01 0.000e+00 -2.000e-01 -3.464e-04 -1.190e-04 -1.422e-03
377 1 2.000e-01 2.000e-01 -2.000e-01 5.014e-04 3.894e-04 4.594e-04