ITEM: TIMESTEP
0
ITEM: NUMBER OF ATOMS
12
ITEM: BOX BOUNDS xy xz yz pp pp pp
                     -5.00000000000000e-01 5.00000000000000e-01 0.00000000000000e+00
-5.00000000000000e-01	5.00000000000000e-01	0.00000000000000e+00
-5.00000000000000e-01	5.00000000000000e-01	0.00000000000000e+00
ITEM: ATOMS id type x y z DisplacementX DisplacementY DisplacementZ
1 1 -1.000e-01 0.000e+00 0.000e+00 4.458e-05 2.686e-04 -1.172e-03
2 1 2.000e-01 0.000e+00 0.000e+00 8.113e-06 -4.826e-04 1.977e-03
3 1 0.000e+00 1.000e-01 0.000e+00 -1.478e-03 7.667e-05 -7.723e-04
4 1 -1.000e-01 1.000e-01 0.000e+00 -5.348e-04 1.779e-04 7.342e-04
5 1 1.000e-01 0.000e+00 0.000e+00 9.854e-04 7.061e-04 4.588e-04
6 1 0.000e+00 0.000e+00 0.000e+00 -4.293e-04 -1.003e-01 -1.564e-04
7 1 1.000e-01 -1.000e-01 0.000e+00 -1.214e-03 1.063e-03 -1.223e-03
8 1 -2.000e-01 0.000e+00 0.000e+00 9.353e-04 7.065e-04 -2.770e-03
9 1 -1.000e-01 -1.000e-01 0.000e+00 -3.730e-04 -3.215e-04 -1.053e-03
10 1 1.000e-01 1.000e-01 0.000e+00 4.986e-04 4.714e-04 -5.425e-04
11 1 0.000e+00 -2.000e-01 0.000e+00 -7.495e-04 5.564e-04 -1.545e-04
12 1 0.000e+00 2.000e-01 0.000e+00 8.783e-04 -1.558e-03 -1.813e-04
ITEM: TIMESTEP
0
ITEM: NUMBER OF ATOMS
12
ITEM: BOX BOUNDS xy xz yz pp pp pp
                     -5.00000000000000e-01 5.00000000000000e-01 0.00000000000000e+00
-5.00000000000000e-01	5.00000000000000e-01	0.00000000000000e+00
-5.00000000000000e-01	5.00000000000000e-01	0.00000000000000e+00
ITEM: ATOMS id type x y z DisplacementX DisplacementY DisplacementZ
13 1 2.000e-01 0.000e+00 0.000e+00 4.407e-04 1.358e-03 -1.342e-04
14 1 0.000e+00 -1.000e-01 0.000e+00 2.757e-04 -1.827e-04 -1.527e-04
15 1 1.000e-01 1.000e-01 0.000e+00 1.123e-03 3.865e-04 -1.997e-04
16 1 0.000e+00 1.000e-01 0.000e+00 -1.798e-04 4.608e-04 8.544e-04
17 1 -1.000e-01 1.000e-01 0.000e+00 -2.867e-05 -1.169e-03 1.532e-03
18 1 1.000e-01 0.000e+00 0.000e+00 1.234e-03 2.443e-03 7.700e-04
19 1 0.000e+00 0.000e+00 0.000e+00 -1.005e-01 8.296e-04 -1.372e-03
20 1 -2.000e-01 0.000e+00 0.000e+00 -1.255e-03 -5.667e-04 -6.694e-04
21 1 1.000e-01 -1.000e-01 0.000e+00 5.393e-04 -1.484e-03 -7.325e-04
22 1 0.000e+00 2.000e-01 0.000e+00 -1.903e-04 -6.040e-04 1.732e-03
23 1 0.000e+00 -2.000e-01 0.000e+00 -6.576e-04 1.181e-03 -1.137e-03
24 1 -1.000e-01 -1.000e-01 0.000e+00 6.918e-04 7.580e-04 5.575e-04
ITEM: TIMESTEP
0
ITEM: NUMBER OF ATOMS
12
ITEM: BOX BOUNDS xy xz yz pp pp pp
                     -5.00000000000000e-01 5.00000000000000e-01 0.00000000000000e+00
-5.00000000000000e-01	5.00000000000000e-01	0.00000000000000e+00
-5.00000000000000e-01	5.00000000000000e-01	0.00000000000000e+00
ITEM: ATOMS id type x y z DisplacementX DisplacementY DisplacementZ
25 1 -2.000e-01 0.000e+00 0.000e+00 6.922e-04 8.276e-04 -4.407e-04
26 1 0.000e+00 1.000e-01 0.000e+00 -4.572e-04 -2.693e-04 -2.673e-04
27 1 0.000e+00 2.000e-01 0.000e+00 -1.288e-03 -1.366e-03 8.294e-04
28 1 1.000e-01 1.000e-01 0.000e+00 1.351e-04 -1.398e-03 -1.483e-04
29 1 -1.000e-01 -1.000e-01 0.000e+00 6.395e-04 1.208e-03 -2.334e-03
30 1 0.000e+00 -2.000e-01 0.000e+00 -6.701e-04 2.269e-03 -2.157e-03
31 1 2.000e-01 0.000e+00 0.000e+00 -3.239e-04 4.046e-04 1.327e-03
32 1 -1.000e-01 1.000e-01 0.000e+00 -3.867e-04 -1.525e-04 -6.068e-04
33 1 0.000e+00 0.000e+00 0.000e+00 9.952e-02 5.323e-04 -1.504e-04
34 1 -1.000e-01 0.000e+00 0.000e+00 -3.591e-04 -3.520e-04 -8.858e-05
35 1 1.000e-01 -1.000e-01 0.000e+00 4.288e-04 1.779e-03 -1.809e-03
36 1 0.000e+00 -1.000e-01 0.000e+00 -2.591e-03 -2.356e-04 1.624e-03
ITEM: TIMESTEP
0
ITEM: NUMBER OF ATOMS
12
ITEM: BOX BOUNDS xy xz yz pp pp pp
                     -5.00000000000000e-01 5.00000000000000e-01 0.00000000000000e+00
-5.00000000000000e-01	5.00000000000000e-01	0.00000000000000e+00
-5.00000000000000e-01	5.00000000000000e-01	0.00000000000000e+00
ITEM: ATOMS id type x y z DisplacementX DisplacementY DisplacementZ
37 1 1.000e-01 0.000e+00 0.000e+00 8.949e-04 1.213e-03 -6.609e-04
38 1 0.000e+00 -1.000e-01 0.000e+00 2.577e-05 -1.671e-03 1.990e-03
39 1 0.000e+00 2.000e-01 0.000e+00 2.292e-04 -4.323e-04 9.629e-04
40 1 -2.000e-01 0.000e+00 0.000e+00 -4.314e-05 -3.188e-04 -5.291e-04
41 1 0.000e+00 -2.000e-01 0.000e+00 -4.293e-04 -1.399e-03 -3.349e-04
42 1 -1.000e-01 -1.000e-01 0.000e+00 -2.287e-04 -8.067e-04 -4.071e-05
43 1 1.000e-01 1.000e-01 0.000e+00 -4.690e-04 1.670e-03 -8.275e-04
44 1 -1.000e-01 1.000e-01 0.000e+00 2.428e-04 -9.846e-04 -1.426e-03
45 1 2.000e-01 0.000e+00 0.000e+00 3.232e-04 9.182e-04 6.358e-04
46 1 1.000e-01 -1.000e-01 0.000e+00 -5.933e-04 8.923e-05 -5.546e-04
47 1 0.000e+00 0.000e+00 0.000e+00 2.052e-04 9.921e-02 -6.410e-04
48 1 -1.000e-01 0.000e+00 0.000e+00 -1.303e-04 -4.666e-04 1.643e-04
ITEM: TIMESTEP
0
ITEM: NUMBER OF ATOMS
12
ITEM: BOX BOUNDS xy xz yz pp pp pp
                     -5.00000000000000e-01 5.00000000000000e-01 0.00000000000000e+00
-5.00000000000000e-01	5.00000000000000e-01	0.00000000000000e+00
-5.00000000000000e-01	5.00000000000000e-01	0.00000000000000e+00
ITEM: ATOMS id type x y z DisplacementX DisplacementY DisplacementZ
49 1 -1.000e-01 0.000e+00 0.000e+00 -8.683e-04 1.537e-04 -3.390e-04
50 1 0.000e+00 0.000e+00 0.000e+00 9.901e-02 -5.006e-04 4.190e-04
51 1 2.000e-01 0.000e+00 0.000e+00 -1.129e-03 -8.657e-04 -5.901e-04
52 1 0.000e+00 -1.000e-01 0.000e+00 1.927e-04 -7.247e-04 4.170e-04
53 1 0.000e+00 -2.000e-01 0.000e+00 -3.435e-04 5.399e-04 -1.796e-04
54 1 1.000e-01 1.000e-01 0.000e+00 -1.929e-03 -1.358e-03 1.666e-03
55 1 0.000e+00 1.000e-01 0.000e+00 4.431e-05 1.431e-03 -4.092e-04
56 1 -2.000e-01 0.000e+00 0.000e+00 2.872e-04 2.269e-04 6.368e-04
57 1 -1.000e-01 1.000e-01 0.000e+00 1.493e-03 2.435e-03 1.056e-03
58 1 0.000e+00 2.000e-01 0.000e+00 2.496e-04 1.123e-03 -8.641e-04
59 1 -1.000e-01 -1.000e-01 0.000e+00 1.368e-03 -1.448e-03 3.193e-04
60 1 1.000e-01 -1.000e-01 0.000e+00 -1.145e-03 -4.936e-04 1.387e-03
ITEM: TIMESTEP
0
ITEM: NUMBER OF ATOMS
12
ITEM: BOX BOUNDS xy xz yz pp pp pp
                     -5.00000000000000e-01 5.00000000000000e-01 0.00000000000000e+00
-5.00000000000000e-01	5.00000000000000e-01	0.00000000000000e+00
-5.00000000000000e-01	5.00000000000000e-01	0.00000000000000e+00
ITEM: ATOMS id type x y z DisplacementX DisplacementY DisplacementZ
61 1 -2.000e-01 0.000e+00 0.000e+00 -1.795e-03 4.806e-05 -8.802e-04
62 1 1.000e-01 0.000e+00 0.000e+00 -2.240e-04 7.519e-04 1.101e-03
63 1 0.000e+00 0.000e+00 0.000e+00 -1.010e-01 -6.636e-05 1.280e-04
64 1 0.000e+00 1.000e-01 0.000e+00 4.297e-04 8.853e-04 -1.018e-03
65 1 0.000e+00 -1.000e-01 0.000e+00 -1.912e-03 -7.913e-04 -1.820e-04
66 1 2.000e-01 0.000e+00 0.000e+00 2.184e-05 3.018e-04 7.627e-04
67 1 0.000e+00 -2.000e-01 0.000e+00 -4.065e-06 -1.093e-04 -6.864e-04
68 1 -1.000e-01 1.000e-01 0.000e+00 1.163e-04 -4.790e-04 1.130e-03
69 1 1.000e-01 -1.000e-01 0.000e+00 -9.157e-04 1.223e-04 -2.237e-04
70 1 1.000e-01 1.000e-01 0.000e+00 -4.468e-04 -9.550e-04 1.099e-03
71 1 -1.000e-01 -1.000e-01 0.000e+00 3.422e-04 -1.475e-05 -2.360e-04
72 1 0.000e+00 2.000e-01 0.000e+00 -4.816e-04 -1.788e-03 4.059e-04
ITEM: TIMESTEP
0
ITEM: NUMBER OF ATOMS
12
ITEM: BOX BOUNDS xy xz yz pp pp pp
                     -5.00000000000000e-01 5.00000000000000e-01 0.00000000000000e+00
-5.00000000000000e-01	5.00000000000000e-01	0.00000000000000e+00
-5.00000000000000e-01	5.00000000000000e-01	0.00000000000000e+00
ITEM: ATOMS id type x y z DisplacementX DisplacementY DisplacementZ
73 1 -1.000e-01 -1.000e-01 0.000e+00 -2.811e-04 -1.301e-04 -5.694e-05
74 1 1.000e-01 -1.000e-01 0.000e+00 -1.716e-04 1.051e-03 1.943e-03
75 1 1.000e-01 0.000e+00 0.000e+00 -2.807e-04 2.318e-04 -9.042e-05
76 1 0.000e+00 2.000e-01 0.000e+00 -4.408e-04 -8.177e-04 1.022e-03
77 1 0.000e+00 0.000e+00 0.000e+00 1.424e-03 -1.002e-01 3.650e-04
78 1 0.000e+00 1.000e-01 0.000e+00 5.237e-04 -1.379e-05 -4.288e-04
79 1 -1.000e-01 0.000e+00 0.000e+00 4.939e-04 -1.742e-03 8.630e-04
80 1 2.000e-01 0.000e+00 0.000e+00 5.801e-04 -7.699e-04 -1.150e-03
81 1 -2.000e-01 0.000e+00 0.000e+00 -1.511e-03 -2.465e-04 -6.616e-04
82 1 -1.000e-01 1.000e-01 0.000e+00 9.430e-04 1.303e-03 2.162e-03
83 1 0.000e+00 -2.000e-01 0.000e+00 -2.320e-03 -4.755e-04 1.143e-05
84 1 1.000e-01 1.000e-01 0.000e+00 9.742e-04 -2.199e-04 -1.129e-03
ITEM: TIMESTEP
0
ITEM: NUMBER OF ATOMS
12
ITEM: BOX BOUNDS xy xz yz pp pp pp
                     -5.00000000000000e-01 5.00000000000000e-01 0.00000000000000e+00
-5.00000000000000e-01	5.00000000000000e-01	0.00000000000000e+00
-5.00000000000000e-01	5.00000000000000e-01	0.00000000000000e+00
ITEM: ATOMS id type x y z DisplacementX DisplacementY DisplacementZ
85 1 0.000e+00 -2.000e-01 0.000e+00 -7.872e-04 6.040e-04 3.374e-04
86 1 -1.000e-01 1.000e-01 0.000e+00 -3.172e-04 7.391e-04 6.342e-04
87 1 1.000e-01 1.000e-01 0.000e+00 -1.454e-04 2.258e-03 3.767e-04
88 1 -1.000e-01 0.000e+00 0.000e+00 6.262e-04 -1.343e-04 -1.048e-03
89 1 -1.000e-01 -1.000e-01 0.000e+00 9.741e-04 -1.483e-03 -1.007e-03
90 1 1.000e-01 0.000e+00 0.000e+00 -7.430e-04 -5.004e-04 -1.112e-03
91 1 1.000e-01 -1.000e-01 0.000e+00 -1.362e-04 8.216e-05 1.100e-03
92 1 0.000e+00 2.000e-01 0.000e+00 5.056e-04 1.514e-03 -1.413e-03
93 1 0.000e+00 -1.000e-01 0.000e+00 -8.111e-04 1.643e-03 1.133e-03
94 1 2.000e-01 0.000e+00 0.000e+00 -4.406e-05 -1.702e-03 -9.792e-04
95 1 -2.000e-01 0.000e+00 0.000e+00 -4.106e-05 -8.015e-04 -3.813e-04
96 1 0.000e+00 0.000e+00 0.000e+00 6.887e-04 9.929e-02 -2.334e-04
ITEM: TIMESTEP
0
ITEM: NUMBER OF ATOMS
12
ITEM: BOX BOUNDS xy xz yz pp pp pp
                     -5.00000000000000e-01 5.00000000000000e-01 0.00000000000000e+00
-5.00000000000000e-01	5.00000000000000e-01	0.00000000000000e+00
-5.00000000000000e-01	5.00000000000000e-01	0.00000000000000e+00
ITEM: ATOMS id type x y z DisplacementX DisplacementY DisplacementZ
97 1 2.000e-01 0.000e+00 0.000e+00 1.333e-03 -1.817e-03 1.006e-03
98 1 0.000e+00 0.000e+00 0.000e+00 -9.722e-02 9.929e-05 1.147e-03
99 1 1.000e-01 -1.000e-01 0.000e+00 -8.399e-04 -2.026e-03 1.572e-04
100 1 0.000e+00 2.000e-01 0.000e+00 -5.615e-04 -1.347e-03 7.854e-06
101 1 0.000e+00 1.000e-01 0.000e+00 -7.751e-04 -4.704e-04 -7.888e-04
102 1 -1.000e-01 -1.000e-01 0.000e+00 -2.446e-04 -1.721e-03 8.761e-04
103 1 -2.000e-01 0.000e+00 0.000e+00 -9.869e-04 3.322e-04 1.167e-04
104 1 1.000e-01 1.000e-01 0.000e+00 5.356e-04 -1.024e-03 1.191e-03
105 1 0.000e+00 -2.000e-01 0.000e+00 -2.782e-04 2.769e-03 -1.007e-03
106 1 1.000e-01 0.000e+00 0.000e+00 -1.203e-03 1.061e-04 5.695e-04
107 1 0.000e+00 -1.000e-01 0.000e+00 -1.886e-03 1.168e-03 -6.122e-05
108 1 -1.000e-01 1.000e-01 0.000e+00 -2.252e-03 -3.524e-04 2.156e-04
ITEM: TIMESTEP
0
ITEM: NUMBER OF ATOMS
12
ITEM: BOX BOUNDS xy xz yz pp pp pp
                     -5.00000000000000e-01 5.00000000000000e-01 0.00000000000000e+00
-5.00000000000000e-01	5.00000000000000e-01	0.00000000000000e+00
-5.00000000000000e-01	5.00000000000000e-01	0.00000000000000e+00
ITEM: ATOMS id type x y z DisplacementX DisplacementY DisplacementZ
109 1 -1.000e-01 -1.000e-01 0.000e+00 5.382e-04 -2.344e-03 1.459e-03
110 1 1.000e-01 1.000e-01 0.000e+00 9.254e-04 -7.498e-04 5.884e-04
111 1 -1.000e-01 0.000e+00 0.000e+00 4.036e-04 4.061e-04 -4.380e-06
112 1 -2.000e-01 0.000e+00 0.000e+00 -9.554e-04 1.137e-03 -1.856e-03
113 1 2.000e-01 0.000e+00 0.000e+00 1.199e-03 -2.585e-05 1.368e-03
114 1 0.000e+00 0.000e+00 0.000e+00 1.212e-03 1.005e-01 -1.686e-04
115 1 0.000e+00 -2.000e-01 0.000e+00 6.424e-04 1.139e-03 9.201e-05
116 1 -1.000e-01 1.000e-01 0.000e+00 -1.474e-04 -2.016e-04 1.394e-03
117 1 1.000e-01 -1.000e-01 0.000e+00 1.230e-03 -2.335e-04 -9.485e-04
118 1 1.000e-01 0.000e+00 0.000e+00 1.103e-03 -1.795e-03 -4.648e-04
119 1 0.000e+00 -1.000e-01 0.000e+00 -7.450e-05 8.060e-04 -3.410e-05
120 1 0.000e+00 2.000e-01 0.000e+00 -5.039e-04 4.599e-05 1.162e-03
ITEM: TIMESTEP
0
ITEM: NUMBER OF ATOMS
12
ITEM: BOX BOUNDS xy xz yz pp pp pp
                     -5.00000000000000e-01 5.00000000000000e-01 0.00000000000000e+00
-5.00000000000000e-01	5.00000000000000e-01	0.00000000000000e+00
-5.00000000000000e-01	5.00000000000000e-01	0.00000000000000e+00
ITEM: ATOMS id type x y z DisplacementX DisplacementY DisplacementZ
121 1 0.000e+00 -2.000e-01 0.000e+00 -5.028e-05 -1.739e-04 -3.606e-04
122 1 -1.000e-01 1.000e-01 0.000e+00 9.045e-04 -1.785e-03 3.515e-04
123 1 2.000e-01 0.000e+00 0.000e+00 1.241e-03 -5.290e-04 3.669e-04
124 1 0.000e+00 -1.000e-01 0.000e+00 -9.147e-04 -1.026e-03 -4.242e-05
125 1 -1.000e-01 -1.000e-01 0.000e+00 1.367e-04 2.219e-03 1.223e-04
126 1 -2.000e-01 0.000e+00 0.000e+00 -1.800e-04 9.529e-04 1.143e-03
127 1 0.000e+00 2.000e-01 0.000e+00 -5.370e-04 5.730e-04 6.324e-04
128 1 1.000e-01 -1.000e-01 0.000e+00 -1.179e-03 -2.098e-03 4.567e-04
129 1 0.000e+00 0.000e+00 0.000e+00 1.022e-01 -9.177e-04 -2.994e-04
130 1 -1.000e-01 0.000e+00 0.000e+00 6.921e-04 2.861e-05 -1.805e-03
131 1 1.000e-01 1.000e-01 0.000e+00 3.369e-04 1.101e-03 6.781e-04
132 1 0.000e+00 1.000e-01 0.000e+00 1.766e-03 6.775e-04 3.307e-04
ITEM: TIMESTEP
0
ITEM: NUMBER OF ATOMS
12
ITEM: BOX BOUNDS xy xz yz pp pp pp
                     -5.00000000000000e-01 5.00000000000000e-01 0.00000000000000e+00
-5.00000000000000e-01	5.00000000000000e-01	0.00000000000000e+00
-5.00000000000000e-01	5.00000000000000e-01	0.00000000000000e+00
ITEM: ATOMS id type x y z DisplacementX DisplacementY DisplacementZ
133 1 -2.000e-01 0.000e+00 0.000e+00 -1.080e-03 -2.571e-04 1.315e-03
134 1 1.000e-01 -1.000e-01 0.000e+00 -8.691e-04 -1.218e-03 -1.739e-03
135 1 0.000e+00 1.000e-01 0.000e+00 1.971e-03 8.129e-04 1.165e-03
136 1 0.000e+00 2.000e-01 0.000e+00 4.331e-04 1.123e-04 -7.731e-05
137 1 1.000e-01 1.000e-01 0.000e+00 3.556e-05 -1.414e-03 4.495e-04
138 1 1.000e-01 0.000e+00 0.000e+00 3.128e-04 8.449e-04 9.593e-04
139 1 -1.000e-01 1.000e-01 0.000e+00 -4.254e-04 9.041e-04 -1.151e-03
140 1 0.000e+00 -2.000e-01 0.000e+00 1.196e-03 6.700e-04 -5.843e-05
141 1 -1.000e-01 -1.000e-01 0.000e+00 1.185e-03 -1.179e-03 1.591e-03
142 1 2.000e-01 0.000e+00 0.000e+00 5.259e-04 6.763e-04 -1.384e-04
143 1 0.000e+00 0.000e+00 0.000e+00 4.666e-06 -1.005e-01 -5.517e-04
144 1 -1.000e-01 0.000e+00 0.000e+00 4.906e-04 6.946e-05 6.305e-04
ITEM: TIMESTEP
0
ITEM: NUMBER OF ATOMS
12
ITEM: BOX BOUNDS xy xz yz pp pp pp
                     -5.00000000000000e-01 5.00000000000000e-01 0.00000000000000e+00
-5.00000000000000e-01	5.00000000000000e-01	0.00000000000000e+00
-5.00000000000000e-01	5.00000000000000e-01	0.00000000000000e+00
ITEM: ATOMS id type x y z DisplacementX DisplacementY DisplacementZ
145 1 1.000e-01 1.000e-01 0.000e+00 -1.451e-04 4.460e-04 -1.413e-03
146 1 0.000e+00 0.000e+00 0.000e+00 -9.845e-02 -1.412e-03 8.334e-04
147 1 2.000e-01 0.000e+00 0.000e+00 6.147e-04 -1.930e-03 5.719e-04
148 1 -1.000e-01 -1.000e-01 0.000e+00 1.660e-03 -6.828e-04 -1.095e-03
149 1 1.000e-01 0.000e+00 0.000e+00 1.019e-04 -2.760e-04 6.304e-04
150 1 0.000e+00 2.000e-01 0.000e+00 5.606e-04 -1.641e-03 -9.285e-04
151 1 0.000e+00 1.000e-01 0.000e+00 2.810e-04 -6.724e-05 5.105e-04
152 1 0.000e+00 -2.000e-01 0.000e+00 -8.943e-04 1.103e-03 5.383e-05
153 1 -2.000e-01 0.000e+00 0.000e+00 2.758e-04 -1.727e-03 -1.025e-03
154 1 -1.000e-01 1.000e-01 0.000e+00 -9.071e-04 -3.218e-04 -1.169e-03
155 1 0.000e+00 -1.000e-01 0.000e+00 -9.497e-04 -1.114e-03 -4.506e-04
156 1 1.000e-01 -1.000e-01 0.000e+00 1.117e-04 7.043e-04 2.597e-04
ITEM: TIMESTEP
0
ITEM: NUMBER OF ATOMS
12
ITEM: BOX BOUNDS xy xz yz pp pp pp
                     -5.00000000000000e-01 5.00000000000000e-01 0.00000000000000e+00
-5.00000000000000e-01	5.00000000000000e-01	0.00000000000000e+00
-5.00000000000000e-01	5.00000000000000e-01	0.00000000000000e+00
ITEM: ATOMS id type x y z DisplacementX DisplacementY DisplacementZ
157 1 1.000e-01 1.000e-01 0.000e+00 -7.767e-04 -1.778e-03 1.548e-04
158 1 0.000e+00 0.000e+00 0.000e+00 8.379e-04 9.949e-02 -4.649e-04
159 1 0.000e+00 -2.000e-01 0.000e+00 5.289e-04 9.141e-05 -9.977e-04
160 1 0.000e+00 -1.000e-01 0.000e+00 -8.875e-04 4.786e-04 9.810e-04
161 1 1.000e-01 -1.000e-01 0.000e+00 7.968e-04 5.076e-04 3.678e-04
162 1 -1.000e-01 -1.000e-01 0.000e+00 1.361e-04 1.059e-03 6.199e-05
163 1 -1.000e-01 1.000e-01 0.000e+00 -4.631e-04 6.964e-04 -9.437e-05
164 1 0.000e+00 2.000e-01 0.000e+00 5.369e-04 1.301e-03 2.529e-03
165 1 1.000e-01 0.000e+00 0.000e+00 -1.055e-04 -1.069e-03 3.110e-04
166 1 2.000e-01 0.000e+00 0.000e+00 -1.673e-03 1.744e-03 -1.096e-03
167 1 -2.000e-01 0.000e+00 0.000e+00 -3.402e-04 -1.163e-03 -1.383e-03
168 1 -1.000e-01 0.000e+00 0.000e+00 -5.295e-04 1.605e-03 -1.317e-03
ITEM: TIMESTEP
0
ITEM: NUMBER OF ATOMS
12
ITEM: BOX BOUNDS xy xz yz pp pp pp
                     -5.00000000000000e-01 5.00000000000000e-01 0.00000000000000e+00
-5.00000000000000e-01	5.00000000000000e-01	0.00000000000000e+00
-5.00000000000000e-01	5.00000000000000e-01	0.00000000000000e+00
ITEM: ATOMS id type x y z DisplacementX DisplacementY DisplacementZ
169 1 2.000e-01 0.000e+00 0.000e+00 -1.652e-03 4.758e-04 2.628e-04
170 1 -1.000e-01 1.000e-01 0.000e+00 1.518e-03 -1.025e-03 2.061e-03
171 1 1.000e-01 -1.000e-01 0.000e+00 1.520e-03 8.994e-04 -1.994e-04
172 1 0.000e+00 1.000e-01 0.000e+00 4.757e-04 -2.534e-05 -5.533e-04
173 1 -1.000e-01 0.000e+00 0.000e+00 -1.249e-03 4.639e-04 1.669e-03
174 1 0.000e+00 2.000e-01 0.000e+00 9.203e-04 -1.844e-04 -1.054e-03
175 1 0.000e+00 -2.000e-01 0.000e+00 4.230e-04 1.380e-04 1.211e-03
176 1 0.000e+00 0.000e+00 0.000e+00 9.972e-02 2.163e-03 8.175e-04
177 1 1.000e-01 1.000e-01 0.000e+00 -7.972e-05 -2.061e-03 -6.871e-04
178 1 -2.000e-01 0.000e+00 0.000e+00 -6.183e-04 6.621e-05 -1.601e-03
179 1 -1.000e-01 -1.000e-01 0.000e+00 -3.074e-04 -1.500e-03 -8.304e-04
180 1 0.000e+00 -1.000e-01 0.000e+00 -7.639e-04 -1.444e-03 3.586e-04
ITEM: TIMESTEP
0
ITEM: NUMBER OF ATOMS
12
ITEM: BOX BOUNDS xy xz yz pp pp pp
                     -5.00000000000000e-01 5.00000000000000e-01 0.00000000000000e+00
-5.00000000000000e-01	5.00000000000000e-01	0.00000000000000e+00
-5.00000000000000e-01	5.00000000000000e-01	0.00000000000000e+00
ITEM: ATOMS id type x y z DisplacementX DisplacementY DisplacementZ
181 1 2.000e-01 0.000e+00 0.000e+00 -4.502e-04 -1.398e-04 8.305e-04
182 1 1.000e-01 -1.000e-01 0.000e+00 1.132e-03 7.436e-04 -6.491e-04
183 1 -2.000e-01 0.000e+00 0.000e+00 -1.089e-03 -1.963e-03 8.546e-04
184 1 0.000e+00 -2.000e-01 0.000e+00 -1.707e-04 -9.851e-04 1.326e-03
185 1 1.000e-01 1.000e-01 0.000e+00 4.796e-04 1.282e-03 1.185e-04
186 1 1.000e-01 0.000e+00 0.000e+00 -1.809e-04 8.324e-04 5.009e-04
187 1 -1.000e-01 0.000e+00 0.000e+00 1.973e-04 2.752e-04 -4.096e-04
188 1 0.000e+00 2.000e-01 0.000e+00 1.267e-03 1.174e-04 1.106e-03
189 1 -1.000e-01 1.000e-01 0.000e+00 -9.417e-05 1.160e-03 6.493e-05
190 1 -1.000e-01 -1.000e-01 0.000e+00 2.887e-05 -4.542e-04 -5.877e-04
191 1 0.000e+00 0.000e+00 0.000e+00 4.514e-04 -1.003e-01 -6.959e-04
192 1 0.000e+00 1.000e-01 0.000e+00 -5.793e-04 -1.059e-03 7.238e-04
ITEM: TIMESTEP
0
ITEM: NUMBER OF ATOMS
12
ITEM: BOX BOUNDS xy xz yz pp pp pp
                     -5.00000000000000e-01 5.00000000000000e-01 0.00000000000000e+00
-5.00000000000000e-01	5.00000000000000e-01	0.00000000000000e+00
-5.00000000000000e-01	5.00000000000000e-01	0.00000000000000e+00
ITEM: ATOMS id type x y z DisplacementX DisplacementY DisplacementZ
193 1 -2.000e-01 0.000e+00 0.000e+00 -5.687e-04 -1.019e-03 -2.692e-06
194 1 0.000e+00 1.000e-01 0.000e+00 1.100e-03 -1.413e-04 5.997e-04
195 1 -1.000e-01 0.000e+00 0.000e+00 3.058e-04 1.323e-03 1.571e-03
196 1 0.000e+00 0.000e+00 0.000e+00 1.000e-01 -2.665e-04 -1.905e-03
197 1 1.000e-01 -1.000e-01 0.000e+00 1.545e-05 -4.175e-04 -5.875e-04
198 1 0.000e+00 2.000e-01 0.000e+00 -1.269e-03 -9.226e-04 -1.004e-03
199 1 0.000e+00 -1.000e-01 0.000e+00 8.105e-04 1.150e-03 3.029e-04
200 1 0.000e+00 -2.000e-01 0.000e+00 -1.007e-03 -1.861e-03 8.566e-04
201 1 -1.000e-01 -1.000e-01 0.000e+00 4.041e-04 5.145e-04 3.343e-04
202 1 2.000e-01 0.000e+00 0.000e+00 2.419e-04 1.510e-04 8.940e-04
203 1 -1.000e-01 1.000e-01 0.000e+00 6.560e-04 -1.324e-03 -2.106e-04
204 1 1.000e-01 1.000e-01 0.000e+00 6.767e-04 -1.823e-04 1.141e-03
ITEM: TIMESTEP
0
ITEM: NUMBER OF ATOMS
12
ITEM: BOX BOUNDS xy xz yz pp pp pp
                     -5.00000000000000e-01 5.00000000000000e-01 0.00000000000000e+00
-5.00000000000000e-01	5.00000000000000e-01	0.00000000000000e+00
-5.00000000000000e-01	5.00000000000000e-01	0.00000000000000e+00
ITEM: ATOMS id type x y z DisplacementX DisplacementY DisplacementZ
205 1 0.000e+00 -1.000e-01 0.000e+00 -8.254e-05 2.552e-03 -2.915e-04
206 1 -1.000e-01 1.000e-01 0.000e+00 -3.094e-04 4.729e-04 8.813e-04
207 1 0.000e+00 0.000e+00 0.000e+00 -3.316e-04 9.976e-02 -1.133e-03
208 1 1.000e-01 0.000e+00 0.000e+00 4.531e-05 -2.388e-03 -1.350e-04
209 1 2.000e-01 0.000e+00 0.000e+00 2.282e-03 -4.674e-04 3.284e-04
210 1 0.000e+00 -2.000e-01 0.000e+00 1.810e-03 1.491e-03 5.347e-04
211 1 -1.000e-01 0.000e+00 0.000e+00 8.731e-04 5.452e-04 -5.838e-04
212 1 -1.000e-01 -1.000e-01 0.000e+00 7.188e-05 -7.267e-05 -2.007e-03
213 1 1.000e-01 -1.000e-01 0.000e+00 6.757e-04 -1.002e-03 -8.154e-04
214 1 -2.000e-01 0.000e+00 0.000e+00 3.330e-04 -2.297e-05 9.231e-04
215 1 1.000e-01 1.000e-01 0.000e+00 1.100e-03 -5.567e-04 1.109e-03
216 1 0.000e+00 2.000e-01 0.000e+00 8.817e-04 5.624e-04 1.261e-04
ITEM: TIMESTEP
0
ITEM: NUMBER OF ATOMS
12
ITEM: BOX BOUNDS xy xz yz pp pp pp
                     -5.00000000000000e-01 5.00000000000000e-01 0.00000000000000e+00
-5.00000000000000e-01	5.00000000000000e-01	0.00000000000000e+00
-5.00000000000000e-01	5.00000000000000e-01	0.00000000000000e+00
ITEM: ATOMS id type x y z DisplacementX DisplacementY DisplacementZ
217 1 0.000e+00 1.000e-01 0.000e+00 -2.485e-04 3.703e-04 1.079e-03
218 1 1.000e-01 0.000e+00 0.000e+00 -1.940e-03 7.951e-04 8.587e-04
219 1 -2.000e-01 0.000e+00 0.000e+00 1.702e-03 -1.697e-03 1.148e-03
220 1 -1.000e-01 -1.000e-01 0.000e+00 -2.821e-04 1.270e-03 1.353e-03
221 1 0.000e+00 -1.000e-01 0.000e+00 4.063e-04 -2.054e-04 2.328e-05
222 1 1.000e-01 -1.000e-01 0.000e+00 -4.210e-04 -2.041e-03 6.004e-04
223 1 1.000e-01 1.000e-01 0.000e+00 2.267e-04 1.203e-03 -1.506e-03
224 1 2.000e-01 0.000e+00 0.000e+00 4.973e-04 -5.771e-04 -7.917e-04
225 1 0.000e+00 -2.000e-01 0.000e+00 7.174e-04 1.497e-03 2.149e-04
226 1 0.000e+00 2.000e-01 0.000e+00 -1.633e-03 8.815e-04 1.361e-03
227 1 0.000e+00 0.000e+00 0.000e+00 -9.989e-02 -2.388e-03 1.449e-03
228 1 -1.000e-01 1.000e-01 0.000e+00 -1.184e-03 1.173e-03 -6.111e-04
ITEM: TIMESTEP
0
ITEM: NUMBER OF ATOMS
12
ITEM: BOX BOUNDS xy xz yz pp pp pp
                     -5.00000000000000e-01 5.00000000000000e-01 0.00000000000000e+00
-5.00000000000000e-01	5.00000000000000e-01	0.00000000000000e+00
-5.00000000000000e-01	5.00000000000000e-01	0.00000000000000e+00
ITEM: ATOMS id type x y z DisplacementX DisplacementY DisplacementZ
229 1 1.000e-01 0.000e+00 0.000e+00 1.217e-04 -2.984e-04 6.220e-04
230 1 -1.000e-01 0.000e+00 0.000e+00 1.874e-03 -1.441e-03 -2.122e-04
231 1 -1.000e-01 -1.000e-01 0.000e+00 -4.113e-04 -4.633e-04 -2.050e-03
232 1 0.000e+00 -2.000e-01 0.000e+00 -2.523e-03 -1.050e-03 4.062e-04
233 1 -1.000e-01 1.000e-01 0.000e+00 1.909e-03 2.453e-04 -7.234e-04
234 1 0.000e+00 1.000e-01 0.000e+00 -3.834e-04 8.700e-04 -5.893e-04
235 1 2.000e-01 0.000e+00 0.000e+00 -4.149e-04 5.582e-04 -5.856e-04
236 1 1.000e-01 1.000e-01 0.000e+00 -1.551e-03 -6.446e-04 8.723e-04
237 1 1.000e-01 -1.000e-01 0.000e+00 1.720e-04 1.029e-03 3.999e-06
238 1 -2.000e-01 0.000e+00 0.000e+00 2.825e-04 -1.296e-03 1.230e-03
239 1 0.000e+00 2.000e-01 0.000e+00 -2.328e-04 9.325e-04 -1.829e-03
240 1 0.000e+00 0.000e+00 0.000e+00 -7.339e-04 -9.861e-02 1.863e-03
