ITEM: TIMESTEP
0
ITEM: NUMBER OF ATOMS
107
ITEM: BOX BOUNDS xy xz yz pp pp pp
                     0.00000000000000e+00 1.06000000000000e+01 0.00000000000000e+00
0.00000000000000e+00	1.06000000000000e+01	0.00000000000000e+00
0.00000000000000e+00	1.06000000000000e+01	0.00000000000000e+00
ITEM: ATOMS id type x y z DisplacementX DisplacementY DisplacementZ
1 1 3.526e-01 3.519e-01 3.551e-01 1.998e-04 1.285e-04 -4.486e-04
2 1 2.123e+00 2.125e+00 3.544e-01 -4.565e-04 -2.003e-03 -2.578e-03
3 1 2.122e+00 3.548e-01 2.125e+00 -5.399e-04 6.964e-04 -1.151e-03
4 1 3.559e-01 2.121e+00 2.125e+00 -1.441e-03 -1.244e-02 -1.625e-02
5 1 3.895e+00 3.517e-01 3.539e-01 3.719e-04 -1.361e-04 -1.955e-03
6 1 5.665e+00 2.123e+00 3.560e-01 9.777e-04 -1.483e-02 -1.735e-02
7 1 5.666e+00 3.536e-01 2.126e+00 -3.455e-03 -1.510e-02 -1.834e-02
8 1 3.894e+00 2.125e+00 2.123e+00 4.032e-03 -1.407e-02 -1.847e-02
9 1 7.434e+00 3.484e-01 3.573e-01 -6.149e-04 -1.288e-02 -2.408e-02
10 1 9.204e+00 2.125e+00 3.544e-01 -8.775e-05 -1.654e-02 -1.432e-02
11 1 9.202e+00 3.499e-01 2.127e+00 4.612e-03 -1.385e-02 -1.826e-02
12 1 7.433e+00 2.125e+00 2.123e+00 5.760e-04 -2.474e-02 -1.585e-02
13 1 3.501e-01 3.894e+00 3.549e-01 -1.800e-03 -1.612e-02 -1.571e-02
14 1 2.125e+00 3.894e+00 2.124e+00 -2.939e-04 -1.987e-02 -1.646e-02
15 1 3.894e+00 3.895e+00 3.552e-01 1.643e-03 -1.558e-02 -1.571e-02
16 1 5.666e+00 3.897e+00 2.125e+00 8.223e-03 -9.480e-03 -1.868e-02
17 1 7.434e+00 3.896e+00 3.555e-01 1.141e-03 -1.084e-02 -1.089e-02
18 1 9.202e+00 3.896e+00 2.127e+00 -8.581e-03 -9.620e-03 -1.804e-02
19 1 3.501e-01 3.521e-01 3.893e+00 8.415e-04 1.460e-04 1.712e-03
20 1 2.125e+00 2.125e+00 3.895e+00 9.923e-04 7.627e-04 4.500e-04
21 1 3.895e+00 3.515e-01 3.893e+00 -8.120e-04 -2.607e-04 1.044e-03
22 1 5.663e+00 2.123e+00 3.893e+00 2.169e-03 -1.541e-02 -1.834e-02
23 1 7.434e+00 3.635e-01 3.895e+00 -1.544e-03 -2.563e-02 -1.420e-02
24 1 9.207e+00 2.123e+00 3.894e+00 -2.088e-03 -1.398e-02 -1.866e-02
25 1 3.502e-01 3.898e+00 3.893e+00 1.399e-03 -1.855e-02 -1.781e-02
26 1 3.898e+00 3.896e+00 3.895e+00 3.090e-05 -1.903e-02 -1.822e-02
27 1 7.433e+00 3.886e+00 3.894e+00 -1.044e-03 2.497e-03 -2.478e-02
28 1 2.124e+00 3.522e-01 5.664e+00 -9.025e-04 -1.437e-03 6.052e-04
29 1 3.551e-01 2.124e+00 5.663e+00 -1.870e-04 -5.463e-04 5.856e-04
30 1 5.665e+00 3.507e-01 5.661e+00 -7.958e-04 -1.183e-03 -6.581e-05
31 1 3.895e+00 2.125e+00 5.664e+00 1.336e-03 2.301e-03 1.112e-04
32 1 9.203e+00 3.526e-01 5.664e+00 1.838e-03 -1.367e-03 3.155e-04
33 1 7.434e+00 2.125e+00 5.667e+00 9.243e-04 -1.294e-02 -2.038e-02
34 1 2.123e+00 3.895e+00 5.663e+00 1.111e-03 -1.207e-03 6.389e-04
35 1 5.665e+00 3.897e+00 5.663e+00 -1.355e-03 -1.748e-02 -1.553e-02
36 1 9.202e+00 3.897e+00 5.662e+00 -1.384e-03 -1.685e-02 -1.608e-02
37 1 3.534e-01 3.531e-01 7.433e+00 -7.591e-04 5.479e-05 -9.043e-04
38 1 2.123e+00 2.123e+00 7.434e+00 -1.203e-03 -6.746e-04 1.741e-04
39 1 2.125e+00 3.551e-01 9.203e+00 -3.270e-04 -6.050e-04 8.287e-04
40 1 3.545e-01 2.125e+00 9.204e+00 -1.052e-04 -3.017e-04 3.190e-04
41 1 3.895e+00 3.525e-01 7.435e+00 3.146e-04 -8.445e-04 8.463e-04
42 1 5.664e+00 2.124e+00 7.433e+00 -8.491e-04 -5.857e-04 -1.416e-06
43 1 5.665e+00 3.541e-01 9.205e+00 1.283e-03 7.668e-04 -4.312e-04
44 1 3.893e+00 2.125e+00 9.203e+00 -1.094e-03 4.018e-04 -9.436e-04
45 1 7.434e+00 3.502e-01 7.429e+00 -4.215e-04 -1.400e-03 -8.463e-04
46 1 9.202e+00 2.123e+00 7.433e+00 7.701e-04 -7.937e-05 4.940e-04
47 1 9.204e+00 3.522e-01 9.201e+00 -5.435e-04 -4.607e-04 -2.757e-04
48 1 7.433e+00 2.124e+00 9.204e+00 -9.779e-04 -1.327e-02 -1.419e-02
49 1 3.524e-01 3.897e+00 7.433e+00 6.966e-04 8.811e-04 -1.026e-03
50 1 2.122e+00 3.894e+00 9.203e+00 1.285e-03 -2.087e-04 1.138e-03
51 1 3.896e+00 3.896e+00 7.433e+00 9.377e-04 2.908e-04 -1.885e-04
52 1 5.665e+00 3.895e+00 9.206e+00 6.947e-04 -1.741e-02 -1.390e-02
53 1 7.433e+00 3.896e+00 7.430e+00 1.197e-03 -2.378e-02 -1.342e-02
54 1 9.203e+00 3.895e+00 9.204e+00 1.666e-04 -1.745e-02 -1.391e-02
55 1 2.125e+00 5.663e+00 3.545e-01 -4.045e-04 -1.646e-02 -1.771e-02
56 1 3.505e-01 5.665e+00 2.126e+00 9.813e-03 -1.881e-02 -1.819e-02
57 1 5.667e+00 5.667e+00 3.559e-01 7.510e-03 -1.852e-02 -1.028e-02
58 1 3.896e+00 5.667e+00 2.125e+00 -1.431e-02 -1.876e-02 -1.722e-02
59 1 9.204e+00 5.665e+00 3.554e-01 -8.073e-03 -1.923e-02 -8.971e-03
60 1 7.433e+00 5.675e+00 2.132e+00 1.000e-04 1.738e+00 1.736e+00
61 1 3.517e-01 7.435e+00 3.594e-01 6.477e-04 -1.652e-02 -1.865e-02
62 1 2.123e+00 9.205e+00 3.552e-01 -9.818e-04 -7.183e-04 8.468e-04
63 1 2.124e+00 7.433e+00 2.120e+00 -4.338e-04 -1.427e-02 -1.506e-02
64 1 3.513e-01 9.201e+00 2.125e+00 -1.175e-03 -1.833e-02 -1.723e-02
65 1 3.897e+00 7.434e+00 3.571e-01 -2.413e-03 -1.891e-02 -1.999e-02
66 1 5.665e+00 9.201e+00 3.574e-01 -3.498e-05 -1.603e-02 -1.753e-02
67 1 5.674e+00 7.434e+00 2.132e+00 1.241e-03 -2.671e-02 -2.551e-02
68 1 3.898e+00 9.202e+00 2.126e+00 2.267e-03 -1.829e-02 -1.906e-02
69 1 7.435e+00 7.434e+00 3.454e-01 7.135e-04 -2.492e-02 1.470e-03
70 1 9.203e+00 9.202e+00 3.565e-01 -1.604e-03 -1.697e-02 -1.569e-02
71 1 9.193e+00 7.435e+00 2.133e+00 7.108e-04 -2.574e-02 -2.537e-02
72 1 7.433e+00 9.196e+00 2.134e+00 6.021e-04 2.734e-03 -2.538e-02
73 1 2.122e+00 5.663e+00 3.894e+00 2.053e-03 -1.601e-02 -1.638e-02
74 1 5.674e+00 5.673e+00 3.894e+00 5.780e-04 -2.460e-02 -2.549e-02
75 1 9.195e+00 5.673e+00 3.894e+00 2.484e-04 -2.596e-02 -2.246e-02
76 1 3.630e-01 7.432e+00 3.895e+00 -1.085e-02 -1.774e-02 -1.878e-02
77 1 2.124e+00 9.207e+00 3.896e+00 -1.996e-04 -3.310e-04 8.800e-04
78 1 3.885e+00 7.433e+00 3.894e+00 1.132e-02 -1.967e-02 -1.932e-02
79 1 5.673e+00 9.194e+00 3.895e+00 -6.433e-03 -1.049e-02 -1.875e-02
80 1 9.195e+00 9.195e+00 3.895e+00 6.344e-03 -7.964e-03 -1.779e-02
81 1 3.512e-01 5.667e+00 5.663e+00 -1.854e-03 -1.755e-02 -1.772e-02
82 1 3.898e+00 5.666e+00 5.663e+00 1.194e-03 -1.929e-02 -1.727e-02
83 1 7.435e+00 5.673e+00 5.654e+00 6.332e-04 -2.571e-02 2.174e-03
84 1 2.124e+00 7.437e+00 5.666e+00 -1.345e-03 2.954e-03 -1.816e-04
85 1 3.513e-01 9.203e+00 5.662e+00 1.219e-03 -4.038e-04 1.231e-03
86 1 5.673e+00 7.435e+00 5.655e+00 -9.919e-03 -1.735e-02 -9.128e-03
87 1 3.898e+00 9.201e+00 5.664e+00 -1.046e-03 6.352e-04 -2.000e-05
88 1 9.196e+00 7.434e+00 5.653e+00 8.355e-03 -1.623e-02 -9.126e-03
89 1 7.435e+00 9.195e+00 5.654e+00 7.768e-04 -1.046e-02 -9.282e-03
90 1 2.124e+00 5.665e+00 7.432e+00 -1.683e-04 3.103e-04 -9.142e-04
91 1 3.539e-01 5.666e+00 9.204e+00 -2.909e-03 -1.803e-02 -1.241e-02
92 1 5.667e+00 5.666e+00 7.431e+00 -4.161e-03 -1.968e-02 -1.264e-02
93 1 3.894e+00 5.666e+00 9.205e+00 2.676e-03 -1.810e-02 -1.367e-02
94 1 9.202e+00 5.666e+00 7.431e+00 2.001e-03 -1.697e-02 -1.535e-02
95 1 7.435e+00 5.661e+00 9.203e+00 -6.092e-04 -1.454e-02 -2.628e-02
96 1 3.496e-01 7.436e+00 7.433e+00 7.367e-04 -1.727e-04 -1.606e-04
97 1 2.123e+00 9.205e+00 7.434e+00 -1.021e-03 3.820e-04 -1.235e-03
98 1 2.124e+00 7.433e+00 9.203e+00 1.678e-03 -4.739e-04 -6.952e-04
99 1 3.521e-01 9.203e+00 9.205e+00 2.688e-03 1.773e-04 -1.284e-03
100 1 3.897e+00 7.434e+00 7.432e+00 1.427e-04 -6.166e-04 -6.527e-04
101 1 5.664e+00 9.203e+00 7.431e+00 -2.048e-03 1.579e-03 5.151e-04
102 1 5.661e+00 7.434e+00 9.204e+00 3.729e-03 -1.878e-02 -1.437e-02
103 1 3.893e+00 9.202e+00 9.203e+00 7.765e-04 3.594e-05 1.807e-04
104 1 7.434e+00 7.434e+00 7.443e+00 -4.546e-04 -1.550e-02 -2.723e-02
105 1 9.203e+00 9.201e+00 7.432e+00 2.184e-03 -2.432e-04 1.652e-03
106 1 9.206e+00 7.435e+00 9.205e+00 -2.667e-03 -1.626e-02 -1.366e-02
107 1 7.433e+00 9.205e+00 9.203e+00 7.268e-04 -2.253e-02 -1.313e-02
ITEM: TIMESTEP
0
ITEM: NUMBER OF ATOMS
107
ITEM: BOX BOUNDS xy xz yz pp pp pp
                     0.00000000000000e+00 1.06000000000000e+01 0.00000000000000e+00
0.00000000000000e+00	1.06000000000000e+01	0.00000000000000e+00
0.00000000000000e+00	1.06000000000000e+01	0.00000000000000e+00
ITEM: ATOMS id type x y z DisplacementX DisplacementY DisplacementZ
1 1 3.526e-01 3.519e-01 3.551e-01 8.779e-04 1.344e-03 -2.991e-04
2 1 2.123e+00 2.125e+00 3.544e-01 -1.383e-04 4.334e-04 -6.963e-04
3 1 2.122e+00 3.548e-01 2.125e+00 -1.097e-02 -4.187e-03 -1.667e-02
4 1 3.559e-01 2.121e+00 2.125e+00 -1.348e-03 2.697e-04 -3.513e-04
5 1 3.895e+00 3.517e-01 3.539e-01 -1.532e-02 -1.652e-03 -1.660e-02
6 1 5.665e+00 2.123e+00 3.560e-01 -1.851e-02 -7.478e-04 -1.931e-02
7 1 5.666e+00 3.536e-01 2.126e+00 -1.891e-02 1.246e-02 -1.810e-02
8 1 3.894e+00 2.125e+00 2.123e+00 -1.873e-02 8.394e-04 -1.752e-02
9 1 7.434e+00 3.484e-01 3.573e-01 -1.843e-02 4.177e-04 -1.937e-02
10 1 9.204e+00 2.125e+00 3.544e-01 1.318e-03 -1.772e-04 -5.956e-04
11 1 9.202e+00 3.499e-01 2.127e+00 -1.852e-02 -2.159e-03 -1.933e-02
12 1 7.433e+00 2.125e+00 2.123e+00 -1.527e-02 -3.199e-04 -1.620e-02
13 1 3.501e-01 3.894e+00 3.549e-01 6.701e-04 6.828e-04 -1.149e-03
14 1 2.125e+00 3.894e+00 2.124e+00 -1.309e-02 2.508e-03 -1.745e-02
15 1 3.894e+00 3.895e+00 3.552e-01 -1.529e-02 1.022e-03 -1.566e-02
16 1 5.666e+00 3.897e+00 2.125e+00 -1.713e-02 -1.181e-02 -1.663e-02
17 1 7.434e+00 3.896e+00 3.555e-01 -1.812e-02 -1.272e-03 -1.789e-02
18 1 9.202e+00 3.896e+00 2.127e+00 -1.687e-02 -4.568e-04 -1.935e-02
19 1 3.501e-01 3.521e-01 3.893e+00 1.141e-04 -3.008e-04 1.185e-03
20 1 2.125e+00 2.125e+00 3.895e+00 1.991e-03 -9.206e-04 -6.463e-04
21 1 3.895e+00 3.515e-01 3.893e+00 -1.896e-02 7.777e-04 -1.869e-02
22 1 5.663e+00 2.123e+00 3.893e+00 -1.454e-02 -1.262e-05 -1.633e-02
23 1 7.434e+00 3.635e-01 3.895e+00 -1.928e-02 -1.153e-02 -1.747e-02
24 1 9.207e+00 2.123e+00 3.894e+00 -4.028e-04 -8.411e-04 8.452e-04
25 1 3.502e-01 3.898e+00 3.893e+00 1.726e-03 2.685e-04 1.388e-04
26 1 3.898e+00 3.896e+00 3.895e+00 -1.935e-02 -6.200e-04 -1.654e-02
27 1 7.433e+00 3.886e+00 3.894e+00 -1.899e-02 1.279e-02 -1.789e-02
28 1 2.124e+00 3.522e-01 5.664e+00 -8.593e-04 -1.807e-05 1.761e-03
29 1 3.551e-01 2.124e+00 5.663e+00 6.275e-04 -2.086e-04 1.055e-03
30 1 5.665e+00 3.507e-01 5.661e+00 -1.973e-02 -1.736e-03 -1.776e-02
31 1 3.895e+00 2.125e+00 5.664e+00 5.148e-04 2.915e-05 -5.386e-04
32 1 9.203e+00 3.526e-01 5.664e+00 3.891e-04 -4.533e-04 -1.344e-04
33 1 7.434e+00 2.125e+00 5.667e+00 1.565e-03 1.193e-04 2.614e-04
34 1 2.123e+00 3.895e+00 5.663e+00 -2.519e-04 9.919e-04 -5.738e-06
35 1 5.665e+00 3.897e+00 5.663e+00 -1.706e-02 3.192e-04 -1.689e-02
36 1 9.202e+00 3.897e+00 5.662e+00 -1.562e-03 -1.013e-03 1.961e-03
37 1 3.534e-01 3.531e-01 7.433e+00 -2.463e-04 2.234e-04 2.089e-03
38 1 2.123e+00 2.123e+00 7.434e+00 7.852e-05 6.149e-04 1.120e-03
39 1 2.125e+00 3.551e-01 9.203e+00 -1.888e-03 -1.121e-03 -1.445e-03
40 1 3.545e-01 2.125e+00 9.204e+00 1.943e-03 1.922e-03 4.331e-04
41 1 3.895e+00 3.525e-01 7.435e+00 -5.002e-04 -7.306e-04 -1.873e-03
42 1 5.664e+00 2.124e+00 7.433e+00 -3.503e-05 3.680e-04 -5.540e-04
43 1 5.665e+00 3.541e-01 9.205e+00 -1.654e-02 -1.249e-03 -1.324e-02
44 1 3.893e+00 2.125e+00 9.203e+00 4.215e-04 -1.517e-03 9.811e-04
45 1 7.434e+00 3.502e-01 7.429e+00 -1.345e-03 5.307e-04 5.385e-04
46 1 9.202e+00 2.123e+00 7.433e+00 -3.511e-04 -1.831e-03 4.121e-04
47 1 9.204e+00 3.522e-01 9.201e+00 3.192e-04 -3.693e-04 -1.730e-05
48 1 7.433e+00 2.124e+00 9.204e+00 -1.097e-03 6.586e-04 -9.700e-04
49 1 3.524e-01 3.897e+00 7.433e+00 7.647e-04 4.007e-04 3.012e-04
50 1 2.122e+00 3.894e+00 9.203e+00 8.720e-05 7.617e-04 -7.599e-04
51 1 3.896e+00 3.896e+00 7.433e+00 -1.207e-04 -1.097e-03 1.460e-03
52 1 5.665e+00 3.895e+00 9.206e+00 -1.622e-02 2.373e-03 -1.318e-02
53 1 7.433e+00 3.896e+00 7.430e+00 3.007e-04 -1.358e-03 -2.242e-04
54 1 9.203e+00 3.895e+00 9.204e+00 9.273e-04 1.892e-04 1.483e-06
55 1 2.125e+00 5.663e+00 3.545e-01 -1.324e-02 1.938e-03 -1.659e-02
56 1 3.505e-01 5.665e+00 2.126e+00 -1.351e-02 -2.380e-03 -1.797e-02
57 1 5.667e+00 5.667e+00 3.559e-01 -1.862e-02 6.376e-03 -1.099e-02
58 1 3.896e+00 5.667e+00 2.125e+00 -1.013e-02 9.088e-03 -1.917e-02
59 1 9.204e+00 5.665e+00 3.554e-01 -1.909e-02 -7.266e-04 -1.556e-02
60 1 7.433e+00 5.675e+00 2.132e+00 -2.528e-02 -2.043e-04 -2.390e-02
61 1 3.517e-01 7.435e+00 3.594e-01 -1.271e-02 1.420e-03 -2.362e-02
62 1 2.123e+00 9.205e+00 3.552e-01 -1.307e-02 -2.374e-03 -1.415e-02
63 1 2.124e+00 7.433e+00 2.120e+00 -2.560e-02 2.064e-04 -1.410e-02
64 1 3.513e-01 9.201e+00 2.125e+00 -1.466e-02 3.250e-03 -1.749e-02
65 1 3.897e+00 7.434e+00 3.571e-01 -9.289e-03 3.183e-04 -1.137e-02
66 1 5.665e+00 9.201e+00 3.574e-01 -1.731e-02 -7.820e-03 -9.055e-03
67 1 5.674e+00 7.434e+00 2.132e+00 1.734e+00 1.884e-03 1.735e+00
68 1 3.898e+00 9.202e+00 2.126e+00 -1.039e-02 -7.185e-03 -1.847e-02
69 1 7.435e+00 7.434e+00 3.454e-01 -2.555e-02 -8.212e-04 1.839e-03
70 1 9.203e+00 9.202e+00 3.565e-01 -1.783e-02 -1.863e-03 -1.676e-02
71 1 9.193e+00 7.435e+00 2.133e+00 1.527e-03 -5.997e-04 -2.648e-02
72 1 7.433e+00 9.196e+00 2.134e+00 -2.554e-02 -6.035e-04 -2.568e-02
73 1 2.122e+00 5.663e+00 3.894e+00 -1.401e-02 3.730e-03 -1.857e-02
74 1 5.674e+00 5.673e+00 3.894e+00 -2.605e-02 -2.672e-04 -2.601e-02
75 1 9.195e+00 5.673e+00 3.894e+00 -1.014e-02 -7.514e-03 -1.737e-02
76 1 3.630e-01 7.432e+00 3.895e+00 -2.664e-02 -8.980e-04 -1.557e-02
77 1 2.124e+00 9.207e+00 3.896e+00 -1.502e-02 -4.427e-03 -1.849e-02
78 1 3.885e+00 7.433e+00 3.894e+00 1.166e-03 -1.568e-03 -2.598e-02
79 1 5.673e+00 9.194e+00 3.895e+00 -2.611e-02 -9.504e-04 -2.667e-02
80 1 9.195e+00 9.195e+00 3.895e+00 -1.035e-02 9.363e-03 -1.779e-02
81 1 3.512e-01 5.667e+00 5.663e+00 -2.457e-04 -1.423e-03 8.032e-04
82 1 3.898e+00 5.666e+00 5.663e+00 -1.775e-02 1.500e-04 -1.787e-02
83 1 7.435e+00 5.673e+00 5.654e+00 -1.652e-02 -7.761e-03 -1.022e-02
84 1 2.124e+00 7.437e+00 5.666e+00 -1.202e-02 6.314e-04 -2.057e-02
85 1 3.513e-01 9.203e+00 5.662e+00 -1.582e-03 -1.207e-03 5.807e-04
86 1 5.673e+00 7.435e+00 5.655e+00 -2.649e-02 9.796e-04 2.406e-03
87 1 3.898e+00 9.201e+00 5.664e+00 -1.634e-02 -4.706e-04 -1.670e-02
88 1 9.196e+00 7.434e+00 5.653e+00 -1.008e-02 1.186e-03 -1.110e-02
89 1 7.435e+00 9.195e+00 5.654e+00 -1.710e-02 8.980e-03 -1.043e-02
90 1 2.124e+00 5.665e+00 7.432e+00 -1.001e-03 5.311e-04 -6.835e-04
91 1 3.539e-01 5.666e+00 9.204e+00 2.754e-04 2.815e-05 1.218e-03
92 1 5.667e+00 5.666e+00 7.431e+00 -1.899e-02 -3.352e-03 -1.314e-02
93 1 3.894e+00 5.666e+00 9.205e+00 -1.511e-02 9.839e-04 -1.460e-02
94 1 9.202e+00 5.666e+00 7.431e+00 -6.013e-06 8.778e-04 -7.190e-04
95 1 7.435e+00 5.661e+00 9.203e+00 -1.738e-02 2.820e-03 -1.587e-02
96 1 3.496e-01 7.436e+00 7.433e+00 -1.248e-03 -1.312e-04 1.162e-03
97 1 2.123e+00 9.205e+00 7.434e+00 1.520e-04 6.695e-04 1.357e-03
98 1 2.124e+00 7.433e+00 9.203e+00 -1.379e-02 6.409e-04 -1.355e-02
99 1 3.521e-01 9.203e+00 9.205e+00 -6.712e-04 -1.146e-03 5.646e-04
100 1 3.897e+00 7.434e+00 7.432e+00 -2.190e-02 1.679e-04 -1.467e-02
101 1 5.664e+00 9.203e+00 7.431e+00 -1.976e-02 1.720e-03 -1.300e-02
102 1 5.661e+00 7.434e+00 9.204e+00 -1.269e-02 2.370e-03 -2.591e-02
103 1 3.893e+00 9.202e+00 9.203e+00 -1.626e-02 9.781e-04 -1.323e-02
104 1 7.434e+00 7.434e+00 7.443e+00 -1.634e-02 5.381e-04 -2.519e-02
105 1 9.203e+00 9.201e+00 7.432e+00 -5.382e-04 2.188e-04 -5.999e-04
106 1 9.206e+00 7.435e+00 9.205e+00 -1.822e-02 -1.214e-03 -1.422e-02
107 1 7.433e+00 9.205e+00 9.203e+00 -1.634e-02 -2.603e-03 -1.525e-02
ITEM: TIMESTEP
0
ITEM: NUMBER OF ATOMS
107
ITEM: BOX BOUNDS xy xz yz pp pp pp
                     0.00000000000000e+00 1.06000000000000e+01 0.00000000000000e+00
0.00000000000000e+00	1.06000000000000e+01	0.00000000000000e+00
0.00000000000000e+00	1.06000000000000e+01	0.00000000000000e+00
ITEM: ATOMS id type x y z DisplacementX DisplacementY DisplacementZ
1 1 3.526e-01 3.519e-01 3.551e-01 1.658e-02 -3.279e-03 -1.706e-02
2 1 2.123e+00 2.125e+00 3.544e-01 -1.719e-04 2.187e-04 2.504e-04
3 1 2.122e+00 3.548e-01 2.125e+00 1.380e-02 -3.827e-03 -1.834e-02
4 1 3.559e-01 2.121e+00 2.125e+00 1.901e-02 7.869e-05 -1.776e-02
5 1 3.895e+00 3.517e-01 3.539e-01 -8.388e-04 1.653e-03 8.414e-05
6 1 5.665e+00 2.123e+00 3.560e-01 -9.921e-04 7.925e-04 -1.438e-03
7 1 5.666e+00 3.536e-01 2.126e+00 1.750e-02 -2.381e-04 -1.781e-02
8 1 3.894e+00 2.125e+00 2.123e+00 -4.435e-04 -8.252e-04 -5.083e-04
9 1 7.434e+00 3.484e-01 3.573e-01 1.611e-02 2.707e-04 -1.650e-02
10 1 9.204e+00 2.125e+00 3.544e-01 1.648e-02 3.612e-04 -1.825e-02
11 1 9.202e+00 3.499e-01 2.127e+00 1.859e-02 9.909e-03 -1.769e-02
12 1 7.433e+00 2.125e+00 2.123e+00 1.442e-02 -1.174e-03 -1.472e-02
13 1 3.501e-01 3.894e+00 3.549e-01 1.538e-02 3.604e-03 -1.314e-02
14 1 2.125e+00 3.894e+00 2.124e+00 1.233e-02 4.293e-03 -1.774e-02
15 1 3.894e+00 3.895e+00 3.552e-01 2.450e-03 -1.435e-03 -2.595e-03
16 1 5.666e+00 3.897e+00 2.125e+00 1.646e-02 2.370e-03 -1.793e-02
17 1 7.434e+00 3.896e+00 3.555e-01 1.720e-02 -2.044e-03 -1.816e-02
18 1 9.202e+00 3.896e+00 2.127e+00 1.743e-02 -9.519e-03 -1.827e-02
19 1 3.501e-01 3.521e-01 3.893e+00 1.783e-02 1.135e-03 -1.809e-02
20 1 2.125e+00 2.125e+00 3.895e+00 8.153e-04 -3.563e-05 1.748e-03
21 1 3.895e+00 3.515e-01 3.893e+00 1.505e-03 1.285e-03 -8.999e-04
22 1 5.663e+00 2.123e+00 3.893e+00 -6.066e-04 1.130e-03 -1.981e-04
23 1 7.434e+00 3.635e-01 3.895e+00 1.984e-02 -1.173e-02 -1.866e-02
24 1 9.207e+00 2.123e+00 3.894e+00 1.551e-02 -1.699e-03 -1.480e-02
25 1 3.502e-01 3.898e+00 3.893e+00 1.699e-02 4.818e-04 -1.902e-02
26 1 3.898e+00 3.896e+00 3.895e+00 3.394e-04 9.339e-04 1.753e-04
27 1 7.433e+00 3.886e+00 3.894e+00 1.820e-02 1.112e-02 -1.967e-02
28 1 2.124e+00 3.522e-01 5.664e+00 -1.753e-04 -1.887e-04 -6.287e-04
29 1 3.551e-01 2.124e+00 5.663e+00 2.063e-04 2.884e-05 -6.450e-05
30 1 5.665e+00 3.507e-01 5.661e+00 1.723e-03 1.798e-03 -9.102e-04
31 1 3.895e+00 2.125e+00 5.664e+00 4.346e-04 -1.373e-03 1.614e-03
32 1 9.203e+00 3.526e-01 5.664e+00 1.861e-02 -9.389e-04 -1.740e-02
33 1 7.434e+00 2.125e+00 5.667e+00 9.968e-04 2.884e-05 3.917e-04
34 1 2.123e+00 3.895e+00 5.663e+00 4.562e-04 -3.036e-05 5.737e-04
35 1 5.665e+00 3.897e+00 5.663e+00 -8.424e-04 -3.897e-04 -5.152e-04
36 1 9.202e+00 3.897e+00 5.662e+00 1.807e-02 1.831e-03 -1.612e-02
37 1 3.534e-01 3.531e-01 7.433e+00 -7.157e-05 -2.990e-04 -1.487e-04
38 1 2.123e+00 2.123e+00 7.434e+00 -1.277e-03 8.338e-04 -3.122e-04
39 1 2.125e+00 3.551e-01 9.203e+00 1.695e-03 -9.926e-05 -1.790e-04
40 1 3.545e-01 2.125e+00 9.204e+00 -1.172e-03 -1.362e-03 -1.723e-04
41 1 3.895e+00 3.525e-01 7.435e+00 -4.419e-04 -5.650e-04 1.665e-04
42 1 5.664e+00 2.124e+00 7.433e+00 2.594e-05 2.978e-04 -7.685e-04
43 1 5.665e+00 3.541e-01 9.205e+00 -1.391e-03 1.225e-03 5.468e-04
44 1 3.893e+00 2.125e+00 9.203e+00 4.800e-04 1.281e-04 2.152e-06
45 1 7.434e+00 3.502e-01 7.429e+00 5.458e-04 6.164e-04 -1.974e-03
46 1 9.202e+00 2.123e+00 7.433e+00 1.389e-06 4.171e-04 4.325e-04
47 1 9.204e+00 3.522e-01 9.201e+00 1.507e-02 -3.629e-03 -1.145e-02
48 1 7.433e+00 2.124e+00 9.204e+00 7.005e-05 -2.016e-04 4.655e-04
49 1 3.524e-01 3.897e+00 7.433e+00 -4.306e-05 7.634e-04 3.444e-04
50 1 2.122e+00 3.894e+00 9.203e+00 1.430e-03 5.566e-04 -8.943e-04
51 1 3.896e+00 3.896e+00 7.433e+00 -1.771e-03 1.870e-03 -1.136e-03
52 1 5.665e+00 3.895e+00 9.206e+00 -7.129e-04 1.368e-03 6.987e-04
53 1 7.433e+00 3.896e+00 7.430e+00 7.339e-04 2.256e-05 -1.647e-04
54 1 9.203e+00 3.895e+00 9.204e+00 1.742e-02 3.353e-03 -1.464e-02
55 1 2.125e+00 5.663e+00 3.545e-01 1.207e-02 2.987e-03 -1.434e-02
56 1 3.505e-01 5.665e+00 2.126e+00 9.890e-03 9.700e-03 -1.717e-02
57 1 5.667e+00 5.667e+00 3.559e-01 1.820e-02 -4.970e-04 -1.645e-02
58 1 3.896e+00 5.667e+00 2.125e+00 1.216e-02 -2.903e-03 -1.772e-02
59 1 9.204e+00 5.665e+00 3.554e-01 1.759e-02 5.896e-03 -9.321e-03
60 1 7.433e+00 5.675e+00 2.132e+00 2.636e-02 6.834e-04 -2.574e-02
61 1 3.517e-01 7.435e+00 3.594e-01 1.017e-02 1.874e-04 -1.009e-02
62 1 2.123e+00 9.205e+00 3.552e-01 1.487e-02 -3.397e-03 -1.631e-02
63 1 2.124e+00 7.433e+00 2.120e+00 2.703e-02 4.240e-05 -1.549e-02
64 1 3.513e-01 9.201e+00 2.125e+00 8.239e-03 -8.008e-03 -2.000e-02
65 1 3.897e+00 7.434e+00 3.571e-01 1.378e-02 3.215e-04 -2.051e-02
66 1 5.665e+00 9.201e+00 3.574e-01 1.606e-02 -1.568e-03 -1.704e-02
67 1 5.674e+00 7.434e+00 2.132e+00 -2.226e-03 2.556e-04 -2.465e-02
68 1 3.898e+00 9.202e+00 2.126e+00 1.705e-02 2.694e-03 -1.875e-02
69 1 7.435e+00 7.434e+00 3.454e-01 2.483e-02 -7.969e-04 7.329e-04
70 1 9.203e+00 9.202e+00 3.565e-01 1.678e-02 -6.647e-03 -9.778e-03
71 1 9.193e+00 7.435e+00 2.133e+00 -1.735e+00 -2.720e-04 1.734e+00
72 1 7.433e+00 9.196e+00 2.134e+00 2.612e-02 -3.232e-04 -2.553e-02
73 1 2.122e+00 5.663e+00 3.894e+00 1.408e-02 3.706e-03 -1.805e-02
74 1 5.674e+00 5.673e+00 3.894e+00 1.035e-02 -5.630e-03 -1.953e-02
75 1 9.195e+00 5.673e+00 3.894e+00 2.706e-02 7.171e-04 -2.456e-02
76 1 3.630e-01 7.432e+00 3.895e+00 -2.325e-03 1.059e-03 -2.404e-02
77 1 2.124e+00 9.207e+00 3.896e+00 1.453e-02 -3.656e-03 -1.903e-02
78 1 3.885e+00 7.433e+00 3.894e+00 2.495e-02 -7.896e-04 -1.685e-02
79 1 5.673e+00 9.194e+00 3.895e+00 8.569e-03 6.546e-03 -1.830e-02
80 1 9.195e+00 9.195e+00 3.895e+00 2.673e-02 -1.857e-04 -2.664e-02
81 1 3.512e-01 5.667e+00 5.663e+00 1.658e-02 5.701e-04 -1.721e-02
82 1 3.898e+00 5.666e+00 5.663e+00 -2.275e-03 -1.049e-04 1.720e-04
83 1 7.435e+00 5.673e+00 5.654e+00 1.813e-02 -7.107e-03 -1.109e-02
84 1 2.124e+00 7.437e+00 5.666e+00 1.376e-02 6.826e-05 -2.048e-02
85 1 3.513e-01 9.203e+00 5.662e+00 1.817e-02 2.763e-04 -1.851e-02
86 1 5.673e+00 7.435e+00 5.655e+00 1.017e-02 9.511e-04 -1.096e-02
87 1 3.898e+00 9.201e+00 5.664e+00 -1.303e-03 1.496e-03 2.399e-04
88 1 9.196e+00 7.434e+00 5.653e+00 2.699e-02 -4.934e-04 2.720e-03
89 1 7.435e+00 9.195e+00 5.654e+00 1.971e-02 5.524e-03 -9.305e-03
90 1 2.124e+00 5.665e+00 7.432e+00 -1.601e-03 -3.205e-04 -1.293e-03
91 1 3.539e-01 5.666e+00 9.204e+00 1.492e-02 3.511e-04 -1.254e-02
92 1 5.667e+00 5.666e+00 7.431e+00 -1.346e-03 3.167e-04 2.221e-04
93 1 3.894e+00 5.666e+00 9.205e+00 -6.067e-04 -5.837e-04 -1.153e-05
94 1 9.202e+00 5.666e+00 7.431e+00 1.701e-02 -2.283e-03 -1.368e-02
95 1 7.435e+00 5.661e+00 9.203e+00 1.605e-02 4.160e-03 -1.198e-02
96 1 3.496e-01 7.436e+00 7.433e+00 2.310e-02 -1.233e-04 -1.344e-02
97 1 2.123e+00 9.205e+00 7.434e+00 2.117e-03 -9.324e-04 -1.373e-03
98 1 2.124e+00 7.433e+00 9.203e+00 1.491e-02 -2.228e-04 -1.374e-02
99 1 3.521e-01 9.203e+00 9.205e+00 1.492e-02 -1.556e-03 -1.521e-02
100 1 3.897e+00 7.434e+00 7.432e+00 -4.816e-04 4.291e-04 -2.055e-03
101 1 5.664e+00 9.203e+00 7.431e+00 2.557e-03 -3.725e-04 2.344e-03
102 1 5.661e+00 7.434e+00 9.204e+00 2.221e-02 -1.250e-03 -1.233e-02
103 1 3.893e+00 9.202e+00 9.203e+00 1.366e-03 -7.225e-04 -2.753e-04
104 1 7.434e+00 7.434e+00 7.443e+00 1.665e-02 1.738e-03 -2.621e-02
105 1 9.203e+00 9.201e+00 7.432e+00 1.927e-02 2.383e-03 -1.343e-02
106 1 9.206e+00 7.435e+00 9.205e+00 1.581e-02 -6.606e-04 -2.620e-02
107 1 7.433e+00 9.205e+00 9.203e+00 1.956e-02 -4.653e-03 -1.347e-02
ITEM: TIMESTEP
0
ITEM: NUMBER OF ATOMS
107
ITEM: BOX BOUNDS xy xz yz pp pp pp
                     0.00000000000000e+00 1.06000000000000e+01 0.00000000000000e+00
0.00000000000000e+00	1.06000000000000e+01	0.00000000000000e+00
0.00000000000000e+00	1.06000000000000e+01	0.00000000000000e+00
ITEM: ATOMS id type x y z DisplacementX DisplacementY DisplacementZ
1 1 3.526e-01 3.519e-01 3.551e-01 -1.257e-03 1.442e-02 -1.413e-02
2 1 2.123e+00 2.125e+00 3.544e-01 3.108e-04 1.741e-03 2.716e-05
3 1 2.122e+00 3.548e-01 2.125e+00 -2.871e-04 1.843e-02 -1.665e-02
4 1 3.559e-01 2.121e+00 2.125e+00 -3.370e-03 1.316e-02 -1.558e-02
5 1 3.895e+00 3.517e-01 3.539e-01 3.012e-03 1.521e-02 -1.508e-02
6 1 5.665e+00 2.123e+00 3.560e-01 8.048e-04 1.396e-02 -1.657e-02
7 1 5.666e+00 3.536e-01 2.126e+00 9.186e-03 1.157e-02 -1.777e-02
8 1 3.894e+00 2.125e+00 2.123e+00 3.710e-03 1.314e-02 -1.716e-02
9 1 7.434e+00 3.484e-01 3.573e-01 -2.012e-04 1.127e-02 -1.096e-02
10 1 9.204e+00 2.125e+00 3.544e-01 -1.019e-03 1.478e-02 -1.563e-02
11 1 9.202e+00 3.499e-01 2.127e+00 -9.303e-03 1.012e-02 -1.922e-02
12 1 7.433e+00 2.125e+00 2.123e+00 1.672e-03 2.639e-02 -1.550e-02
13 1 3.501e-01 3.894e+00 3.549e-01 -3.702e-04 -1.458e-03 -4.134e-04
14 1 2.125e+00 3.894e+00 2.124e+00 2.257e-04 -9.319e-04 -5.212e-04
15 1 3.894e+00 3.895e+00 3.552e-01 -6.937e-04 -8.724e-04 3.927e-06
16 1 5.666e+00 3.897e+00 2.125e+00 -3.760e-03 1.459e-02 -1.854e-02
17 1 7.434e+00 3.896e+00 3.555e-01 7.000e-04 1.360e-02 -2.161e-02
18 1 9.202e+00 3.896e+00 2.127e+00 3.781e-03 1.377e-02 -1.886e-02
19 1 3.501e-01 3.521e-01 3.893e+00 4.435e-04 1.748e-02 -1.864e-02
20 1 2.125e+00 2.125e+00 3.895e+00 -1.422e-04 -1.552e-03 4.406e-04
21 1 3.895e+00 3.515e-01 3.893e+00 -1.602e-03 1.877e-02 -1.852e-02
22 1 5.663e+00 2.123e+00 3.893e+00 9.744e-04 1.587e-02 -1.907e-02
23 1 7.434e+00 3.635e-01 3.895e+00 1.483e-03 -2.708e-03 -2.467e-02
24 1 9.207e+00 2.123e+00 3.894e+00 -2.150e-03 1.358e-02 -1.881e-02
25 1 3.502e-01 3.898e+00 3.893e+00 4.824e-04 4.412e-04 -6.708e-04
26 1 3.898e+00 3.896e+00 3.895e+00 1.375e-03 -2.295e-04 -6.094e-04
27 1 7.433e+00 3.886e+00 3.894e+00 1.010e-04 2.479e-02 -1.443e-02
28 1 2.124e+00 3.522e-01 5.664e+00 -1.702e-03 5.557e-04 -2.071e-04
29 1 3.551e-01 2.124e+00 5.663e+00 -9.184e-04 1.685e-03 1.027e-03
30 1 5.665e+00 3.507e-01 5.661e+00 -1.074e-03 1.867e-02 -1.655e-02
31 1 3.895e+00 2.125e+00 5.664e+00 8.915e-04 -7.033e-05 -1.394e-04
32 1 9.203e+00 3.526e-01 5.664e+00 1.648e-03 1.732e-02 -1.615e-02
33 1 7.434e+00 2.125e+00 5.667e+00 -5.038e-04 1.400e-02 -2.033e-02
34 1 2.123e+00 3.895e+00 5.663e+00 3.200e-04 -1.214e-03 -6.466e-04
35 1 5.665e+00 3.897e+00 5.663e+00 1.277e-03 2.456e-04 6.689e-04
36 1 9.202e+00 3.897e+00 5.662e+00 5.717e-05 9.956e-04 1.233e-03
37 1 3.534e-01 3.531e-01 7.433e+00 -1.319e-03 3.689e-03 6.874e-04
38 1 2.123e+00 2.123e+00 7.434e+00 8.096e-05 -2.497e-04 8.071e-05
39 1 2.125e+00 3.551e-01 9.203e+00 4.652e-04 1.128e-03 9.820e-04
40 1 3.545e-01 2.125e+00 9.204e+00 8.663e-04 1.336e-03 6.030e-04
41 1 3.895e+00 3.525e-01 7.435e+00 2.423e-04 -2.033e-04 -4.119e-04
42 1 5.664e+00 2.124e+00 7.433e+00 -1.444e-03 6.391e-04 -3.447e-05
43 1 5.665e+00 3.541e-01 9.205e+00 7.461e-04 1.784e-02 -1.501e-02
44 1 3.893e+00 2.125e+00 9.203e+00 -1.571e-03 -6.747e-04 6.513e-04
45 1 7.434e+00 3.502e-01 7.429e+00 6.892e-04 2.111e-02 -1.340e-02
46 1 9.202e+00 2.123e+00 7.433e+00 7.803e-04 -4.633e-04 -1.015e-03
47 1 9.204e+00 3.522e-01 9.201e+00 -1.218e-03 1.695e-02 -1.448e-02
48 1 7.433e+00 2.124e+00 9.204e+00 3.414e-05 1.267e-02 -1.446e-02
49 1 3.524e-01 3.897e+00 7.433e+00 -1.034e-03 8.080e-04 -1.751e-03
50 1 2.122e+00 3.894e+00 9.203e+00 6.459e-04 3.389e-04 3.130e-04
51 1 3.896e+00 3.896e+00 7.433e+00 -1.545e-03 1.434e-04 5.665e-04
52 1 5.665e+00 3.895e+00 9.206e+00 -5.396e-04 5.406e-04 -1.427e-03
53 1 7.433e+00 3.896e+00 7.430e+00 -6.971e-04 8.619e-04 7.382e-04
54 1 9.203e+00 3.895e+00 9.204e+00 1.977e-04 -1.302e-04 -1.018e-03
55 1 2.125e+00 5.663e+00 3.545e-01 -3.514e-04 9.680e-04 -2.683e-04
56 1 3.505e-01 5.665e+00 2.126e+00 -8.170e-05 1.797e-02 -1.758e-02
57 1 5.667e+00 5.667e+00 3.559e-01 4.147e-04 1.886e-02 -1.834e-02
58 1 3.896e+00 5.667e+00 2.125e+00 2.873e-03 1.793e-02 -1.721e-02
59 1 9.204e+00 5.665e+00 3.554e-01 7.220e-04 1.638e-02 -1.646e-02
60 1 7.433e+00 5.675e+00 2.132e+00 -9.545e-05 -3.457e-03 -2.673e-02
61 1 3.517e-01 7.435e+00 3.594e-01 8.571e-04 1.827e-02 -2.125e-02
62 1 2.123e+00 9.205e+00 3.552e-01 -4.831e-04 1.741e-02 -1.885e-02
63 1 2.124e+00 7.433e+00 2.120e+00 -2.578e-04 1.253e-02 -1.250e-02
64 1 3.513e-01 9.201e+00 2.125e+00 1.293e-02 1.954e-02 -2.169e-02
65 1 3.897e+00 7.434e+00 3.571e-01 -1.032e-03 1.739e-02 -1.916e-02
66 1 5.665e+00 9.201e+00 3.574e-01 6.923e-03 1.766e-02 -1.065e-02
67 1 5.674e+00 7.434e+00 2.132e+00 -3.862e-04 2.548e-02 -2.331e-02
68 1 3.898e+00 9.202e+00 2.126e+00 -1.041e-02 1.807e-02 -1.707e-02
69 1 7.435e+00 7.434e+00 3.454e-01 1.224e-03 2.528e-02 2.182e-03
70 1 9.203e+00 9.202e+00 3.565e-01 -8.673e-03 1.827e-02 -1.066e-02
71 1 9.193e+00 7.435e+00 2.133e+00 2.418e-04 2.515e-02 -2.489e-02
72 1 7.433e+00 9.196e+00 2.134e+00 -6.363e-04 -1.736e+00 1.734e+00
73 1 2.122e+00 5.663e+00 3.894e+00 1.866e-04 1.519e-05 -1.101e-03
74 1 5.674e+00 5.673e+00 3.894e+00 -8.740e-03 7.809e-03 -1.892e-02
75 1 9.195e+00 5.673e+00 3.894e+00 5.852e-03 1.047e-02 -1.798e-02
76 1 3.630e-01 7.432e+00 3.895e+00 -1.293e-02 1.999e-02 -1.793e-02
77 1 2.124e+00 9.207e+00 3.896e+00 7.575e-05 1.700e-02 -1.452e-02
78 1 3.885e+00 7.433e+00 3.894e+00 1.190e-02 1.795e-02 -1.775e-02
79 1 5.673e+00 9.194e+00 3.895e+00 -1.772e-03 2.657e-02 -2.557e-02
80 1 9.195e+00 9.195e+00 3.895e+00 -1.767e-03 2.688e-02 -2.573e-02
81 1 3.512e-01 5.667e+00 5.663e+00 -1.139e-03 -1.694e-03 1.973e-03
82 1 3.898e+00 5.666e+00 5.663e+00 -5.079e-05 5.347e-04 5.790e-04
83 1 7.435e+00 5.673e+00 5.654e+00 5.964e-04 1.207e-02 -1.042e-02
84 1 2.124e+00 7.437e+00 5.666e+00 -8.581e-04 5.857e-04 -6.708e-04
85 1 3.513e-01 9.203e+00 5.662e+00 -2.210e-03 1.870e-02 -1.768e-02
86 1 5.673e+00 7.435e+00 5.655e+00 -6.915e-03 1.834e-02 -8.136e-03
87 1 3.898e+00 9.201e+00 5.664e+00 9.906e-04 1.726e-02 -1.844e-02
88 1 9.196e+00 7.434e+00 5.653e+00 8.062e-03 1.817e-02 -1.002e-02
89 1 7.435e+00 9.195e+00 5.654e+00 -1.601e-03 2.530e-02 2.583e-03
90 1 2.124e+00 5.665e+00 7.432e+00 1.292e-03 -2.593e-04 4.570e-04
91 1 3.539e-01 5.666e+00 9.204e+00 6.381e-04 6.826e-05 -1.311e-04
92 1 5.667e+00 5.666e+00 7.431e+00 2.739e-04 1.178e-03 5.452e-04
93 1 3.894e+00 5.666e+00 9.205e+00 -1.437e-03 -7.327e-05 -9.841e-04
94 1 9.202e+00 5.666e+00 7.431e+00 -5.731e-04 7.421e-04 -3.086e-04
95 1 7.435e+00 5.661e+00 9.203e+00 -1.129e-03 1.890e-02 -1.376e-02
96 1 3.496e-01 7.436e+00 7.433e+00 3.917e-04 1.168e-03 2.721e-04
97 1 2.123e+00 9.205e+00 7.434e+00 8.317e-04 -1.922e-04 3.119e-04
98 1 2.124e+00 7.433e+00 9.203e+00 -1.078e-03 -1.331e-03 -1.610e-03
99 1 3.521e-01 9.203e+00 9.205e+00 -3.278e-03 1.723e-02 -1.258e-02
100 1 3.897e+00 7.434e+00 7.432e+00 6.688e-04 3.182e-04 -5.310e-04
101 1 5.664e+00 9.203e+00 7.431e+00 -1.445e-03 1.841e-02 -1.402e-02
102 1 5.661e+00 7.434e+00 9.204e+00 5.156e-03 1.894e-02 -1.255e-02
103 1 3.893e+00 9.202e+00 9.203e+00 3.609e-03 1.540e-02 -1.493e-02
104 1 7.434e+00 7.434e+00 7.443e+00 6.100e-04 1.561e-02 -2.608e-02
105 1 9.203e+00 9.201e+00 7.432e+00 3.726e-03 1.961e-02 -1.486e-02
106 1 9.206e+00 7.435e+00 9.205e+00 -3.199e-03 1.641e-02 -1.465e-02
107 1 7.433e+00 9.205e+00 9.203e+00 2.573e-04 1.470e-02 -2.684e-02