ITEM: TIMESTEP
0
ITEM: NUMBER OF ATOMS
47
ITEM: BOX BOUNDS xy xz yz pp pp pp
                     0.00000000000000e+00 1.06000000000000e+01 0.00000000000000e+00
0.00000000000000e+00	1.06000000000000e+01	0.00000000000000e+00
0.00000000000000e+00	1.06000000000000e+01	0.00000000000000e+00
ITEM: ATOMS id type x y z DisplacementX DisplacementY DisplacementZ
1 1 3.428e+00 2.518e-02 -3.254e+00 9.802e-02 -1.542e-02 5.739e-02
2 1 1.706e+00 1.842e+00 3.585e+00 -2.706e-01 -1.124e-01 -1.722e-01
3 1 -3.530e+00 -1.781e+00 -1.939e+00 1.194e-02 -7.056e-02 5.783e-02
4 1 -3.531e+00 1.844e+00 -1.699e+00 -2.432e-01 -2.272e-02 -1.821e-01
5 1 1.691e+00 -1.689e+00 3.463e+00 -6.768e-02 1.284e-01 1.119e-01
6 1 3.494e+00 3.592e+00 9.451e-02 -1.644e-02 -2.443e-01 -5.365e-02
7 1 4.589e-02 -3.625e+00 -3.384e+00 -3.934e-02 4.670e-02 -7.492e-02
8 1 1.185e-01 3.440e+00 -3.517e+00 -4.457e-02 -1.180e-01 -6.250e-02
9 1 3.609e+00 -3.415e+00 -1.431e-01 -2.057e-02 2.954e-02 1.457e-01
10 1 -3.553e+00 -1.729e+00 1.869e+00 1.354e-01 -3.498e-02 1.328e-01
11 1 -3.451e+00 1.767e+00 1.789e+00 -6.678e-02 4.689e-02 1.642e-01
12 1 -1.806e+00 -1.774e+00 3.639e+00 1.349e-01 -5.792e-02 -1.285e-01
13 1 -1.901e+00 1.729e+00 3.520e+00 -2.385e-01 -7.905e-02 -1.120e-01
14 1 -1.917e+00 -3.587e+00 1.756e+00 -1.203e-01 4.338e-02 1.335e-01
15 1 -1.528e+00 3.574e+00 1.963e+00 1.532e-01 -1.051e-01 2.480e-03
16 1 1.889e+00 -1.653e+00 -3.373e+00 -2.061e-01 4.548e-02 -3.262e-02
17 1 1.799e+00 1.712e+00 -3.645e+00 8.549e-03 4.178e-02 7.126e-02
18 1 3.566e+00 -1.514e+00 -1.762e+00 -4.927e-02 -7.881e-02 7.571e-02
19 1 3.494e+00 1.650e+00 -1.706e+00 1.176e-02 9.800e-02 9.835e-02
20 1 1.594e+00 3.507e+00 1.806e+00 3.325e-02 -1.780e-01 8.357e-02
21 1 -1.836e+00 -3.471e+00 -1.826e+00 -1.211e-01 1.767e-01 1.255e-01
22 1 1.589e+00 -3.412e+00 1.915e+00 -6.027e-02 1.219e-02 -2.039e-02
23 1 -1.835e+00 3.576e+00 -1.812e+00 5.819e-02 4.630e-03 -3.015e-02
24 1 3.535e+00 1.824e+00 1.827e+00 -5.297e-02 1.362e-01 -9.427e-02
25 1 -1.888e+00 -1.728e+00 -3.697e+00 1.945e-01 -2.755e-02 -7.460e-02
26 1 -1.857e+00 1.899e+00 -3.505e+00 -6.645e-02 -6.868e-02 -3.282e-02
27 1 3.476e+00 -1.737e+00 1.690e+00 8.432e-02 1.004e-01 7.954e-02
28 1 3.529e+00 -9.524e-02 -1.112e-02 -2.950e-03 1.584e-01 2.107e-02
29 1 4.791e-02 -1.836e-01 -3.559e+00 9.880e-02 -1.122e-01 -1.510e-01
30 1 1.765e+00 -3.629e+00 -1.683e+00 -1.037e-01 -1.536e-01 1.112e-01
31 1 1.821e+00 3.631e+00 -1.680e+00 4.658e-02 -8.310e-02 -1.183e-01
32 1 -1.265e-01 3.572e+00 -3.085e-02 1.378e-01 -1.154e-01 -1.968e-02
33 1 -1.042e-01 -3.542e+00 5.999e-02 1.513e-01 -7.912e-02 -3.665e-02
34 1 8.202e-02 -8.979e-02 3.534e+00 1.029e-01 -2.552e-01 -4.668e-02
35 1 -3.690e+00 -9.317e-02 2.964e-02 1.185e-01 6.723e-02 -5.787e-03
36 1 -1.301e-01 -2.916e-02 3.759e-02 1.636e+00 1.564e-01 -1.509e+00
37 1 1.722e+00 1.749e+00 -2.952e-02 -1.042e-01 5.866e-02 -5.971e-02
38 1 -1.178e-01 -1.583e+00 -2.024e+00 -1.379e-01 7.158e-02 1.892e-01
39 1 -1.118e-01 1.681e+00 -1.589e+00 4.626e-02 -1.185e-01 3.431e-02
40 1 1.802e+00 -1.845e+00 1.408e-01 -7.109e-02 2.828e-02 4.126e-02
41 1 1.705e+00 -1.155e-01 1.788e+00 -2.649e-01 -5.888e-02 1.102e-01
42 1 -2.054e+00 -2.189e-02 -1.635e+00 -8.639e-02 -1.055e-01 -1.221e-02
43 1 -1.003e-01 1.888e+00 1.717e+00 -1.129e-01 1.228e-02 5.806e-02
44 1 -1.781e+00 -1.645e+00 1.396e-01 -2.290e-01 -5.580e-02 3.038e-02
45 1 9.725e-02 -1.771e+00 1.767e+00 1.368e-02 -5.604e-03 -3.687e-02
46 1 -1.956e+00 1.599e+00 -6.219e-02 5.459e-02 9.612e-02 -1.195e-01
47 1 -1.852e+00 -6.817e-02 1.995e+00 -1.117e-01 -9.538e-02 6.915e-02
ITEM: TIMESTEP
0
ITEM: NUMBER OF ATOMS
47
ITEM: BOX BOUNDS xy xz yz pp pp pp
                     0.00000000000000e+00 1.06000000000000e+01 0.00000000000000e+00
0.00000000000000e+00	1.06000000000000e+01	0.00000000000000e+00
0.00000000000000e+00	1.06000000000000e+01	0.00000000000000e+00
ITEM: ATOMS id type x y z DisplacementX DisplacementY DisplacementZ
48 1 -3.930e-02 3.386e+00 -3.324e+00 9.590e-02 1.558e-02 -8.003e-03
49 1 -1.760e+00 1.585e+00 3.666e+00 -2.701e-03 1.671e-01 5.021e-02
50 1 1.672e+00 -3.579e+00 -1.667e+00 -1.059e-01 -2.502e-02 1.011e-01
51 1 -1.739e+00 -3.654e+00 -1.745e+00 -5.802e-02 -2.787e-02 9.781e-02
52 1 1.777e+00 1.765e+00 3.665e+00 2.962e-02 -1.194e-02 1.100e-01
53 1 -3.534e+00 3.516e+00 1.144e-01 4.829e-02 -6.437e-03 -6.893e-02
54 1 3.533e+00 4.559e-03 -3.580e+00 8.361e-02 -6.809e-02 -5.017e-02
55 1 -3.484e+00 -6.776e-02 -3.548e+00 -9.653e-02 -5.251e-02 -6.437e-02
56 1 3.474e+00 3.531e+00 2.261e-01 1.569e-03 6.384e-03 8.768e-02
57 1 1.669e+00 -3.414e+00 2.009e+00 5.788e-02 -7.318e-02 1.499e-01
58 1 -1.852e+00 -3.581e+00 1.712e+00 1.155e-01 -9.319e-02 3.679e-02
59 1 1.836e+00 -1.734e+00 3.493e+00 -1.079e-02 -5.879e-02 4.959e-02
60 1 -1.643e+00 -1.644e+00 3.506e+00 7.901e-02 9.908e-03 -1.429e-02
61 1 3.579e+00 -1.849e+00 1.921e+00 1.759e-01 -3.864e-02 -4.647e-02
62 1 -3.653e+00 -1.807e+00 1.854e+00 -6.190e-02 -9.651e-02 1.699e-01
63 1 1.762e+00 1.698e+00 -3.382e+00 7.656e-02 6.338e-02 -1.460e-01
64 1 -1.670e+00 1.721e+00 -3.465e+00 4.282e-02 -1.543e-01 1.623e-02
65 1 1.636e+00 3.699e+00 -1.620e+00 -1.181e-01 -9.239e-04 1.048e-02
66 1 -1.729e+00 3.520e+00 -1.696e+00 3.429e-03 -8.567e-02 1.769e-01
67 1 -3.617e+00 1.683e+00 1.808e+00 1.723e-01 -1.565e-01 1.168e-01
68 1 3.547e+00 -1.794e+00 -1.875e+00 8.075e-02 -7.988e-02 -1.590e-01
69 1 3.530e+00 1.696e+00 1.664e+00 -2.002e-02 -1.328e-01 4.494e-02
70 1 -3.592e+00 -1.709e+00 -1.697e+00 -1.144e-01 1.778e-01 -1.901e-04
71 1 -1.754e+00 3.545e+00 1.841e+00 -1.235e-01 -1.711e-01 -1.185e-02
72 1 1.759e+00 -1.774e+00 -3.458e+00 -4.301e-02 1.584e-01 4.838e-02
73 1 -1.871e+00 -1.766e+00 -3.392e+00 -1.516e-03 1.121e-01 -1.089e-01
74 1 1.769e+00 3.593e+00 1.860e+00 -7.417e-02 -7.770e-02 6.840e-02
75 1 5.700e-02 3.520e+00 -4.883e-02 -4.196e-02 -3.952e-04 1.882e-01
76 1 -3.508e-02 -4.413e-02 -3.576e+00 8.338e-02 2.564e-02 -4.609e-02
77 1 3.638e+00 1.760e+00 -1.767e+00 2.122e-01 -2.216e-01 -2.024e-01
78 1 -3.617e+00 1.714e+00 -1.885e+00 4.905e-02 2.383e-01 -8.854e-02
79 1 -3.555e+00 -8.541e-03 1.082e-01 -1.629e-02 -1.571e-02 3.654e-02
80 1 3.462e+00 -7.616e-03 -6.167e-02 -1.580e-01 9.158e-03 -1.729e-03
81 1 -6.258e-02 1.481e-01 3.429e+00 -2.888e-02 -1.090e-01 1.568e-03
82 1 -1.830e-01 -3.605e+00 -2.174e-01 1.136e-01 3.917e-02 6.358e-02
83 1 -1.538e-02 -8.324e-02 -1.177e-01 -9.314e-02 1.659e+00 -1.743e+00
84 1 -1.703e+00 1.732e+00 -9.355e-02 -1.464e-01 -2.491e-02 1.402e-01
85 1 1.857e+00 9.894e-02 -1.654e+00 -1.597e-01 -1.214e-01 -3.514e-02
86 1 -1.694e+00 1.743e-01 -1.825e+00 -1.022e-01 -9.364e-02 -7.880e-03
87 1 1.667e+00 1.689e+00 -1.457e-01 -1.402e-01 1.351e-01 -1.981e-02
88 1 1.254e-02 1.665e+00 1.662e+00 -1.471e-01 -1.174e-01 -5.591e-02
89 1 -1.612e-01 -1.940e+00 -1.762e+00 -1.225e-01 -1.704e-01 -6.288e-02
90 1 -1.867e+00 1.238e-01 1.884e+00 -3.214e-02 -2.166e-01 -2.070e-01
91 1 1.854e+00 -1.846e+00 -2.360e-01 -5.743e-02 7.810e-03 3.756e-02
92 1 1.798e+00 -8.341e-03 1.861e+00 5.202e-02 -2.686e-01 4.760e-02
93 1 -1.714e+00 -1.856e+00 4.407e-02 -1.627e-01 1.404e-01 1.616e-02
94 1 3.897e-02 -1.918e+00 1.980e+00 1.986e-02 3.759e-03 2.144e-02
ITEM: TIMESTEP
0
ITEM: NUMBER OF ATOMS
47
ITEM: BOX BOUNDS xy xz yz pp pp pp
                     0.00000000000000e+00 1.06000000000000e+01 0.00000000000000e+00
0.00000000000000e+00	1.06000000000000e+01	0.00000000000000e+00
0.00000000000000e+00	1.06000000000000e+01	0.00000000000000e+00
ITEM: ATOMS id type x y z DisplacementX DisplacementY DisplacementZ
95 1 -3.658e+00 1.365e-01 -3.446e+00 6.538e-02 -8.782e-02 -3.795e-02
96 1 -1.845e+00 1.765e+00 3.629e+00 2.331e-01 -1.608e-01 9.877e-02
97 1 3.675e+00 -1.713e+00 -1.605e+00 -1.557e-01 -2.059e-01 1.695e-01
98 1 3.564e+00 1.707e+00 -1.599e+00 1.350e-01 1.305e-01 5.245e-02
99 1 -1.916e+00 -1.780e+00 3.636e+00 8.438e-02 -6.090e-02 -2.225e-02
100 1 -3.685e+00 3.514e+00 -6.907e-02 5.142e-03 1.047e-01 -5.599e-02
101 1 1.517e-02 -3.391e+00 -3.329e+00 8.911e-02 -1.313e-02 7.440e-02
102 1 1.457e-01 3.438e+00 -3.490e+00 1.166e-01 2.637e-02 3.302e-03
103 1 -3.598e+00 -3.403e+00 1.868e-01 7.703e-02 -7.534e-02 1.176e-01
104 1 3.567e+00 -1.643e+00 1.762e+00 -1.617e-01 -1.232e-03 1.785e-02
105 1 3.524e+00 1.813e+00 1.669e+00 7.621e-02 2.249e-02 -4.627e-03
106 1 1.785e+00 -1.747e+00 3.486e+00 8.898e-02 6.457e-02 1.977e-02
107 1 1.864e+00 1.831e+00 3.464e+00 -2.653e-02 1.007e-01 4.432e-02
108 1 1.782e+00 -3.636e+00 1.869e+00 -1.421e-01 1.461e-02 2.190e-01
109 1 1.780e+00 3.498e+00 1.699e+00 2.003e-01 1.388e-01 -5.688e-03
110 1 -1.790e+00 -1.699e+00 -3.565e+00 -8.515e-02 7.435e-02 1.802e-02
111 1 -1.816e+00 1.936e+00 -3.580e+00 1.966e-01 4.433e-02 9.103e-02
112 1 -3.441e+00 -1.644e+00 -1.733e+00 1.132e-01 -1.406e-01 4.170e-02
113 1 -3.513e+00 1.778e+00 -1.820e+00 1.533e-01 -3.683e-02 9.688e-02
114 1 -1.802e+00 3.379e+00 1.732e+00 -2.084e-02 1.280e-01 -1.614e-01
115 1 1.799e+00 -3.566e+00 -1.800e+00 -3.396e-02 6.256e-02 -1.799e-01
116 1 -1.813e+00 -3.564e+00 1.770e+00 -6.942e-02 -1.150e-01 -6.477e-02
117 1 1.846e+00 3.565e+00 -1.634e+00 7.173e-02 -2.402e-01 -4.582e-02
118 1 -3.526e+00 1.744e+00 1.562e+00 4.830e-02 9.815e-02 1.619e-01
119 1 1.787e+00 -1.745e+00 -3.633e+00 7.008e-02 3.935e-03 -7.154e-02
120 1 1.726e+00 1.723e+00 -3.455e+00 -1.993e-01 -6.002e-02 5.649e-02
121 1 -3.391e+00 -1.843e+00 1.845e+00 1.091e-01 -7.260e-03 1.639e-02
122 1 -3.597e+00 4.446e-02 -1.182e-01 4.122e-02 -7.522e-02 -6.853e-02
123 1 2.379e-03 -4.653e-02 -3.521e+00 -1.316e-01 -2.332e-02 6.588e-02
124 1 -1.631e+00 -3.402e+00 -1.781e+00 -1.240e-01 1.510e-01 2.574e-02
125 1 -1.682e+00 3.612e+00 -1.637e+00 1.006e-01 1.167e-01 -1.813e-02
126 1 1.362e-01 3.446e+00 1.264e-01 5.274e-02 7.080e-02 -4.361e-02
127 1 1.899e-02 -3.702e+00 -5.308e-03 1.424e-01 -5.543e-02 8.201e-02
128 1 1.393e-01 6.790e-02 3.492e+00 5.240e-02 -4.166e-02 -1.018e-01
129 1 3.621e+00 -9.715e-02 5.283e-02 2.498e-02 -4.684e-02 7.588e-02
130 1 7.439e-02 2.616e-02 -1.407e-02 -1.726e+00 4.157e-03 -1.786e+00
131 1 -1.823e+00 1.742e+00 2.031e-01 -3.361e-02 -1.435e-02 -3.513e-02
132 1 -1.381e-02 -1.837e+00 -1.847e+00 5.566e-02 -1.267e-01 -1.203e-02
133 1 -2.486e-02 1.722e+00 -1.724e+00 2.653e-02 5.539e-02 -8.656e-02
134 1 -1.809e+00 -1.689e+00 1.106e-01 5.019e-02 -5.342e-03 -1.508e-02
135 1 -1.756e+00 7.984e-02 1.786e+00 3.367e-03 -2.002e-01 -2.882e-02
136 1 1.917e+00 -1.032e-01 -1.736e+00 -2.007e-01 1.693e-02 1.474e-01
137 1 -1.452e-01 1.858e+00 1.741e+00 -1.619e-02 9.307e-04 1.307e-01
138 1 1.909e+00 -1.910e+00 3.930e-02 8.947e-02 7.666e-02 6.098e-02
139 1 2.696e-02 -1.814e+00 1.655e+00 8.745e-02 1.448e-01 6.824e-02
140 1 1.775e+00 1.815e+00 1.139e-02 -1.412e-01 -1.912e-01 -1.181e-01
141 1 1.875e+00 5.081e-02 1.798e+00 4.565e-02 -1.438e-01 -1.109e-01
ITEM: TIMESTEP
0
ITEM: NUMBER OF ATOMS
47
ITEM: BOX BOUNDS xy xz yz pp pp pp
                     0.00000000000000e+00 1.06000000000000e+01 0.00000000000000e+00
0.00000000000000e+00	1.06000000000000e+01	0.00000000000000e+00
0.00000000000000e+00	1.06000000000000e+01	0.00000000000000e+00
ITEM: ATOMS id type x y z DisplacementX DisplacementY DisplacementZ
142 1 4.525e-03 -3.530e+00 -3.574e+00 1.250e-01 1.933e-01 1.165e-01
143 1 -1.831e+00 -1.690e+00 3.549e+00 7.469e-02 1.904e-01 4.025e-02
144 1 1.691e+00 3.593e+00 -1.867e+00 -1.468e-01 -2.218e-02 -1.483e-02
145 1 -1.803e+00 3.592e+00 -1.551e+00 -8.307e-02 -2.383e-01 4.910e-02
146 1 1.912e+00 -1.940e+00 3.538e+00 -1.307e-01 -7.283e-02 -5.820e-02
147 1 -3.600e+00 -3.537e+00 -2.695e-02 -4.549e-02 -1.681e-02 9.208e-02
148 1 3.601e+00 1.626e-01 -3.456e+00 7.980e-02 -4.156e-02 -9.052e-03
149 1 -3.688e+00 3.053e-02 -3.360e+00 1.835e-01 -2.277e-02 -2.213e-02
150 1 3.712e+00 -3.516e+00 5.805e-02 -4.394e-02 -1.430e-01 8.560e-02
151 1 1.820e+00 3.452e+00 1.802e+00 -1.394e-01 -1.129e-01 -1.404e-01
152 1 -1.684e+00 3.482e+00 1.723e+00 7.627e-02 1.102e-01 5.642e-03
153 1 1.786e+00 1.830e+00 3.638e+00 3.056e-02 -2.004e-02 5.936e-02
154 1 -1.894e+00 1.707e+00 3.571e+00 5.721e-02 -4.472e-02 7.885e-02
155 1 3.437e+00 1.826e+00 1.854e+00 -6.621e-02 5.968e-03 9.235e-02
156 1 -3.532e+00 1.882e+00 1.913e+00 4.894e-02 5.752e-02 3.394e-02
157 1 1.759e+00 -1.719e+00 -3.518e+00 1.211e-01 8.628e-02 -1.084e-01
158 1 -1.776e+00 -1.668e+00 -3.542e+00 2.683e-01 -1.818e-01 -9.426e-02
159 1 1.892e+00 -3.496e+00 -1.839e+00 3.303e-02 7.992e-02 -1.285e-01
160 1 -1.616e+00 -3.419e+00 -1.646e+00 -9.731e-02 1.771e-01 3.074e-02
161 1 -3.456e+00 -1.647e+00 1.813e+00 -2.511e-02 1.036e-01 3.637e-02
162 1 3.611e+00 1.787e+00 -1.733e+00 3.631e-02 1.175e-01 6.374e-02
163 1 3.424e+00 -1.824e+00 1.749e+00 -1.211e-01 2.670e-02 -1.099e-01
164 1 -3.527e+00 1.858e+00 -1.829e+00 8.458e-03 8.194e-02 1.739e-01
165 1 -1.615e+00 -3.693e+00 1.670e+00 -3.662e-02 -1.634e-01 -5.848e-02
166 1 1.819e+00 1.936e+00 -3.643e+00 1.583e-01 -2.655e-02 3.277e-02
167 1 -1.784e+00 1.958e+00 -3.578e+00 -5.432e-02 -1.363e-01 5.254e-02
168 1 1.758e+00 -3.443e+00 1.850e+00 -6.737e-02 -8.120e-02 6.221e-02
169 1 5.754e-02 -3.376e+00 -1.725e-02 1.467e-01 5.834e-02 -9.459e-02
170 1 -1.894e-01 -4.712e-02 -3.650e+00 1.789e-01 1.008e-01 -4.961e-02
171 1 3.611e+00 -1.750e+00 -1.927e+00 -2.010e-02 9.603e-02 2.414e-01
172 1 -3.597e+00 -1.787e+00 -1.683e+00 1.048e-01 -1.092e-02 2.640e-02
173 1 -3.489e+00 1.400e-01 1.678e-01 -1.477e-02 -5.118e-02 -8.775e-02
174 1 3.605e+00 1.461e-02 -3.642e-02 -1.212e-02 -3.425e-02 -1.035e-01
175 1 -2.215e-01 1.492e-03 3.448e+00 4.578e-02 -1.315e-01 -1.248e-02
176 1 -1.091e-01 3.385e+00 3.385e-03 6.340e-02 3.827e-02 -3.773e-02
177 1 -3.414e-02 -9.549e-02 -6.040e-02 7.169e-03 -1.804e+00 -1.956e+00
178 1 -1.963e+00 -1.807e+00 8.452e-02 -4.242e-02 -4.454e-02 3.425e-02
179 1 1.711e+00 -1.490e-01 -1.694e+00 6.111e-03 -5.090e-02 2.858e-02
180 1 -1.764e+00 1.822e-01 -1.865e+00 -4.704e-02 1.152e-01 -5.006e-02
181 1 1.734e+00 -1.656e+00 -1.242e-01 2.038e-02 1.498e-01 5.740e-02
182 1 -1.174e-01 -2.034e+00 1.720e+00 -1.729e-01 1.100e-01 -2.004e-01
183 1 -6.425e-02 1.539e+00 -1.743e+00 -3.490e-01 1.465e-02 2.119e-01
184 1 -1.946e+00 -1.543e-02 1.621e+00 -4.307e-02 -4.870e-03 -3.961e-03
185 1 1.864e+00 1.848e+00 1.050e-01 1.107e-01 1.039e-01 4.457e-03
186 1 1.942e+00 -2.859e-02 1.900e+00 2.945e-02 6.860e-02 3.930e-02
187 1 -1.750e+00 1.741e+00 -4.215e-02 -1.413e-01 -1.778e-01 9.164e-02
188 1 2.237e-02 1.586e+00 1.652e+00 -4.309e-03 -8.083e-03 7.163e-02
ITEM: TIMESTEP
0
ITEM: NUMBER OF ATOMS
47
ITEM: BOX BOUNDS xy xz yz pp pp pp
                     0.00000000000000e+00 1.06000000000000e+01 0.00000000000000e+00
0.00000000000000e+00	1.06000000000000e+01	0.00000000000000e+00
0.00000000000000e+00	1.06000000000000e+01	0.00000000000000e+00
ITEM: ATOMS id type x y z DisplacementX DisplacementY DisplacementZ
189 1 3.602e+00 3.161e-02 3.540e+00 -1.056e-01 -2.054e-01 -1.354e-01
190 1 -3.578e+00 1.688e+00 1.708e+00 -9.501e-02 3.135e-02 -7.444e-02
191 1 1.871e+00 -1.644e+00 -3.582e+00 -1.918e-01 1.327e-02 -1.611e-01
192 1 1.633e+00 1.755e+00 -3.452e+00 -1.238e-01 -1.025e-01 -5.349e-02
193 1 -3.697e+00 -1.796e+00 1.742e+00 -8.415e-02 -5.766e-02 6.164e-02
194 1 -4.363e-02 3.539e+00 3.480e+00 -9.857e-02 3.229e-02 -2.711e-02
195 1 3.675e+00 -3.573e+00 -2.437e-01 1.017e-01 2.152e-02 3.234e-02
196 1 3.539e+00 3.505e+00 8.567e-02 -2.375e-02 1.078e-02 -1.378e-01
197 1 -9.520e-02 -3.608e+00 3.454e+00 -1.802e-01 5.521e-02 -1.107e-01
198 1 -1.719e+00 -1.609e+00 -3.497e+00 5.196e-02 -7.120e-02 1.919e-02
199 1 -1.998e+00 1.767e+00 -3.679e+00 -1.662e-02 1.709e-03 -5.954e-02
200 1 -3.652e+00 -1.610e+00 -1.703e+00 -2.314e-02 3.999e-02 -4.530e-02
201 1 -3.655e+00 1.848e+00 -1.944e+00 7.684e-03 -1.431e-01 5.045e-02
202 1 -1.818e+00 -3.578e+00 -1.776e+00 1.323e-01 -1.067e-01 -7.400e-02
203 1 -1.907e+00 3.421e+00 -1.768e+00 7.947e-03 4.684e-03 -2.235e-01
204 1 3.490e+00 -1.724e+00 1.904e+00 -8.850e-02 2.468e-01 7.879e-02
205 1 3.686e+00 1.923e+00 1.688e+00 -1.710e-01 8.148e-02 5.114e-03
206 1 1.779e+00 -1.833e+00 3.451e+00 -1.649e-01 -2.782e-02 9.902e-02
207 1 1.857e+00 1.745e+00 3.485e+00 7.227e-03 2.037e-02 3.530e-03
208 1 -1.630e+00 3.527e+00 1.760e+00 4.133e-02 -8.483e-02 6.622e-02
209 1 1.688e+00 -3.611e+00 -1.800e+00 2.453e-01 5.914e-02 3.252e-03
210 1 -1.814e+00 -3.402e+00 1.645e+00 2.207e-02 1.398e-01 -3.921e-02
211 1 1.717e+00 3.618e+00 -1.883e+00 -1.259e-01 4.342e-02 3.168e-02
212 1 -1.908e+00 1.792e+00 3.539e+00 5.303e-02 -1.234e-01 -4.047e-02
213 1 3.505e+00 -1.801e+00 -1.617e+00 -8.250e-02 -1.113e-01 -5.977e-02
214 1 3.484e+00 1.660e+00 -1.803e+00 -3.884e-02 9.681e-03 -4.844e-02
215 1 -1.773e+00 -1.904e+00 3.616e+00 -9.419e-03 9.094e-02 -3.837e-02
216 1 1.790e-02 -2.401e-01 3.554e+00 1.667e-01 -4.636e-02 9.647e-02
217 1 3.602e+00 1.214e-01 1.356e-02 9.183e-02 -3.146e-02 9.894e-02
218 1 1.849e+00 -3.666e+00 1.719e+00 -5.249e-02 6.841e-02 1.761e-01
219 1 1.757e+00 3.467e+00 1.938e+00 8.548e-02 -1.643e-02 1.015e-01
220 1 -9.059e-02 3.570e+00 1.095e-01 4.358e-03 2.428e-02 -1.550e-02
221 1 5.165e-03 -3.468e+00 -5.811e-02 4.214e-02 1.989e-01 1.658e-02
222 1 -3.535e+00 -8.543e-02 4.219e-03 7.181e-02 -1.266e-01 -9.684e-02
223 1 7.614e-02 -6.733e-02 -3.655e+00 -1.081e-01 -2.193e-02 -8.699e-02
224 1 -5.527e-02 9.661e-02 -3.919e-02 1.659e+00 9.676e-02 1.662e+00
225 1 8.099e-02 1.599e+00 1.807e+00 -3.134e-02 -1.699e-01 5.171e-02
226 1 1.768e+00 -1.844e+00 -1.039e-01 1.069e-01 8.025e-02 -3.275e-02
227 1 1.731e+00 1.721e+00 -1.340e-02 1.615e-01 -2.900e-02 2.702e-02
228 1 1.214e-01 -1.693e+00 1.527e+00 -1.014e-02 1.400e-01 4.360e-02
229 1 -1.892e+00 1.767e-02 1.887e+00 -4.532e-02 2.223e-02 -2.076e-01
230 1 1.690e+00 1.620e-01 -1.728e+00 -1.177e-01 2.795e-02 -4.612e-02
231 1 -1.729e+00 1.833e+00 -7.131e-02 1.332e-01 -2.961e-02 -1.351e-01
232 1 1.156e-01 -1.754e+00 -1.867e+00 -5.697e-02 1.561e-01 -6.208e-02
233 1 -1.752e+00 -1.698e+00 6.183e-02 6.744e-02 4.328e-02 -9.489e-02
234 1 -2.034e-02 1.826e+00 -1.688e+00 -1.561e-01 -5.870e-02 -9.223e-03
235 1 -1.698e+00 -9.191e-02 -1.742e+00 -1.964e-02 -1.345e-02 8.208e-02
ITEM: TIMESTEP
0
ITEM: NUMBER OF ATOMS
47
ITEM: BOX BOUNDS xy xz yz pp pp pp
                     0.00000000000000e+00 1.06000000000000e+01 0.00000000000000e+00
0.00000000000000e+00	1.06000000000000e+01	0.00000000000000e+00
0.00000000000000e+00	1.06000000000000e+01	0.00000000000000e+00
ITEM: ATOMS id type x y z DisplacementX DisplacementY DisplacementZ
236 1 3.455e+00 3.622e+00 4.396e-02 6.474e-02 -2.178e-02 1.101e-01
237 1 -3.633e+00 1.724e+00 1.609e+00 7.762e-02 4.284e-02 -4.431e-02
238 1 1.800e+00 -3.546e+00 -1.781e+00 1.185e-01 -8.917e-03 7.426e-02
239 1 1.879e+00 -3.478e+00 1.864e+00 -9.721e-03 2.389e-02 -1.592e-02
240 1 -3.711e+00 1.843e+00 -1.625e+00 3.879e-03 6.089e-02 -4.488e-02
241 1 -1.611e-01 3.689e+00 3.439e+00 -1.310e-01 -4.317e-02 5.221e-02
242 1 3.498e+00 -2.624e-02 -3.647e+00 1.995e-01 1.155e-01 1.112e-01
243 1 3.598e+00 -3.984e-02 3.571e+00 -3.034e-03 1.692e-02 -6.281e-02
244 1 1.369e-02 3.495e+00 -3.732e+00 -1.660e-01 -1.510e-02 -5.318e-03
245 1 -1.948e+00 -3.730e+00 -1.524e+00 -4.483e-03 -1.544e-01 -2.338e-02
246 1 -1.681e+00 -3.453e+00 1.750e+00 -7.999e-03 5.078e-02 3.794e-02
247 1 -3.600e+00 -1.721e+00 -1.866e+00 1.951e-01 3.484e-03 1.136e-02
248 1 -3.659e+00 -1.738e+00 1.721e+00 1.671e-01 3.298e-02 1.114e-01
249 1 -1.732e+00 -1.749e+00 -3.512e+00 -3.284e-02 1.132e-01 1.486e-01
250 1 -1.673e+00 -1.880e+00 3.607e+00 -1.068e-01 8.014e-03 2.385e-01
251 1 3.601e+00 1.827e+00 -1.777e+00 -8.349e-02 -2.487e-02 -8.206e-02
252 1 3.587e+00 1.733e+00 1.799e+00 7.735e-02 2.428e-02 5.175e-02
253 1 1.595e+00 3.530e+00 -1.804e+00 -4.253e-02 -2.092e-01 -7.410e-02
254 1 1.871e+00 3.606e+00 1.573e+00 -8.833e-02 1.164e-02 1.003e-01
255 1 -1.746e+00 1.596e+00 3.631e+00 -1.970e-01 7.590e-02 -1.394e-01
256 1 1.998e+00 -1.793e+00 -3.561e+00 -2.407e-02 9.992e-03 4.973e-03
257 1 -1.617e+00 1.806e+00 -3.419e+00 8.558e-02 6.450e-02 -2.888e-03
258 1 1.544e+00 -1.772e+00 3.518e+00 -6.305e-02 6.663e-03 -1.259e-02
259 1 -1.780e+00 3.588e+00 1.811e+00 2.616e-02 2.198e-01 -2.445e-02
260 1 3.579e+00 -1.661e+00 -1.739e+00 6.680e-02 1.607e-02 5.277e-02
261 1 3.320e+00 -1.814e+00 1.766e+00 1.392e-01 -1.017e-01 2.220e-02
262 1 -1.815e+00 3.623e+00 -1.547e+00 1.740e-02 -1.184e-01 9.959e-02
263 1 6.152e-02 3.603e+00 -2.193e-02 -1.712e-02 -6.707e-02 7.244e-02
264 1 3.445e+00 -1.175e-01 7.913e-02 9.509e-02 -1.297e-01 1.300e-01
265 1 1.702e+00 1.690e+00 -3.451e+00 -2.331e-01 1.228e-04 -2.627e-03
266 1 1.641e+00 1.818e+00 3.468e+00 -6.505e-02 1.275e-01 1.812e-02
267 1 -2.149e-02 1.690e-01 3.424e+00 -1.161e-01 -6.200e-02 -2.536e-02
268 1 -3.132e-02 6.339e-02 -3.422e+00 1.006e-01 2.248e-02 -1.221e-01
269 1 -3.456e+00 6.463e-02 -2.753e-02 -2.550e-02 -2.801e-03 -2.797e-03
270 1 5.238e-02 -3.486e+00 -4.956e-02 -1.170e-02 -1.632e-02 1.523e-01
271 1 8.431e-03 -4.853e-02 1.050e-02 1.746e+00 1.537e+00 1.289e-01
272 1 -1.492e-01 1.829e+00 1.812e+00 -1.977e-01 -3.974e-02 2.561e-02
273 1 1.738e+00 1.648e-01 -1.571e+00 3.324e-02 8.582e-02 2.440e-01
274 1 1.759e+00 -2.204e-02 1.846e+00 1.300e-01 -3.339e-02 1.368e-01
275 1 1.877e-02 1.784e+00 -1.725e+00 1.967e-01 8.422e-02 -2.250e-01
276 1 -1.659e+00 1.763e+00 -1.657e-01 4.196e-02 -1.896e-01 -6.248e-02
277 1 1.884e+00 -1.963e+00 -6.382e-02 2.933e-02 1.264e-01 1.189e-02
278 1 -1.779e+00 1.126e-01 1.694e+00 -3.465e-02 1.550e-02 1.297e-01
279 1 -4.199e-02 -1.801e+00 -1.479e+00 -2.226e-01 1.518e-01 1.482e-01
280 1 -1.924e+00 1.144e-01 -1.787e+00 -5.025e-02 -8.324e-02 1.688e-01
281 1 5.167e-02 -1.665e+00 1.769e+00 -8.201e-02 -1.017e-01 -1.698e-01
282 1 -1.733e+00 -1.739e+00 -3.298e-02 8.918e-02 -7.734e-02 -2.120e-02
ITEM: TIMESTEP
0
ITEM: NUMBER OF ATOMS
47
ITEM: BOX BOUNDS xy xz yz pp pp pp
                     0.00000000000000e+00 1.06000000000000e+01 0.00000000000000e+00
0.00000000000000e+00	1.06000000000000e+01	0.00000000000000e+00
0.00000000000000e+00	1.06000000000000e+01	0.00000000000000e+00
ITEM: ATOMS id type x y z DisplacementX DisplacementY DisplacementZ
283 1 -1.508e-01 3.426e+00 3.478e+00 -1.008e-01 -3.826e-02 8.334e-02
284 1 1.743e+00 -3.524e+00 1.850e+00 9.779e-02 9.994e-02 -1.130e-01
285 1 -1.712e+00 1.711e+00 -3.654e+00 2.421e-02 6.599e-02 9.080e-02
286 1 1.775e+00 1.604e+00 -3.656e+00 7.616e-02 1.526e-01 -9.866e-02
287 1 -1.650e+00 -3.714e+00 1.759e+00 7.885e-02 -8.185e-02 -1.199e-01
288 1 3.482e+00 -4.764e-02 3.449e+00 1.749e-02 3.818e-02 3.567e-02
289 1 -3.634e+00 3.425e+00 4.974e-02 -1.666e-01 2.928e-02 1.406e-01
290 1 3.368e+00 3.460e+00 2.277e-02 -1.056e-01 -2.811e-02 -1.253e-01
291 1 -3.553e+00 -1.602e-01 3.496e+00 -4.832e-02 -6.520e-02 7.399e-02
292 1 -1.566e+00 -1.704e+00 -3.622e+00 -6.201e-02 1.245e-01 -1.782e-02
293 1 1.830e+00 -1.665e+00 -3.625e+00 8.056e-02 -5.606e-02 -1.371e-01
294 1 -1.800e+00 -3.652e+00 -1.815e+00 -1.418e-01 3.240e-02 -2.142e-01
295 1 1.759e+00 -3.580e+00 -1.874e+00 -1.011e-01 6.571e-03 -2.159e-02
296 1 -3.486e+00 -1.650e+00 -1.600e+00 -1.230e-01 -4.846e-02 1.481e-01
297 1 3.525e+00 -1.861e+00 -1.986e+00 -9.070e-04 1.462e-01 -1.207e-02
298 1 -1.737e+00 3.511e+00 1.814e+00 9.272e-02 8.136e-02 -1.551e-02
299 1 1.744e+00 3.536e+00 1.808e+00 -6.708e-02 3.423e-02 -1.399e-01
300 1 -1.663e+00 1.805e+00 3.456e+00 1.041e-01 2.834e-02 6.857e-02
301 1 1.869e+00 1.665e+00 3.793e+00 2.082e-02 -3.523e-02 -9.205e-02
302 1 3.505e+00 -1.639e+00 1.837e+00 3.954e-02 -2.035e-02 1.521e-01
303 1 -3.542e+00 1.627e+00 -1.780e+00 5.662e-02 1.176e-01 -1.490e-01
304 1 -3.746e+00 -1.799e+00 1.759e+00 -1.578e-02 -1.036e-01 3.933e-02
305 1 3.495e+00 1.612e+00 -1.826e+00 5.666e-02 -5.139e-02 -1.406e-01
306 1 1.737e+00 -1.701e+00 3.625e+00 8.019e-02 -1.115e-02 -1.100e-01
307 1 -1.625e+00 3.403e+00 -1.674e+00 -1.319e-01 -3.964e-02 -1.859e-02
308 1 1.852e+00 3.458e+00 -1.605e+00 1.528e-01 -5.556e-02 -2.361e-01
309 1 -1.740e+00 -1.694e+00 3.504e+00 4.999e-02 -1.507e-01 9.775e-02
310 1 -1.163e-01 2.596e-02 3.444e+00 -1.859e-01 2.741e-02 -2.824e-02
311 1 -2.022e-02 3.582e+00 4.231e-02 -1.495e-01 3.399e-02 7.657e-02
312 1 -3.587e+00 1.621e+00 1.785e+00 9.558e-02 -3.300e-02 2.286e-02
313 1 3.633e+00 1.734e+00 1.675e+00 4.463e-02 1.076e-01 8.096e-02
314 1 3.486e+00 9.236e-02 4.685e-02 6.293e-02 -2.610e-02 -6.362e-02
315 1 -3.462e+00 -1.001e-01 -1.207e-01 3.698e-02 -4.556e-02 -7.723e-02
316 1 -7.893e-03 -3.273e+00 -2.286e-01 -1.340e-01 7.068e-03 4.197e-02
317 1 6.926e-02 -9.885e-02 -3.588e+00 -2.252e-01 -1.263e-01 -9.128e-02
318 1 2.194e-01 1.786e-01 4.246e-02 1.046e-02 1.669e+00 1.748e+00
319 1 1.772e+00 -1.700e-01 1.748e+00 -4.108e-02 -7.755e-02 -9.480e-02
320 1 -1.699e+00 1.838e+00 -1.969e-02 3.038e-01 3.993e-02 8.416e-02
321 1 1.807e+00 1.798e+00 -1.151e-01 4.332e-03 8.009e-04 4.864e-02
322 1 -1.679e+00 2.238e-02 1.782e+00 3.334e-02 -1.182e-01 -1.797e-02
323 1 7.232e-02 -1.788e+00 1.871e+00 -1.068e-02 -1.505e-01 -5.066e-02
324 1 2.136e-02 1.788e+00 -1.917e+00 1.664e-02 -2.814e-02 5.643e-02
325 1 2.017e+00 -1.749e+00 4.643e-02 4.158e-02 -4.385e-02 2.467e-02
326 1 -1.755e+00 6.433e-02 -1.804e+00 3.035e-02 2.978e-02 7.445e-02
327 1 -1.756e+00 -1.737e+00 1.145e-01 9.852e-02 2.859e-01 -2.216e-01
328 1 1.811e+00 7.939e-02 -1.738e+00 3.994e-02 1.161e-01 5.891e-02
329 1 -3.149e-02 -1.833e+00 -1.840e+00 8.922e-03 5.806e-02 5.822e-02
ITEM: TIMESTEP
0
ITEM: NUMBER OF ATOMS
47
ITEM: BOX BOUNDS xy xz yz pp pp pp
                     0.00000000000000e+00 1.06000000000000e+01 0.00000000000000e+00
0.00000000000000e+00	1.06000000000000e+01	0.00000000000000e+00
0.00000000000000e+00	1.06000000000000e+01	0.00000000000000e+00
ITEM: ATOMS id type x y z DisplacementX DisplacementY DisplacementZ
330 1 -3.591e+00 -6.287e-02 3.626e+00 -3.104e-03 3.715e-02 8.334e-02
331 1 3.710e+00 1.623e+00 1.709e+00 -2.942e-02 7.927e-02 -1.087e-01
332 1 -1.821e+00 -1.789e+00 -3.432e+00 -1.042e-02 -1.227e-01 -1.829e-01
333 1 -1.602e+00 1.835e+00 -3.442e+00 3.649e-02 -7.509e-02 -3.863e-02
334 1 3.520e+00 -1.783e+00 1.621e+00 9.731e-02 3.863e-03 -9.793e-02
335 1 -6.340e-03 3.492e+00 3.535e+00 2.296e-01 8.504e-02 3.945e-02
336 1 -3.556e+00 -3.465e+00 -1.776e-01 4.949e-02 -1.761e-02 -8.425e-02
337 1 -3.439e+00 3.467e+00 1.020e-02 -7.950e-02 5.306e-02 -1.502e-01
338 1 -9.394e-02 -3.758e+00 3.775e+00 6.374e-02 3.715e-02 -4.775e-02
339 1 1.838e+00 -1.591e+00 -3.630e+00 -2.951e-02 4.761e-02 -1.230e-01
340 1 1.791e+00 1.762e+00 -3.552e+00 -1.112e-02 -1.077e-01 -6.467e-02
341 1 3.577e+00 -1.757e+00 -1.689e+00 -1.053e-02 -6.002e-02 -6.144e-02
342 1 3.529e+00 1.696e+00 -1.747e+00 -1.572e-01 5.481e-02 1.497e-01
343 1 1.649e+00 -3.356e+00 -1.900e+00 1.766e-02 -6.277e-02 4.309e-02
344 1 2.010e+00 3.541e+00 -1.737e+00 2.259e-03 4.363e-02 -1.504e-02
345 1 -3.440e+00 -1.798e+00 1.679e+00 2.893e-02 9.218e-03 2.804e-02
346 1 -3.685e+00 1.797e+00 1.716e+00 -5.059e-03 -3.375e-02 -1.456e-01
347 1 -1.721e+00 -1.725e+00 3.436e+00 3.128e-02 2.314e-02 1.539e-02
348 1 -1.794e+00 1.776e+00 3.499e+00 -4.825e-03 -2.971e-02 -1.176e-01
349 1 1.651e+00 3.524e+00 1.709e+00 -2.714e-02 -7.522e-02 1.253e-01
350 1 -1.825e+00 -3.529e+00 -1.925e+00 -1.148e-02 1.353e-01 -9.268e-02
351 1 1.654e+00 -3.597e+00 1.722e+00 -5.148e-02 -7.352e-02 1.444e-01
352 1 -1.878e+00 3.590e+00 -1.701e+00 -6.296e-02 -2.472e-02 -1.354e-01
353 1 1.913e+00 1.782e+00 3.698e+00 -1.962e-03 5.971e-03 -1.300e-01
354 1 -3.461e+00 -1.631e+00 -1.787e+00 -4.196e-02 -5.437e-03 1.038e-01
355 1 -3.630e+00 1.769e+00 -1.994e+00 -4.102e-02 -1.062e-01 -1.021e-01
356 1 1.704e+00 -1.884e+00 3.492e+00 1.668e-01 -5.573e-02 -1.947e-03
357 1 -1.004e-01 -1.076e-01 3.553e+00 -1.263e-02 6.526e-02 -3.102e-02
358 1 -3.577e+00 1.332e-01 1.027e-02 -4.635e-02 7.916e-02 -5.832e-02
359 1 -1.661e+00 -3.689e+00 1.800e+00 8.771e-02 -3.061e-02 -6.632e-03
360 1 -1.864e+00 3.574e+00 1.697e+00 2.316e-02 1.479e-01 -9.038e-02
361 1 3.198e-02 3.473e+00 -1.509e-01 1.061e-03 -2.083e-01 -3.350e-02
362 1 -7.573e-02 -3.713e+00 -1.839e-01 7.521e-02 -5.824e-02 -5.471e-02
363 1 3.843e+00 3.937e-02 -1.029e-01 7.973e-02 -2.301e-02 -1.726e-01
364 1 3.144e-02 -3.595e-02 -3.544e+00 -6.983e-02 1.639e-01 1.135e-01
365 1 9.528e-03 -5.272e-02 6.442e-02 -1.725e+00 4.281e-02 1.717e+00
366 1 1.655e-01 1.688e+00 1.763e+00 -1.094e-01 -4.750e-02 -1.133e-01
367 1 -1.862e+00 -1.760e+00 9.196e-04 2.038e-02 5.567e-02 1.570e-02
368 1 -1.743e+00 1.648e+00 1.257e-01 -1.003e-01 5.143e-02 -4.352e-02
369 1 8.925e-02 -1.870e+00 1.717e+00 2.324e-01 -2.522e-01 4.148e-02
370 1 1.579e+00 5.620e-03 1.936e+00 1.624e-01 3.164e-02 -9.848e-02
371 1 -1.649e+00 -4.754e-02 -1.839e+00 8.292e-02 1.842e-01 1.311e-01
372 1 1.757e+00 1.721e+00 -1.184e-01 -3.580e-02 1.129e-02 -1.196e-03
373 1 -5.800e-02 -1.717e+00 -1.904e+00 6.757e-02 7.639e-02 -1.760e-01
374 1 1.744e+00 -1.821e+00 2.978e-02 -8.069e-02 6.049e-02 -2.396e-02
375 1 5.206e-02 1.765e+00 -1.845e+00 -8.934e-02 1.099e-02 1.179e-01
376 1 1.816e+00 -1.406e-01 -1.709e+00 4.527e-02 4.264e-02 1.508e-02
ITEM: TIMESTEP
0
ITEM: NUMBER OF ATOMS
47
ITEM: BOX BOUNDS xy xz yz pp pp pp
                     0.00000000000000e+00 1.06000000000000e+01 0.00000000000000e+00
0.00000000000000e+00	1.06000000000000e+01	0.00000000000000e+00
0.00000000000000e+00	1.06000000000000e+01	0.00000000000000e+00
ITEM: ATOMS id type x y z DisplacementX DisplacementY DisplacementZ
377 1 -3.533e+00 3.512e+00 -1.456e-01 -1.843e-01 2.697e-02 3.526e-02
378 1 3.552e+00 1.743e+00 -1.672e+00 1.224e-01 6.169e-02 -6.745e-02
379 1 -1.628e+00 -3.494e+00 1.725e+00 -1.256e-02 3.544e-02 9.562e-02
380 1 -1.823e+00 -3.595e+00 -1.788e+00 2.467e-01 1.244e-01 2.053e-01
381 1 3.707e+00 1.693e+00 1.735e+00 2.713e-01 7.219e-02 -9.364e-02
382 1 2.729e-02 3.648e+00 -3.552e+00 4.080e-02 -5.312e-02 -2.824e-01
383 1 -3.581e+00 -1.178e-01 3.564e+00 2.093e-01 -3.729e-02 -7.869e-02
384 1 -3.518e+00 3.168e-02 -3.531e+00 1.464e-01 -1.030e-01 4.670e-02
385 1 -3.100e-02 3.569e+00 3.544e+00 -1.412e-01 -7.736e-04 -8.561e-02
386 1 1.805e+00 -3.742e+00 1.910e+00 5.619e-02 -5.323e-02 -2.604e-02
387 1 1.895e+00 -3.662e+00 -1.681e+00 -3.083e-02 -1.726e-01 5.609e-02
388 1 3.506e+00 -1.845e+00 1.984e+00 6.356e-02 -4.757e-02 7.296e-02
389 1 3.288e+00 -1.764e+00 -1.850e+00 8.920e-02 -7.154e-02 8.998e-02
390 1 1.714e+00 -1.847e+00 3.568e+00 1.217e-01 2.738e-02 -2.278e-01