ITEM: TIMESTEP
0
ITEM: NUMBER OF ATOMS
99
ITEM: BOX BOUNDS xy xz yz pp pp pp
                     -5.00000000000000e-01 5.00000000000000e-01 0.00000000000000e+00
-5.00000000000000e-01	5.00000000000000e-01	0.00000000000000e+00
-5.00000000000000e-01	5.00000000000000e-01	0.00000000000000e+00
ITEM: ATOMS id type x y z DisplacementX DisplacementY DisplacementZ
1 1 -1.000e-01 2.000e-01 0.000e+00 1.099e-03 1.476e-03 -6.216e-04
2 1 0.000e+00 0.000e+00 0.000e+00 3.885e-04 9.973e-02 1.281e-04
3 1 -2.000e-01 2.000e-01 0.000e+00 2.156e-04 5.760e-05 1.790e-03
4 1 3.000e-01 4.000e-01 0.000e+00 1.580e-03 1.010e-03 9.337e-04
5 1 5.000e-01 -3.000e-01 0.000e+00 6.329e-04 1.775e-03 1.085e-03
6 1 2.000e-01 3.000e-01 0.000e+00 -8.053e-04 7.222e-04 4.842e-04
7 1 -1.000e-01 -2.000e-01 0.000e+00 -4.168e-04 -7.872e-05 -6.636e-04
8 1 3.000e-01 1.000e-01 0.000e+00 1.982e-03 1.499e-03 -1.595e-04
9 1 -1.000e-01 -4.000e-01 0.000e+00 -6.831e-04 1.834e-03 -1.836e-03
10 1 -2.000e-01 -1.000e-01 0.000e+00 1.564e-03 1.160e-03 9.584e-04
11 1 4.000e-01 2.000e-01 0.000e+00 5.304e-05 6.676e-04 1.075e-03
12 1 -2.000e-01 -4.000e-01 0.000e+00 -1.595e-04 -1.339e-03 -1.595e-03
13 1 1.000e-01 0.000e+00 0.000e+00 -1.638e-03 7.549e-05 -3.346e-03
14 1 5.000e-01 -4.000e-01 0.000e+00 1.683e-03 7.146e-05 -1.149e-03
15 1 4.000e-01 -1.000e-01 0.000e+00 1.967e-03 1.868e-03 4.608e-04
16 1 -4.000e-01 -2.000e-01 0.000e+00 1.927e-03 4.298e-04 1.685e-04
17 1 3.000e-01 3.000e-01 0.000e+00 4.065e-05 -5.280e-04 -9.868e-05
18 1 0.000e+00 -3.000e-01 0.000e+00 -9.987e-04 2.716e-03 1.242e-03
19 1 -4.000e-01 -1.000e-01 0.000e+00 -4.980e-04 3.014e-04 1.810e-03
20 1 4.000e-01 -2.000e-01 0.000e+00 8.434e-04 -3.113e-04 1.253e-04
21 1 -3.000e-01 -3.000e-01 0.000e+00 1.749e-03 -7.124e-04 1.815e-03
22 1 4.000e-01 3.000e-01 0.000e+00 -3.489e-04 6.477e-06 4.103e-04
23 1 3.000e-01 2.000e-01 0.000e+00 -2.114e-04 3.856e-04 8.922e-04
24 1 -3.000e-01 1.000e-01 0.000e+00 1.325e-04 1.869e-03 2.833e-04
25 1 -4.000e-01 -4.000e-01 0.000e+00 -2.115e-03 -1.758e-03 1.599e-03
26 1 -4.000e-01 3.000e-01 0.000e+00 -2.260e-04 -6.152e-04 -1.597e-05
27 1 -1.000e-01 1.000e-01 0.000e+00 6.767e-04 5.975e-04 1.463e-03
28 1 1.000e-01 1.000e-01 0.000e+00 -4.020e-04 -7.772e-05 1.550e-03
29 1 -1.000e-01 0.000e+00 0.000e+00 -8.308e-04 1.178e-03 2.937e-04
30 1 3.000e-01 -4.000e-01 0.000e+00 -4.139e-04 -5.488e-04 1.848e-04
31 1 2.000e-01 4.000e-01 0.000e+00 1.355e-03 8.855e-04 -8.979e-04
32 1 -2.000e-01 3.000e-01 0.000e+00 -8.990e-04 -7.555e-04 1.955e-03
33 1 4.000e-01 -4.000e-01 0.000e+00 7.865e-04 -1.101e-03 1.177e-03
34 1 2.000e-01 -4.000e-01 0.000e+00 9.757e-04 7.956e-05 -9.351e-04
35 1 -1.000e-01 3.000e-01 0.000e+00 -4.901e-05 -3.905e-04 -1.428e-03
36 1 -2.000e-01 1.000e-01 0.000e+00 1.512e-03 -7.133e-04 -1.533e-04
37 1 1.000e-01 5.000e-01 0.000e+00 1.403e-03 -5.414e-05 8.072e-04
38 1 -2.000e-01 5.000e-01 0.000e+00 -4.677e-04 -1.217e-03 1.116e-03
39 1 0.000e+00 -4.000e-01 0.000e+00 4.005e-04 -6.251e-04 7.772e-04
40 1 -2.000e-01 -2.000e-01 0.000e+00 1.425e-03 -1.729e-03 9.295e-04
41 1 -3.000e-01 5.000e-01 0.000e+00 -1.471e-04 -7.379e-04 -6.013e-04
42 1 -4.000e-01 1.000e-01 0.000e+00 -1.537e-04 -6.570e-04 -4.915e-04
43 1 -2.000e-01 4.000e-01 0.000e+00 1.183e-03 2.274e-03 -7.077e-04
44 1 2.000e-01 5.000e-01 0.000e+00 4.559e-04 -8.880e-04 -4.760e-04
45 1 1.000e-01 3.000e-01 0.000e+00 3.205e-04 -2.030e-03 -4.015e-04
46 1 0.000e+00 2.000e-01 0.000e+00 -9.206e-04 -2.155e-06 5.624e-04
47 1 4.000e-01 -3.000e-01 0.000e+00 -9.020e-04 -2.279e-04 6.615e-04
48 1 1.000e-01 2.000e-01 0.000e+00 -7.890e-05 6.173e-04 -1.628e-04
49 1 5.000e-01 -1.000e-01 0.000e+00 3.995e-04 -9.573e-04 -5.110e-04
50 1 2.000e-01 -3.000e-01 0.000e+00 -3.292e-04 -5.644e-04 1.913e-03
51 1 5.000e-01 -2.000e-01 0.000e+00 -7.107e-04 -5.091e-05 -8.918e-05
52 1 1.000e-01 -4.000e-01 0.000e+00 -2.880e-04 2.898e-05 3.158e-04
53 1 3.000e-01 -2.000e-01 0.000e+00 2.719e-06 4.788e-04 -5.783e-04
54 1 2.000e-01 0.000e+00 0.000e+00 8.259e-04 1.635e-03 -8.248e-04
55 1 -4.000e-01 5.000e-01 0.000e+00 -8.724e-04 5.387e-04 1.776e-04
56 1 0.000e+00 -2.000e-01 0.000e+00 3.273e-04 1.424e-03 -7.873e-04
57 1 1.000e-01 -1.000e-01 0.000e+00 1.429e-03 2.046e-03 -9.251e-04
58 1 3.000e-01 -1.000e-01 0.000e+00 4.037e-05 1.810e-03 4.729e-04
59 1 4.000e-01 0.000e+00 0.000e+00 6.747e-04 -5.464e-04 2.208e-04
60 1 -3.000e-01 -1.000e-01 0.000e+00 -1.735e-03 -1.188e-03 -6.114e-04
61 1 -3.000e-01 2.000e-01 0.000e+00 6.685e-04 3.919e-04 -8.495e-04
62 1 -1.000e-01 -1.000e-01 0.000e+00 -1.639e-03 1.188e-03 4.914e-04
63 1 0.000e+00 5.000e-01 0.000e+00 -4.265e-04 -1.305e-03 -1.108e-03
64 1 3.000e-01 0.000e+00 0.000e+00 3.806e-05 1.473e-03 1.969e-03
65 1 -4.000e-01 2.000e-01 0.000e+00 -7.419e-04 2.834e-04 1.117e-03
66 1 1.000e-01 -2.000e-01 0.000e+00 4.321e-04 1.292e-04 6.658e-04
67 1 1.000e-01 -3.000e-01 0.000e+00 8.841e-04 2.287e-04 -1.854e-04
68 1 3.000e-01 -3.000e-01 0.000e+00 8.670e-04 3.861e-04 -2.377e-03
69 1 0.000e+00 -1.000e-01 0.000e+00 -8.071e-04 -7.444e-04 -6.386e-05
70 1 1.000e-01 4.000e-01 0.000e+00 -2.430e-04 1.489e-03 4.879e-04
71 1 -3.000e-01 0.000e+00 0.000e+00 -4.839e-04 1.165e-03 -4.899e-04
72 1 -3.000e-01 4.000e-01 0.000e+00 4.439e-04 7.793e-05 -2.456e-04
73 1 -3.000e-01 -4.000e-01 0.000e+00 3.622e-04 2.499e-04 -7.355e-04
74 1 5.000e-01 5.000e-01 0.000e+00 -1.193e-04 5.218e-04 -1.282e-03
75 1 4.000e-01 5.000e-01 0.000e+00 2.436e-05 -6.650e-04 -4.464e-04
76 1 -3.000e-01 3.000e-01 0.000e+00 3.966e-04 5.676e-04 1.353e-03
77 1 5.000e-01 2.000e-01 0.000e+00 3.265e-04 2.107e-03 9.447e-04
78 1 3.000e-01 5.000e-01 0.000e+00 -1.114e-03 4.451e-04 3.721e-04
79 1 2.000e-01 2.000e-01 0.000e+00 -2.260e-03 -6.904e-04 9.556e-04
80 1 -3.000e-01 -2.000e-01 0.000e+00 -1.818e-03 -1.147e-04 -1.117e-04
81 1 2.000e-01 1.000e-01 0.000e+00 -8.276e-04 2.903e-04 -2.167e-06
82 1 5.000e-01 3.000e-01 0.000e+00 -5.909e-04 -1.178e-03 3.863e-04
83 1 -2.000e-01 -3.000e-01 0.000e+00 3.992e-04 -1.473e-03 -6.025e-04
84 1 4.000e-01 1.000e-01 0.000e+00 -7.104e-04 6.008e-04 -2.544e-04
85 1 5.000e-01 0.000e+00 0.000e+00 -1.169e-04 -8.512e-04 -1.247e-04
86 1 -1.000e-01 -3.000e-01 0.000e+00 8.765e-05 -1.186e-03 8.525e-04
87 1 -1.000e-01 5.000e-01 0.000e+00 2.114e-04 -2.246e-04 -4.318e-04
88 1 5.000e-01 1.000e-01 0.000e+00 -4.847e-04 2.820e-03 -7.204e-04
89 1 0.000e+00 4.000e-01 0.000e+00 -6.359e-04 6.961e-04 -6.341e-04
90 1 -4.000e-01 -3.000e-01 0.000e+00 -6.823e-04 -5.104e-04 9.088e-04
91 1 -1.000e-01 4.000e-01 0.000e+00 2.602e-03 -3.894e-04 3.743e-04
92 1 5.000e-01 4.000e-01 0.000e+00 -9.920e-04 8.924e-04 1.127e-03
93 1 4.000e-01 4.000e-01 0.000e+00 -4.816e-04 4.392e-04 9.795e-05
94 1 2.000e-01 -2.000e-01 0.000e+00 8.822e-05 1.299e-04 -1.610e-03
95 1 -2.000e-01 0.000e+00 0.000e+00 -8.616e-04 8.853e-04 3.681e-04
96 1 -4.000e-01 4.000e-01 0.000e+00 1.905e-03 -5.787e-04 9.668e-04
97 1 0.000e+00 3.000e-01 0.000e+00 -1.247e-03 -3.073e-04 4.451e-04
98 1 2.000e-01 -1.000e-01 0.000e+00 -1.361e-03 -2.607e-03 -7.639e-04
99 1 -4.000e-01 0.000e+00 0.000e+00 -5.155e-04 -1.720e-03 4.253e-04
ITEM: TIMESTEP
0
ITEM: NUMBER OF ATOMS
99
ITEM: BOX BOUNDS xy xz yz pp pp pp
                     -5.00000000000000e-01 5.00000000000000e-01 0.00000000000000e+00
-5.00000000000000e-01	5.00000000000000e-01	0.00000000000000e+00
-5.00000000000000e-01	5.00000000000000e-01	0.00000000000000e+00
ITEM: ATOMS id type x y z DisplacementX DisplacementY DisplacementZ
100 1 0.000e+00 1.000e-01 0.000e+00 1.059e-03 -3.275e-04 -1.894e-04
101 1 1.000e-01 -1.000e-01 0.000e+00 -1.911e-03 5.895e-04 3.108e-04
102 1 -1.000e-01 1.000e-01 0.000e+00 1.468e-03 -7.641e-04 -8.196e-04
103 1 4.000e-01 3.000e-01 0.000e+00 9.853e-04 1.831e-03 -4.044e-04
104 1 -4.000e-01 -4.000e-01 0.000e+00 1.917e-04 -1.350e-03 1.557e-03
105 1 3.000e-01 2.000e-01 0.000e+00 -3.326e-06 -9.147e-04 2.594e-04
106 1 0.000e+00 -3.000e-01 0.000e+00 -1.340e-03 -1.509e-03 -8.619e-05
107 1 4.000e-01 0.000e+00 0.000e+00 -1.406e-03 2.294e-04 -2.106e-03
108 1 0.000e+00 5.000e-01 0.000e+00 2.212e-03 -5.804e-04 -5.614e-04
109 1 -1.000e-01 -2.000e-01 0.000e+00 -7.780e-04 -8.676e-04 -1.827e-04
110 1 5.000e-01 1.000e-01 0.000e+00 4.386e-04 -1.033e-03 -1.058e-04
111 1 -1.000e-01 5.000e-01 0.000e+00 3.436e-04 4.499e-04 1.550e-03
112 1 2.000e-01 -1.000e-01 0.000e+00 6.240e-04 -3.346e-04 8.655e-04
113 1 -4.000e-01 5.000e-01 0.000e+00 -2.351e-04 8.080e-04 -1.959e-03
114 1 5.000e-01 -2.000e-01 0.000e+00 7.942e-05 -4.391e-04 8.919e-05
115 1 -3.000e-01 -3.000e-01 0.000e+00 -4.329e-04 -2.929e-04 -3.299e-04
116 1 4.000e-01 2.000e-01 0.000e+00 4.067e-04 -1.665e-03 -6.126e-04
117 1 1.000e-01 -4.000e-01 0.000e+00 -8.245e-04 -2.020e-03 2.083e-04
118 1 -3.000e-01 -2.000e-01 0.000e+00 4.196e-04 4.484e-04 1.419e-03
119 1 5.000e-01 -3.000e-01 0.000e+00 -8.991e-04 -8.027e-04 4.733e-04
120 1 -2.000e-01 -4.000e-01 0.000e+00 -3.878e-04 6.663e-05 1.320e-03
121 1 5.000e-01 2.000e-01 0.000e+00 -1.125e-03 -4.613e-04 -9.496e-06
122 1 4.000e-01 1.000e-01 0.000e+00 -2.608e-04 4.325e-04 8.637e-04
123 1 -2.000e-01 0.000e+00 0.000e+00 -5.723e-04 -1.194e-03 4.795e-04
124 1 -3.000e-01 5.000e-01 0.000e+00 7.549e-04 4.772e-04 1.323e-03
125 1 -3.000e-01 2.000e-01 0.000e+00 -8.026e-04 -1.147e-03 4.385e-04
126 1 0.000e+00 0.000e+00 0.000e+00 1.009e-01 -7.584e-04 1.771e-03
127 1 2.000e-01 0.000e+00 0.000e+00 7.465e-04 -1.403e-03 -1.729e-03
128 1 0.000e+00 -1.000e-01 0.000e+00 -1.022e-04 1.179e-03 -5.923e-04
129 1 4.000e-01 5.000e-01 0.000e+00 -2.257e-04 8.691e-04 7.589e-04
130 1 3.000e-01 3.000e-01 0.000e+00 -4.103e-06 9.511e-05 -3.946e-04
131 1 -1.000e-01 2.000e-01 0.000e+00 -4.316e-04 2.139e-04 -1.828e-04
132 1 5.000e-01 5.000e-01 0.000e+00 6.310e-04 1.679e-03 -7.150e-04
133 1 3.000e-01 5.000e-01 0.000e+00 6.252e-04 -9.058e-04 7.754e-04
134 1 0.000e+00 2.000e-01 0.000e+00 -3.014e-04 -6.380e-04 5.483e-04
135 1 -1.000e-01 0.000e+00 0.000e+00 -3.169e-04 -1.110e-03 6.928e-04
136 1 2.000e-01 4.000e-01 0.000e+00 -1.074e-03 5.745e-04 5.016e-04
137 1 -1.000e-01 4.000e-01 0.000e+00 -8.388e-04 -5.407e-04 2.535e-04
138 1 1.000e-01 5.000e-01 0.000e+00 1.826e-03 -1.052e-04 -8.248e-04
139 1 -1.000e-01 -3.000e-01 0.000e+00 2.983e-04 -1.260e-03 -7.888e-04
140 1 -2.000e-01 4.000e-01 0.000e+00 -2.290e-03 -2.257e-04 1.538e-03
141 1 -3.000e-01 0.000e+00 0.000e+00 -9.900e-04 5.972e-04 -5.298e-04
142 1 -1.000e-01 3.000e-01 0.000e+00 2.650e-04 -3.279e-04 -6.264e-04
143 1 3.000e-01 4.000e-01 0.000e+00 4.279e-04 -2.233e-04 -1.188e-03
144 1 2.000e-01 2.000e-01 0.000e+00 -1.871e-04 -7.364e-04 -1.193e-03
145 1 1.000e-01 1.000e-01 0.000e+00 -9.103e-04 -3.825e-04 5.822e-04
146 1 5.000e-01 -4.000e-01 0.000e+00 -7.601e-04 1.108e-03 -1.471e-03
147 1 2.000e-01 1.000e-01 0.000e+00 -1.136e-03 -2.580e-04 -8.838e-05
148 1 -4.000e-01 -2.000e-01 0.000e+00 -7.661e-04 -1.733e-03 1.855e-03
149 1 3.000e-01 -4.000e-01 0.000e+00 7.093e-05 -2.296e-04 -1.488e-03
150 1 -4.000e-01 -3.000e-01 0.000e+00 -1.400e-04 -1.103e-03 6.902e-04
151 1 2.000e-01 5.000e-01 0.000e+00 -5.800e-04 -1.073e-03 -5.699e-04
152 1 4.000e-01 -3.000e-01 0.000e+00 9.813e-04 4.076e-04 -5.820e-04
153 1 3.000e-01 -1.000e-01 0.000e+00 -5.813e-04 1.598e-03 -1.265e-04
154 1 -3.000e-01 4.000e-01 0.000e+00 8.760e-04 9.112e-04 -7.877e-04
155 1 1.000e-01 -3.000e-01 0.000e+00 1.067e-03 1.073e-03 4.258e-04
156 1 2.000e-01 -2.000e-01 0.000e+00 2.973e-04 8.712e-04 -1.015e-03
157 1 4.000e-01 -2.000e-01 0.000e+00 1.561e-03 6.546e-04 1.166e-03
158 1 5.000e-01 -1.000e-01 0.000e+00 8.674e-04 1.664e-03 -4.690e-04
159 1 -2.000e-01 -2.000e-01 0.000e+00 -1.997e-03 -2.273e-03 8.577e-04
160 1 -2.000e-01 1.000e-01 0.000e+00 -1.841e-03 -3.188e-04 6.567e-04
161 1 0.000e+00 -2.000e-01 0.000e+00 -1.621e-04 -8.969e-04 1.044e-03
162 1 1.000e-01 4.000e-01 0.000e+00 -7.503e-04 7.468e-04 3.806e-04
163 1 4.000e-01 -1.000e-01 0.000e+00 5.984e-05 3.870e-04 -8.183e-04
164 1 -3.000e-01 1.000e-01 0.000e+00 1.233e-04 -1.687e-03 9.391e-04
165 1 2.000e-01 -3.000e-01 0.000e+00 1.135e-03 -5.158e-04 1.530e-03
166 1 2.000e-01 -4.000e-01 0.000e+00 -1.424e-03 2.566e-05 -1.748e-03
167 1 4.000e-01 -4.000e-01 0.000e+00 -1.381e-04 -2.345e-03 4.415e-04
168 1 1.000e-01 -2.000e-01 0.000e+00 2.647e-04 -4.871e-04 8.716e-04
169 1 2.000e-01 3.000e-01 0.000e+00 1.831e-04 -1.323e-03 -2.631e-06
170 1 -2.000e-01 -1.000e-01 0.000e+00 3.144e-04 7.198e-04 1.203e-03
171 1 -2.000e-01 3.000e-01 0.000e+00 -1.223e-03 -5.237e-04 1.169e-03
172 1 -2.000e-01 5.000e-01 0.000e+00 -9.363e-04 5.028e-04 1.221e-03
173 1 -4.000e-01 4.000e-01 0.000e+00 4.807e-04 -1.033e-04 -1.850e-03
174 1 5.000e-01 4.000e-01 0.000e+00 -1.766e-03 8.312e-04 -1.308e-03
175 1 -2.000e-01 2.000e-01 0.000e+00 -1.474e-03 -1.060e-03 1.389e-03
176 1 -4.000e-01 1.000e-01 0.000e+00 5.446e-04 -2.434e-03 1.449e-03
177 1 4.000e-01 4.000e-01 0.000e+00 1.170e-04 4.374e-05 2.101e-03
178 1 3.000e-01 1.000e-01 0.000e+00 -6.950e-05 -6.392e-04 3.237e-04
179 1 -2.000e-01 -3.000e-01 0.000e+00 1.394e-04 -1.523e-03 2.840e-04
180 1 3.000e-01 0.000e+00 0.000e+00 -1.702e-03 3.208e-04 9.805e-04
181 1 -4.000e-01 2.000e-01 0.000e+00 7.136e-04 1.567e-03 -5.908e-04
182 1 -1.000e-01 -4.000e-01 0.000e+00 -8.271e-04 -1.589e-03 -7.663e-04
183 1 5.000e-01 0.000e+00 0.000e+00 -1.424e-04 -2.467e-04 -4.642e-04
184 1 -4.000e-01 -1.000e-01 0.000e+00 9.981e-04 3.998e-03 3.366e-05
185 1 0.000e+00 -4.000e-01 0.000e+00 -3.136e-04 -6.546e-04 2.531e-04
186 1 0.000e+00 4.000e-01 0.000e+00 -5.604e-04 1.167e-03 6.257e-04
187 1 -4.000e-01 0.000e+00 0.000e+00 -9.264e-04 1.757e-04 -2.370e-04
188 1 1.000e-01 3.000e-01 0.000e+00 1.862e-04 8.201e-04 -7.786e-04
189 1 -3.000e-01 -4.000e-01 0.000e+00 -1.190e-03 1.154e-03 1.999e-03
190 1 0.000e+00 3.000e-01 0.000e+00 5.628e-04 1.793e-03 -8.009e-04
191 1 -4.000e-01 3.000e-01 0.000e+00 2.087e-03 -7.033e-04 -5.099e-04
192 1 5.000e-01 3.000e-01 0.000e+00 -6.108e-04 6.107e-04 -5.452e-04
193 1 3.000e-01 -3.000e-01 0.000e+00 -2.987e-04 1.564e-03 9.102e-04
194 1 -1.000e-01 -1.000e-01 0.000e+00 -8.745e-04 -8.737e-04 2.044e-03
195 1 -3.000e-01 3.000e-01 0.000e+00 -4.710e-04 -9.738e-04 -1.108e-03
196 1 1.000e-01 2.000e-01 0.000e+00 1.817e-03 -1.281e-03 -1.373e-03
197 1 3.000e-01 -2.000e-01 0.000e+00 1.021e-04 -4.624e-05 9.906e-05
198 1 -3.000e-01 -1.000e-01 0.000e+00 -8.188e-04 9.842e-04 1.729e-03
