ITEM: TIMESTEP
0
ITEM: NUMBER OF ATOMS
18
ITEM: BOX BOUNDS xy xz yz pp pp pp
                     -5.00000000000000e-01 5.00000000000000e-01 0.00000000000000e+00
-5.00000000000000e-01	5.00000000000000e-01	0.00000000000000e+00
-5.00000000000000e-01	5.00000000000000e-01	0.00000000000000e+00
ITEM: ATOMS id type x y z DisplacementX DisplacementY DisplacementZ
1 1 0.000e+00 -2.000e-01 -2.000e-01 -3.782e-02 2.682e-03 3.518e-03
2 1 -2.000e-01 0.000e+00 -2.000e-01 9.223e-03 -4.430e-03 5.769e-04
3 1 0.000e+00 0.000e+00 0.000e+00 -9.260e-03 1.966e-01 -7.477e-03
4 1 0.000e+00 0.000e+00 -2.000e-01 -1.470e-02 -1.030e-02 -1.247e-03
5 1 2.000e-01 0.000e+00 -2.000e-01 -4.755e-03 4.781e-03 -4.713e-03
6 1 2.000e-01 0.000e+00 0.000e+00 1.249e-02 7.094e-03 -2.189e-02
7 1 2.000e-01 2.000e-01 0.000e+00 8.903e-03 2.126e-03 -3.698e-03
8 1 -2.000e-01 0.000e+00 2.000e-01 6.679e-03 -6.756e-03 6.003e-03
9 1 -2.000e-01 2.000e-01 0.000e+00 -4.990e-03 1.612e-02 -1.658e-02
10 1 0.000e+00 2.000e-01 -2.000e-01 -4.648e-04 5.473e-03 -8.831e-03
11 1 0.000e+00 0.000e+00 2.000e-01 -4.592e-03 -7.560e-03 7.238e-03
12 1 0.000e+00 2.000e-01 2.000e-01 -1.452e-02 -6.682e-03 2.293e-04
13 1 0.000e+00 -2.000e-01 0.000e+00 4.946e-04 3.316e-03 2.402e-03
14 1 -2.000e-01 0.000e+00 0.000e+00 -4.272e-03 3.447e-03 -4.443e-03
15 1 2.000e-01 0.000e+00 2.000e-01 8.441e-05 -1.461e-03 -5.842e-03
16 1 2.000e-01 -2.000e-01 0.000e+00 7.264e-03 1.643e-02 -1.072e-02
17 1 0.000e+00 -2.000e-01 2.000e-01 9.003e-03 2.816e-03 -1.159e-02
18 1 -2.000e-01 -2.000e-01 0.000e+00 6.856e-03 -7.573e-03 -6.441e-03
ITEM: TIMESTEP
0
ITEM: NUMBER OF ATOMS
18
ITEM: BOX BOUNDS xy xz yz pp pp pp
                     -5.00000000000000e-01 5.00000000000000e-01 0.00000000000000e+00
-5.00000000000000e-01	5.00000000000000e-01	0.00000000000000e+00
-5.00000000000000e-01	5.00000000000000e-01	0.00000000000000e+00
ITEM: ATOMS id type x y z DisplacementX DisplacementY DisplacementZ
19 1 2.000e-01 2.000e-01 0.000e+00 7.012e-03 1.068e-02 -5.908e-03
20 1 -2.000e-01 -2.000e-01 0.000e+00 -2.300e-03 -7.608e-04 9.672e-03
21 1 0.000e+00 2.000e-01 0.000e+00 2.079e-04 -1.731e-02 -5.627e-03
22 1 0.000e+00 -2.000e-01 -2.000e-01 -1.344e-02 -1.925e-03 7.633e-04
23 1 0.000e+00 -2.000e-01 0.000e+00 -7.146e-03 7.022e-03 3.658e-03
24 1 0.000e+00 0.000e+00 0.000e+00 -1.934e-01 -1.299e-02 -7.311e-03
25 1 0.000e+00 0.000e+00 -2.000e-01 -4.125e-04 -5.359e-03 4.384e-03
26 1 0.000e+00 2.000e-01 -2.000e-01 1.419e-02 -6.768e-03 -6.508e-03
27 1 2.000e-01 0.000e+00 0.000e+00 -2.006e-02 1.691e-03 -1.443e-02
28 1 2.000e-01 -2.000e-01 0.000e+00 -9.356e-05 3.341e-03 1.246e-02
29 1 0.000e+00 0.000e+00 2.000e-01 1.916e-02 3.644e-03 8.941e-03
30 1 -2.000e-01 0.000e+00 -2.000e-01 -9.649e-03 2.419e-02 4.655e-03
31 1 2.000e-01 0.000e+00 2.000e-01 -1.028e-02 -9.429e-03 1.654e-02
32 1 -2.000e-01 0.000e+00 2.000e-01 -4.231e-03 2.812e-03 -1.602e-02
33 1 2.000e-01 0.000e+00 -2.000e-01 7.427e-03 2.225e-04 3.196e-03
34 1 0.000e+00 -2.000e-01 2.000e-01 -4.204e-03 1.190e-02 2.541e-02
35 1 0.000e+00 2.000e-01 2.000e-01 -7.964e-03 7.344e-04 3.078e-03
36 1 -2.000e-01 2.000e-01 0.000e+00 -1.367e-03 -9.515e-03 -1.854e-02
ITEM: TIMESTEP
0
ITEM: NUMBER OF ATOMS
18
ITEM: BOX BOUNDS xy xz yz pp pp pp
                     -5.00000000000000e-01 5.00000000000000e-01 0.00000000000000e+00
-5.00000000000000e-01	5.00000000000000e-01	0.00000000000000e+00
-5.00000000000000e-01	5.00000000000000e-01	0.00000000000000e+00
ITEM: ATOMS id type x y z DisplacementX DisplacementY DisplacementZ
37 1 -2.000e-01 0.000e+00 2.000e-01 -9.487e-04 -4.019e-04 -4.505e-03
38 1 -2.000e-01 2.000e-01 0.000e+00 -1.547e-02 1.547e-02 -2.360e-02
39 1 0.000e+00 2.000e-01 0.000e+00 3.223e-03 -5.673e-03 2.668e-03
40 1 0.000e+00 -2.000e-01 -2.000e-01 -7.000e-04 -2.386e-03 6.783e-03
41 1 2.000e-01 -2.000e-01 0.000e+00 1.766e-02 -1.854e-04 9.344e-03
42 1 0.000e+00 0.000e+00 2.000e-01 1.112e-02 -8.707e-04 7.468e-03
43 1 0.000e+00 2.000e-01 -2.000e-01 -2.099e-02 2.927e-02 -7.050e-03
44 1 0.000e+00 -2.000e-01 2.000e-01 -1.450e-03 6.744e-03 -1.215e-04
45 1 0.000e+00 0.000e+00 0.000e+00 2.074e-01 -8.111e-03 4.596e-03
46 1 2.000e-01 0.000e+00 -2.000e-01 1.032e-02 -3.397e-03 -8.365e-03
47 1 -2.000e-01 0.000e+00 0.000e+00 3.496e-03 -3.261e-04 -5.100e-03
48 1 0.000e+00 2.000e-01 2.000e-01 7.118e-03 2.469e-04 1.680e-04
49 1 2.000e-01 0.000e+00 2.000e-01 8.158e-03 7.480e-03 8.046e-03
50 1 -2.000e-01 -2.000e-01 0.000e+00 1.011e-02 5.696e-03 -1.286e-03
51 1 0.000e+00 -2.000e-01 0.000e+00 6.061e-03 -4.341e-03 -6.787e-03
52 1 2.000e-01 2.000e-01 0.000e+00 1.780e-02 1.786e-02 -9.956e-03
53 1 0.000e+00 0.000e+00 -2.000e-01 -8.474e-03 2.683e-04 4.551e-03
54 1 -2.000e-01 0.000e+00 -2.000e-01 3.620e-03 4.189e-03 5.505e-04
ITEM: TIMESTEP
0
ITEM: NUMBER OF ATOMS
18
ITEM: BOX BOUNDS xy xz yz pp pp pp
                     -5.00000000000000e-01 5.00000000000000e-01 0.00000000000000e+00
-5.00000000000000e-01	5.00000000000000e-01	0.00000000000000e+00
-5.00000000000000e-01	5.00000000000000e-01	0.00000000000000e+00
ITEM: ATOMS id type x y z DisplacementX DisplacementY DisplacementZ
55 1 -2.000e-01 -2.000e-01 0.000e+00 7.763e-04 1.384e-03 1.527e-02
56 1 0.000e+00 -2.000e-01 2.000e-01 9.031e-03 -8.824e-03 -7.816e-03
57 1 -2.000e-01 0.000e+00 -2.000e-01 -8.876e-03 -1.134e-02 -3.892e-03
58 1 0.000e+00 -2.000e-01 0.000e+00 3.561e-04 1.956e-03 1.121e-02
59 1 2.000e-01 -2.000e-01 0.000e+00 1.063e-02 -1.281e-02 -9.678e-03
60 1 0.000e+00 2.000e-01 -2.000e-01 1.041e-02 1.040e-02 -1.056e-03
61 1 -2.000e-01 2.000e-01 0.000e+00 3.332e-03 -9.298e-03 -7.057e-03
62 1 2.000e-01 0.000e+00 2.000e-01 1.333e-02 1.865e-02 -2.022e-02
63 1 2.000e-01 0.000e+00 0.000e+00 2.512e-02 -8.654e-03 -3.843e-03
64 1 0.000e+00 0.000e+00 -2.000e-01 -9.502e-03 -1.047e-02 4.193e-03
65 1 2.000e-01 2.000e-01 0.000e+00 1.668e-02 -5.833e-03 2.332e-02
66 1 -2.000e-01 0.000e+00 2.000e-01 -1.346e-02 -8.478e-05 1.243e-02
67 1 0.000e+00 0.000e+00 0.000e+00 1.813e-02 1.139e-02 2.025e-01
68 1 2.000e-01 0.000e+00 -2.000e-01 1.197e-02 -1.440e-03 7.665e-03
69 1 0.000e+00 2.000e-01 0.000e+00 5.130e-03 -8.619e-03 -7.932e-03
70 1 0.000e+00 -2.000e-01 -2.000e-01 3.444e-03 -5.507e-03 -4.765e-03
71 1 0.000e+00 2.000e-01 2.000e-01 5.072e-03 -3.590e-02 -5.996e-03
72 1 -2.000e-01 0.000e+00 0.000e+00 1.067e-02 -1.929e-03 1.712e-02
