ITEM: TIMESTEP
0
ITEM: NUMBER OF ATOMS
8
ITEM: BOX BOUNDS xy xz yz pp pp pp
                     -5.00000000000000e-01 5.00000000000000e-01 0.00000000000000e+00
-5.00000000000000e-01	5.00000000000000e-01	0.00000000000000e+00
-5.00000000000000e-01	5.00000000000000e-01	0.00000000000000e+00
ITEM: ATOMS id type x y z DisplacementX DisplacementY DisplacementZ
1 1 0.000e+00 0.000e+00 0.000e+00 -9.852e-02 -5.448e-05 4.045e-04
2 1 0.000e+00 1.000e-01 0.000e+00 -2.897e-04 1.309e-03 1.872e-03
3 1 -1.000e-01 -1.000e-01 0.000e+00 -1.228e-03 -2.383e-04 -8.129e-04
4 1 1.000e-01 1.000e-01 0.000e+00 -1.148e-03 1.518e-03 7.371e-05
5 1 -1.000e-01 1.000e-01 0.000e+00 -2.678e-04 5.565e-06 -1.907e-03
6 1 0.000e+00 -1.000e-01 0.000e+00 7.719e-04 7.559e-04 -2.795e-04
7 1 1.000e-01 0.000e+00 0.000e+00 -1.077e-03 4.007e-04 -5.721e-04
8 1 1.000e-01 -1.000e-01 0.000e+00 3.417e-04 -9.201e-04 9.420e-04
ITEM: TIMESTEP
0
ITEM: NUMBER OF ATOMS
8
ITEM: BOX BOUNDS xy xz yz pp pp pp
                     -5.00000000000000e-01 5.00000000000000e-01 0.00000000000000e+00
-5.00000000000000e-01	5.00000000000000e-01	0.00000000000000e+00
-5.00000000000000e-01	5.00000000000000e-01	0.00000000000000e+00
ITEM: ATOMS id type x y z DisplacementX DisplacementY DisplacementZ
9 1 1.000e-01 1.000e-01 0.000e+00 -7.047e-04 5.638e-04 -5.339e-04
10 1 0.000e+00 0.000e+00 0.000e+00 1.073e-03 1.006e-01 -6.166e-04
11 1 1.000e-01 0.000e+00 0.000e+00 -5.751e-04 6.822e-04 6.360e-04
12 1 -1.000e-01 -1.000e-01 0.000e+00 1.178e-03 -5.576e-04 -1.817e-04
13 1 -1.000e-01 1.000e-01 0.000e+00 -1.145e-03 2.410e-03 -1.492e-03
14 1 0.000e+00 -1.000e-01 0.000e+00 -5.841e-04 1.531e-04 -2.030e-04
15 1 1.000e-01 -1.000e-01 0.000e+00 -2.949e-04 1.371e-03 -1.400e-04
16 1 -1.000e-01 0.000e+00 0.000e+00 1.102e-03 5.640e-04 1.154e-03
