ITEM: TIMESTEP
0
ITEM: NUMBER OF ATOMS
36
ITEM: BOX BOUNDS xy xz yz pp pp pp
                     -5.00000000000000e-01 5.00000000000000e-01 0.00000000000000e+00
-5.00000000000000e-01	5.00000000000000e-01	0.00000000000000e+00
-5.00000000000000e-01	5.00000000000000e-01	0.00000000000000e+00
ITEM: ATOMS id type x y z DisplacementX DisplacementY DisplacementZ
1 1 2.000e-01 -2.000e-01 0.000e+00 -5.515e-04 3.704e-04 7.359e-05
2 1 0.000e+00 0.000e+00 0.000e+00 -9.906e-02 1.800e-03 -2.671e-04
3 1 -1.000e-01 -2.000e-01 0.000e+00 -1.190e-04 1.485e-03 2.338e-04
4 1 -1.000e-01 -3.000e-01 0.000e+00 7.079e-04 -1.566e-03 -1.900e-03
5 1 0.000e+00 -2.000e-01 0.000e+00 2.051e-03 3.036e-04 4.297e-05
6 1 2.000e-01 0.000e+00 0.000e+00 9.294e-04 -3.539e-04 -1.501e-03
7 1 0.000e+00 -1.000e-01 0.000e+00 1.464e-03 -5.003e-04 -2.554e-04
8 1 0.000e+00 3.000e-01 0.000e+00 -1.243e-04 2.497e-03 6.556e-04
9 1 -3.000e-01 1.000e-01 0.000e+00 1.044e-04 1.327e-03 -4.474e-04
10 1 -3.000e-01 -1.000e-01 0.000e+00 -9.864e-04 -9.289e-04 -4.491e-05
11 1 -3.000e-01 0.000e+00 0.000e+00 5.278e-04 8.407e-04 -9.281e-04
12 1 1.000e-01 3.000e-01 0.000e+00 2.131e-04 -4.716e-04 2.618e-04
13 1 0.000e+00 2.000e-01 0.000e+00 -6.221e-05 7.210e-04 1.094e-03
14 1 -1.000e-01 1.000e-01 0.000e+00 -2.883e-04 -3.286e-03 1.611e-03
15 1 -2.000e-01 2.000e-01 0.000e+00 -2.569e-04 -8.585e-04 -2.647e-04
16 1 2.000e-01 1.000e-01 0.000e+00 -7.979e-04 2.454e-03 1.031e-03
17 1 3.000e-01 0.000e+00 0.000e+00 -6.256e-04 -5.545e-04 1.037e-03
18 1 -2.000e-01 -2.000e-01 0.000e+00 1.002e-03 9.647e-04 -1.245e-03
19 1 -1.000e-01 3.000e-01 0.000e+00 4.957e-04 8.419e-04 -7.275e-04
20 1 -1.000e-01 -1.000e-01 0.000e+00 7.911e-04 -1.382e-03 -9.737e-05
21 1 1.000e-01 1.000e-01 0.000e+00 9.785e-04 5.286e-04 -5.868e-04
22 1 2.000e-01 2.000e-01 0.000e+00 4.630e-04 4.779e-04 1.118e-03
23 1 2.000e-01 -1.000e-01 0.000e+00 -5.866e-04 4.918e-04 5.805e-04
24 1 1.000e-01 0.000e+00 0.000e+00 7.283e-05 5.919e-04 -1.163e-03
25 1 -2.000e-01 0.000e+00 0.000e+00 6.249e-04 -2.429e-04 1.641e-04
26 1 1.000e-01 -2.000e-01 0.000e+00 1.865e-04 -1.246e-03 1.017e-03
27 1 1.000e-01 -3.000e-01 0.000e+00 -6.369e-04 9.353e-04 -1.145e-03
28 1 1.000e-01 2.000e-01 0.000e+00 -4.427e-04 -3.048e-04 1.088e-03
29 1 0.000e+00 -3.000e-01 0.000e+00 1.249e-03 -6.720e-05 6.990e-04
30 1 3.000e-01 1.000e-01 0.000e+00 -5.374e-04 1.621e-03 -2.554e-04
31 1 1.000e-01 -1.000e-01 0.000e+00 -1.719e-03 -7.821e-04 -1.194e-03
32 1 -1.000e-01 2.000e-01 0.000e+00 -2.862e-04 9.335e-04 -3.850e-04
33 1 -2.000e-01 -1.000e-01 0.000e+00 9.934e-04 -1.056e-04 -4.736e-04
34 1 -2.000e-01 1.000e-01 0.000e+00 2.192e-03 1.597e-03 1.045e-03
35 1 0.000e+00 1.000e-01 0.000e+00 5.972e-04 -4.307e-04 2.797e-04
36 1 3.000e-01 -1.000e-01 0.000e+00 1.802e-03 -5.107e-05 5.581e-04
ITEM: TIMESTEP
0
ITEM: NUMBER OF ATOMS
36
ITEM: BOX BOUNDS xy xz yz pp pp pp
                     -5.00000000000000e-01 5.00000000000000e-01 0.00000000000000e+00
-5.00000000000000e-01	5.00000000000000e-01	0.00000000000000e+00
-5.00000000000000e-01	5.00000000000000e-01	0.00000000000000e+00
ITEM: ATOMS id type x y z DisplacementX DisplacementY DisplacementZ
37 1 1.000e-01 -1.000e-01 0.000e+00 -7.582e-04 -1.152e-03 -2.653e-04
38 1 0.000e+00 -3.000e-01 0.000e+00 3.204e-04 1.796e-03 -7.204e-05
39 1 1.000e-01 -3.000e-01 0.000e+00 -9.834e-04 6.692e-04 3.279e-04
40 1 3.000e-01 -1.000e-01 0.000e+00 -5.814e-04 -3.362e-04 1.366e-03
41 1 1.000e-01 -2.000e-01 0.000e+00 1.304e-04 2.934e-04 1.573e-03
42 1 1.000e-01 2.000e-01 0.000e+00 -2.573e-05 -3.452e-03 1.576e-03
43 1 -2.000e-01 0.000e+00 0.000e+00 1.057e-04 1.524e-03 1.127e-04
44 1 -2.000e-01 -2.000e-01 0.000e+00 7.737e-04 -2.328e-04 -3.145e-04
45 1 -2.000e-01 -1.000e-01 0.000e+00 -2.708e-04 -1.166e-04 -2.111e-03
46 1 -3.000e-01 -1.000e-01 0.000e+00 -7.982e-04 -1.309e-03 1.461e-03
47 1 2.000e-01 2.000e-01 0.000e+00 1.916e-03 -8.027e-04 -2.122e-04
48 1 1.000e-01 1.000e-01 0.000e+00 1.400e-03 1.830e-04 1.807e-03
49 1 0.000e+00 0.000e+00 0.000e+00 -6.575e-05 -1.002e-01 1.516e-03
50 1 -1.000e-01 1.000e-01 0.000e+00 5.710e-04 1.098e-03 2.082e-04
51 1 3.000e-01 0.000e+00 0.000e+00 -1.676e-03 -2.639e-04 -1.027e-03
52 1 -1.000e-01 -3.000e-01 0.000e+00 1.197e-03 1.370e-03 1.308e-03
53 1 0.000e+00 2.000e-01 0.000e+00 9.872e-04 1.460e-03 -4.746e-04
54 1 1.000e-01 3.000e-01 0.000e+00 7.699e-04 7.311e-05 1.810e-03
55 1 0.000e+00 -2.000e-01 0.000e+00 8.619e-04 -1.120e-03 -1.525e-04
56 1 -3.000e-01 0.000e+00 0.000e+00 -2.488e-03 -5.300e-04 -1.290e-03
57 1 2.000e-01 0.000e+00 0.000e+00 -6.280e-04 1.297e-03 1.857e-03
58 1 3.000e-01 1.000e-01 0.000e+00 -5.934e-04 3.811e-04 9.664e-04
59 1 2.000e-01 -1.000e-01 0.000e+00 -8.733e-05 -9.765e-04 -1.034e-03
60 1 -1.000e-01 -1.000e-01 0.000e+00 4.891e-04 -4.857e-04 -2.528e-03
61 1 2.000e-01 1.000e-01 0.000e+00 -4.877e-04 -3.170e-04 3.825e-04
62 1 0.000e+00 3.000e-01 0.000e+00 -4.564e-04 1.960e-04 -7.027e-04
63 1 2.000e-01 -2.000e-01 0.000e+00 -9.507e-04 -1.207e-03 9.631e-05
64 1 -3.000e-01 1.000e-01 0.000e+00 -1.323e-03 -1.674e-04 8.287e-04
65 1 0.000e+00 1.000e-01 0.000e+00 1.586e-03 1.060e-03 -8.723e-04
66 1 -1.000e-01 -2.000e-01 0.000e+00 -7.223e-04 -8.474e-04 8.113e-04
67 1 -1.000e-01 3.000e-01 0.000e+00 -3.126e-04 -9.099e-04 7.859e-04
68 1 -2.000e-01 2.000e-01 0.000e+00 8.056e-04 -1.407e-03 7.098e-04
69 1 -1.000e-01 0.000e+00 0.000e+00 5.926e-04 -9.153e-04 -2.550e-04
70 1 1.000e-01 0.000e+00 0.000e+00 -1.199e-03 6.545e-04 -6.549e-04
71 1 -2.000e-01 1.000e-01 0.000e+00 2.282e-04 7.420e-04 1.463e-03
72 1 -1.000e-01 2.000e-01 0.000e+00 8.978e-05 1.409e-03 9.188e-04
