ITEM: TIMESTEP
0
ITEM: NUMBER OF ATOMS
12
ITEM: BOX BOUNDS xy xz yz pp pp pp
                     -5.00000000000000e-01 5.00000000000000e-01 0.00000000000000e+00
-5.00000000000000e-01	5.00000000000000e-01	0.00000000000000e+00
-5.00000000000000e-01	5.00000000000000e-01	0.00000000000000e+00
ITEM: ATOMS id type x y z DisplacementX DisplacementY DisplacementZ
1 1 0.000e+00 0.000e+00 0.000e+00 -6.957e-04 1.017e-01 -5.363e-04
2 1 1.000e-01 1.000e-01 0.000e+00 -6.089e-04 5.595e-04 -1.884e-04
3 1 2.000e-01 0.000e+00 0.000e+00 7.415e-04 -1.607e-03 1.224e-04
4 1 -1.000e-01 -1.000e-01 0.000e+00 -7.293e-04 7.561e-05 -8.729e-04
5 1 -2.000e-01 0.000e+00 0.000e+00 -1.760e-03 3.824e-04 -1.600e-04
6 1 0.000e+00 2.000e-01 0.000e+00 6.671e-04 -9.577e-05 -1.159e-03
7 1 0.000e+00 -1.000e-01 0.000e+00 -5.175e-04 -8.521e-04 -2.257e-03
8 1 -1.000e-01 0.000e+00 0.000e+00 -7.759e-04 -3.914e-04 -5.650e-04
9 1 1.000e-01 -1.000e-01 0.000e+00 2.026e-03 5.145e-04 7.556e-04
10 1 0.000e+00 -2.000e-01 0.000e+00 5.050e-04 9.985e-04 -9.956e-04
11 1 -1.000e-01 1.000e-01 0.000e+00 7.682e-04 -1.004e-03 -6.620e-04
12 1 1.000e-01 0.000e+00 0.000e+00 -6.149e-04 4.313e-04 4.238e-04
ITEM: TIMESTEP
0
ITEM: NUMBER OF ATOMS
12
ITEM: BOX BOUNDS xy xz yz pp pp pp
                     -5.00000000000000e-01 5.00000000000000e-01 0.00000000000000e+00
-5.00000000000000e-01	5.00000000000000e-01	0.00000000000000e+00
-5.00000000000000e-01	5.00000000000000e-01	0.00000000000000e+00
ITEM: ATOMS id type x y z DisplacementX DisplacementY DisplacementZ
13 1 -1.000e-01 -1.000e-01 0.000e+00 -2.159e-03 -4.390e-04 8.518e-05
14 1 0.000e+00 0.000e+00 0.000e+00 -9.931e-02 -6.334e-04 8.289e-04
15 1 1.000e-01 -1.000e-01 0.000e+00 5.755e-04 -1.135e-03 -6.791e-04
16 1 0.000e+00 1.000e-01 0.000e+00 -8.676e-05 -1.850e-03 -5.522e-04
17 1 2.000e-01 0.000e+00 0.000e+00 5.793e-04 9.859e-04 -6.277e-04
18 1 0.000e+00 2.000e-01 0.000e+00 -8.369e-04 -8.308e-04 -2.714e-04
19 1 1.000e-01 0.000e+00 0.000e+00 4.151e-04 -2.668e-04 -2.049e-04
20 1 1.000e-01 1.000e-01 0.000e+00 -3.025e-04 2.377e-04 1.403e-03
21 1 -1.000e-01 1.000e-01 0.000e+00 1.030e-04 -1.726e-04 6.517e-04
22 1 0.000e+00 -2.000e-01 0.000e+00 4.876e-05 1.330e-03 -1.747e-04
23 1 -2.000e-01 0.000e+00 0.000e+00 3.610e-04 7.537e-04 -1.425e-03
24 1 0.000e+00 -1.000e-01 0.000e+00 -2.110e-03 -1.173e-04 2.964e-04
ITEM: TIMESTEP
0
ITEM: NUMBER OF ATOMS
12
ITEM: BOX BOUNDS xy xz yz pp pp pp
                     -5.00000000000000e-01 5.00000000000000e-01 0.00000000000000e+00
-5.00000000000000e-01	5.00000000000000e-01	0.00000000000000e+00
-5.00000000000000e-01	5.00000000000000e-01	0.00000000000000e+00
ITEM: ATOMS id type x y z DisplacementX DisplacementY DisplacementZ
25 1 0.000e+00 -2.000e-01 0.000e+00 -3.957e-04 4.616e-05 5.981e-04
26 1 1.000e-01 -1.000e-01 0.000e+00 -4.225e-04 -1.912e-03 -8.267e-05
27 1 0.000e+00 1.000e-01 0.000e+00 4.364e-04 -9.731e-04 -4.076e-05
28 1 1.000e-01 0.000e+00 0.000e+00 6.187e-04 -2.244e-04 -5.979e-04
29 1 -1.000e-01 0.000e+00 0.000e+00 6.442e-04 8.351e-04 -1.729e-03
30 1 1.000e-01 1.000e-01 0.000e+00 -3.165e-04 -1.098e-03 9.537e-04
31 1 -2.000e-01 0.000e+00 0.000e+00 9.398e-04 1.610e-04 -6.325e-04
32 1 2.000e-01 0.000e+00 0.000e+00 4.026e-04 -3.599e-04 1.053e-03
33 1 0.000e+00 0.000e+00 0.000e+00 -3.676e-04 -1.002e-01 -1.218e-03
34 1 0.000e+00 2.000e-01 0.000e+00 3.145e-04 -6.596e-04 -2.446e-04
35 1 -1.000e-01 1.000e-01 0.000e+00 -7.560e-04 -7.511e-04 6.390e-04
36 1 -1.000e-01 -1.000e-01 0.000e+00 -1.838e-03 1.631e-03 -9.862e-04
ITEM: TIMESTEP
0
ITEM: NUMBER OF ATOMS
12
ITEM: BOX BOUNDS xy xz yz pp pp pp
                     -5.00000000000000e-01 5.00000000000000e-01 0.00000000000000e+00
-5.00000000000000e-01	5.00000000000000e-01	0.00000000000000e+00
-5.00000000000000e-01	5.00000000000000e-01	0.00000000000000e+00
ITEM: ATOMS id type x y z DisplacementX DisplacementY DisplacementZ
37 1 1.000e-01 -1.000e-01 0.000e+00 -1.300e-05 2.665e-04 -5.570e-04
38 1 2.000e-01 0.000e+00 0.000e+00 6.049e-04 4.431e-04 -5.615e-04
39 1 0.000e+00 1.000e-01 0.000e+00 1.102e-03 -2.163e-04 -2.631e-03
40 1 0.000e+00 -2.000e-01 0.000e+00 6.138e-04 -3.543e-04 1.909e-04
41 1 -1.000e-01 1.000e-01 0.000e+00 8.140e-04 6.529e-04 -1.244e-03
42 1 -2.000e-01 0.000e+00 0.000e+00 -6.726e-04 1.521e-04 -2.177e-03
43 1 -1.000e-01 0.000e+00 0.000e+00 -8.097e-04 2.022e-03 5.260e-04
44 1 -1.000e-01 -1.000e-01 0.000e+00 5.025e-04 1.780e-03 3.537e-04
45 1 1.000e-01 1.000e-01 0.000e+00 4.904e-04 -1.292e-04 -4.195e-06
46 1 0.000e+00 -1.000e-01 0.000e+00 1.642e-03 4.248e-04 7.084e-04
47 1 0.000e+00 2.000e-01 0.000e+00 -1.783e-03 1.481e-04 1.062e-03
48 1 0.000e+00 0.000e+00 0.000e+00 9.867e-02 1.042e-03 1.643e-03
ITEM: TIMESTEP
0
ITEM: NUMBER OF ATOMS
12
ITEM: BOX BOUNDS xy xz yz pp pp pp
                     -5.00000000000000e-01 5.00000000000000e-01 0.00000000000000e+00
-5.00000000000000e-01	5.00000000000000e-01	0.00000000000000e+00
-5.00000000000000e-01	5.00000000000000e-01	0.00000000000000e+00
ITEM: ATOMS id type x y z DisplacementX DisplacementY DisplacementZ
49 1 0.000e+00 2.000e-01 0.000e+00 1.479e-03 -2.405e-03 -1.025e-03
50 1 -1.000e-01 0.000e+00 0.000e+00 -7.039e-04 2.218e-03 -7.673e-05
51 1 1.000e-01 1.000e-01 0.000e+00 -9.054e-04 -4.556e-04 1.508e-03
52 1 0.000e+00 1.000e-01 0.000e+00 -1.465e-03 -3.845e-04 1.589e-03
53 1 0.000e+00 0.000e+00 0.000e+00 6.276e-04 -9.986e-02 1.948e-05
54 1 2.000e-01 0.000e+00 0.000e+00 2.202e-03 1.453e-03 -2.763e-04
55 1 -1.000e-01 -1.000e-01 0.000e+00 -2.183e-05 -3.159e-04 1.249e-03
56 1 1.000e-01 -1.000e-01 0.000e+00 -1.471e-04 -2.787e-04 -1.966e-03
57 1 -1.000e-01 1.000e-01 0.000e+00 5.387e-04 6.295e-04 -3.022e-04
58 1 -2.000e-01 0.000e+00 0.000e+00 1.982e-03 7.688e-04 -4.891e-04
59 1 1.000e-01 0.000e+00 0.000e+00 -7.134e-04 1.083e-03 1.249e-03
60 1 0.000e+00 -2.000e-01 0.000e+00 -1.043e-03 -1.647e-03 -7.086e-04
ITEM: TIMESTEP
0
ITEM: NUMBER OF ATOMS
12
ITEM: BOX BOUNDS xy xz yz pp pp pp
                     -5.00000000000000e-01 5.00000000000000e-01 0.00000000000000e+00
-5.00000000000000e-01	5.00000000000000e-01	0.00000000000000e+00
-5.00000000000000e-01	5.00000000000000e-01	0.00000000000000e+00
ITEM: ATOMS id type x y z DisplacementX DisplacementY DisplacementZ
61 1 -1.000e-01 0.000e+00 0.000e+00 -7.894e-04 1.173e-03 1.322e-03
62 1 0.000e+00 -1.000e-01 0.000e+00 -1.361e-03 -1.210e-03 -6.947e-04
63 1 -2.000e-01 0.000e+00 0.000e+00 -1.944e-03 4.187e-04 1.330e-03
64 1 0.000e+00 1.000e-01 0.000e+00 -6.786e-05 -3.907e-04 -1.539e-03
65 1 1.000e-01 1.000e-01 0.000e+00 -1.242e-03 6.439e-04 7.286e-04
66 1 0.000e+00 0.000e+00 0.000e+00 1.011e-01 6.298e-04 3.552e-04
67 1 2.000e-01 0.000e+00 0.000e+00 7.165e-04 -5.628e-04 -1.710e-03
68 1 0.000e+00 2.000e-01 0.000e+00 8.031e-04 -3.703e-04 -1.164e-03
69 1 -1.000e-01 1.000e-01 0.000e+00 1.704e-03 -2.741e-04 -2.110e-04
70 1 -1.000e-01 -1.000e-01 0.000e+00 1.218e-03 -1.625e-04 8.369e-04
71 1 0.000e+00 -2.000e-01 0.000e+00 8.815e-04 -3.921e-04 -1.253e-03
72 1 1.000e-01 -1.000e-01 0.000e+00 2.526e-04 -6.019e-04 -5.729e-04
ITEM: TIMESTEP
0
ITEM: NUMBER OF ATOMS
12
ITEM: BOX BOUNDS xy xz yz pp pp pp
                     -5.00000000000000e-01 5.00000000000000e-01 0.00000000000000e+00
-5.00000000000000e-01	5.00000000000000e-01	0.00000000000000e+00
-5.00000000000000e-01	5.00000000000000e-01	0.00000000000000e+00
ITEM: ATOMS id type x y z DisplacementX DisplacementY DisplacementZ
73 1 1.000e-01 -1.000e-01 0.000e+00 -1.286e-03 9.510e-04 5.887e-04
74 1 0.000e+00 -1.000e-01 0.000e+00 -1.431e-03 2.916e-05 1.676e-03
75 1 2.000e-01 0.000e+00 0.000e+00 -8.973e-04 4.357e-04 -1.392e-03
76 1 0.000e+00 2.000e-01 0.000e+00 -8.607e-05 -5.842e-04 -5.879e-04
77 1 -1.000e-01 1.000e-01 0.000e+00 6.242e-05 -4.788e-04 -9.672e-04
78 1 1.000e-01 1.000e-01 0.000e+00 -2.773e-04 2.661e-04 8.282e-04
79 1 -2.000e-01 0.000e+00 0.000e+00 -1.478e-03 -2.278e-03 1.678e-04
80 1 1.000e-01 0.000e+00 0.000e+00 5.932e-04 -9.999e-04 7.923e-04
81 1 0.000e+00 0.000e+00 0.000e+00 -9.931e-02 5.745e-04 2.546e-04
82 1 0.000e+00 1.000e-01 0.000e+00 -1.415e-03 -8.336e-04 1.784e-03
83 1 0.000e+00 -2.000e-01 0.000e+00 9.113e-04 -1.318e-03 -9.431e-04
84 1 -1.000e-01 -1.000e-01 0.000e+00 3.404e-04 -3.585e-04 -2.392e-04
ITEM: TIMESTEP
0
ITEM: NUMBER OF ATOMS
12
ITEM: BOX BOUNDS xy xz yz pp pp pp
                     -5.00000000000000e-01 5.00000000000000e-01 0.00000000000000e+00
-5.00000000000000e-01	5.00000000000000e-01	0.00000000000000e+00
-5.00000000000000e-01	5.00000000000000e-01	0.00000000000000e+00
ITEM: ATOMS id type x y z DisplacementX DisplacementY DisplacementZ
85 1 2.000e-01 0.000e+00 0.000e+00 1.091e-03 -4.579e-04 5.049e-04
86 1 1.000e-01 0.000e+00 0.000e+00 8.383e-04 3.625e-04 -7.513e-04
87 1 -1.000e-01 0.000e+00 0.000e+00 1.247e-05 1.961e-05 7.746e-06
88 1 0.000e+00 2.000e-01 0.000e+00 -7.098e-04 1.986e-03 3.016e-04
89 1 -1.000e-01 1.000e-01 0.000e+00 -8.133e-04 -7.872e-04 -7.574e-04
90 1 0.000e+00 -1.000e-01 0.000e+00 7.491e-05 -9.075e-04 -1.741e-03
91 1 1.000e-01 1.000e-01 0.000e+00 -8.264e-04 1.635e-04 1.914e-04
92 1 1.000e-01 -1.000e-01 0.000e+00 -1.049e-03 2.224e-04 -8.568e-04
93 1 -2.000e-01 0.000e+00 0.000e+00 -2.163e-03 8.476e-07 8.510e-04
94 1 -1.000e-01 -1.000e-01 0.000e+00 -2.446e-04 4.611e-04 -1.733e-03
95 1 0.000e+00 0.000e+00 0.000e+00 2.743e-03 1.013e-01 7.425e-04
96 1 0.000e+00 -2.000e-01 0.000e+00 2.668e-04 -1.116e-03 -1.879e-04
ITEM: TIMESTEP
0
ITEM: NUMBER OF ATOMS
12
ITEM: BOX BOUNDS xy xz yz pp pp pp
                     -5.00000000000000e-01 5.00000000000000e-01 0.00000000000000e+00
-5.00000000000000e-01	5.00000000000000e-01	0.00000000000000e+00
-5.00000000000000e-01	5.00000000000000e-01	0.00000000000000e+00
ITEM: ATOMS id type x y z DisplacementX DisplacementY DisplacementZ
97 1 0.000e+00 0.000e+00 0.000e+00 -1.430e-03 -1.008e-01 1.808e-03
98 1 1.000e-01 1.000e-01 0.000e+00 -1.747e-03 -1.633e-03 3.742e-04
99 1 0.000e+00 -2.000e-01 0.000e+00 -7.300e-04 -2.552e-03 2.197e-04
100 1 -1.000e-01 1.000e-01 0.000e+00 1.052e-03 6.919e-04 1.163e-03
101 1 0.000e+00 1.000e-01 0.000e+00 -1.440e-03 -2.681e-04 4.037e-04
102 1 -2.000e-01 0.000e+00 0.000e+00 -9.529e-04 2.258e-03 -4.397e-04
103 1 1.000e-01 -1.000e-01 0.000e+00 6.043e-05 -7.423e-04 -5.397e-04
104 1 -1.000e-01 0.000e+00 0.000e+00 1.781e-04 -9.614e-04 -1.101e-03
105 1 0.000e+00 2.000e-01 0.000e+00 -1.499e-03 -7.751e-04 -1.178e-03
106 1 2.000e-01 0.000e+00 0.000e+00 1.239e-03 1.554e-03 -2.164e-03
107 1 1.000e-01 0.000e+00 0.000e+00 -8.078e-04 -1.854e-04 6.183e-04
108 1 -1.000e-01 -1.000e-01 0.000e+00 -1.155e-03 -3.531e-04 6.114e-04
ITEM: TIMESTEP
0
ITEM: NUMBER OF ATOMS
12
ITEM: BOX BOUNDS xy xz yz pp pp pp
                     -5.00000000000000e-01 5.00000000000000e-01 0.00000000000000e+00
-5.00000000000000e-01	5.00000000000000e-01	0.00000000000000e+00
-5.00000000000000e-01	5.00000000000000e-01	0.00000000000000e+00
ITEM: ATOMS id type x y z DisplacementX DisplacementY DisplacementZ
109 1 0.000e+00 2.000e-01 0.000e+00 -8.096e-04 9.737e-04 -8.033e-04
110 1 1.000e-01 -1.000e-01 0.000e+00 1.133e-03 1.655e-03 -7.568e-04
111 1 2.000e-01 0.000e+00 0.000e+00 1.318e-03 -1.002e-03 -1.350e-03
112 1 1.000e-01 0.000e+00 0.000e+00 -8.388e-04 -1.525e-04 -9.222e-04
113 1 -1.000e-01 0.000e+00 0.000e+00 6.229e-04 -9.337e-04 5.685e-04
114 1 0.000e+00 0.000e+00 0.000e+00 -1.301e-03 1.001e-01 1.503e-05
115 1 -1.000e-01 -1.000e-01 0.000e+00 -2.597e-04 -1.295e-03 -1.400e-03
116 1 0.000e+00 -1.000e-01 0.000e+00 1.081e-03 -1.081e-03 -1.415e-03
117 1 0.000e+00 -2.000e-01 0.000e+00 9.928e-04 1.071e-03 -1.442e-04
118 1 -2.000e-01 0.000e+00 0.000e+00 4.260e-04 9.159e-04 2.274e-04
119 1 1.000e-01 1.000e-01 0.000e+00 1.135e-03 1.382e-04 -1.144e-03
120 1 -1.000e-01 1.000e-01 0.000e+00 6.815e-04 7.904e-04 7.043e-04
ITEM: TIMESTEP
0
ITEM: NUMBER OF ATOMS
12
ITEM: BOX BOUNDS xy xz yz pp pp pp
                     -5.00000000000000e-01 5.00000000000000e-01 0.00000000000000e+00
-5.00000000000000e-01	5.00000000000000e-01	0.00000000000000e+00
-5.00000000000000e-01	5.00000000000000e-01	0.00000000000000e+00
ITEM: ATOMS id type x y z DisplacementX DisplacementY DisplacementZ
121 1 -1.000e-01 1.000e-01 0.000e+00 -6.416e-04 1.387e-03 4.331e-04
122 1 0.000e+00 -2.000e-01 0.000e+00 -7.373e-04 3.868e-04 -7.817e-04
123 1 1.000e-01 -1.000e-01 0.000e+00 -8.140e-04 -2.083e-04 -2.539e-03
124 1 0.000e+00 -1.000e-01 0.000e+00 2.793e-04 -5.443e-04 3.481e-04
125 1 0.000e+00 2.000e-01 0.000e+00 7.711e-04 1.242e-03 -1.997e-03
126 1 -1.000e-01 -1.000e-01 0.000e+00 -1.458e-03 4.418e-04 -7.047e-04
127 1 1.000e-01 0.000e+00 0.000e+00 -8.887e-04 -8.984e-05 -3.599e-04
128 1 2.000e-01 0.000e+00 0.000e+00 -4.063e-04 1.528e-03 1.035e-04
129 1 0.000e+00 0.000e+00 0.000e+00 -1.009e-01 4.358e-04 4.293e-04
130 1 1.000e-01 1.000e-01 0.000e+00 -8.061e-04 5.887e-04 1.933e-04
131 1 0.000e+00 1.000e-01 0.000e+00 1.056e-03 2.628e-03 -5.677e-04
132 1 -2.000e-01 0.000e+00 0.000e+00 -2.422e-04 3.142e-04 -1.078e-03
ITEM: TIMESTEP
0
ITEM: NUMBER OF ATOMS
12
ITEM: BOX BOUNDS xy xz yz pp pp pp
                     -5.00000000000000e-01 5.00000000000000e-01 0.00000000000000e+00
-5.00000000000000e-01	5.00000000000000e-01	0.00000000000000e+00
-5.00000000000000e-01	5.00000000000000e-01	0.00000000000000e+00
ITEM: ATOMS id type x y z DisplacementX DisplacementY DisplacementZ
133 1 -2.000e-01 0.000e+00 0.000e+00 -4.969e-04 3.815e-04 -6.565e-04
134 1 1.000e-01 1.000e-01 0.000e+00 -9.791e-04 6.027e-04 -1.166e-03
135 1 -1.000e-01 0.000e+00 0.000e+00 3.006e-05 3.788e-05 -1.853e-03
136 1 0.000e+00 -1.000e-01 0.000e+00 -1.564e-03 5.594e-04 2.633e-04
137 1 1.000e-01 -1.000e-01 0.000e+00 -1.624e-05 -9.088e-05 -7.170e-04
138 1 0.000e+00 2.000e-01 0.000e+00 -6.594e-05 -9.016e-04 -6.342e-04
139 1 0.000e+00 -2.000e-01 0.000e+00 1.520e-04 -9.569e-04 1.675e-03
140 1 -1.000e-01 -1.000e-01 0.000e+00 3.246e-04 4.699e-05 -4.484e-04
141 1 -1.000e-01 1.000e-01 0.000e+00 -1.872e-03 5.146e-04 -4.882e-04
142 1 2.000e-01 0.000e+00 0.000e+00 2.397e-04 5.045e-04 4.302e-04
143 1 0.000e+00 1.000e-01 0.000e+00 2.424e-05 2.179e-04 2.732e-03
144 1 0.000e+00 0.000e+00 0.000e+00 1.008e-01 -1.323e-03 -4.340e-04
ITEM: TIMESTEP
0
ITEM: NUMBER OF ATOMS
12
ITEM: BOX BOUNDS xy xz yz pp pp pp
                     -5.00000000000000e-01 5.00000000000000e-01 0.00000000000000e+00
-5.00000000000000e-01	5.00000000000000e-01	0.00000000000000e+00
-5.00000000000000e-01	5.00000000000000e-01	0.00000000000000e+00
ITEM: ATOMS id type x y z DisplacementX DisplacementY DisplacementZ
145 1 0.000e+00 -2.000e-01 0.000e+00 -2.152e-03 1.211e-03 -9.746e-04
146 1 -2.000e-01 0.000e+00 0.000e+00 1.423e-03 -4.645e-04 1.170e-03
147 1 0.000e+00 0.000e+00 0.000e+00 1.002e-01 -6.885e-05 -2.551e-04
148 1 -1.000e-01 0.000e+00 0.000e+00 -5.160e-04 -4.412e-04 1.229e-03
149 1 1.000e-01 -1.000e-01 0.000e+00 1.221e-05 7.600e-04 4.373e-04
150 1 2.000e-01 0.000e+00 0.000e+00 1.357e-03 -5.523e-04 1.356e-03
151 1 0.000e+00 -1.000e-01 0.000e+00 8.632e-04 -1.041e-03 -1.936e-04
152 1 -1.000e-01 1.000e-01 0.000e+00 -8.662e-06 1.177e-03 1.246e-03
153 1 0.000e+00 2.000e-01 0.000e+00 -1.088e-03 -1.427e-03 -1.328e-03
154 1 1.000e-01 1.000e-01 0.000e+00 2.284e-04 -5.258e-04 2.125e-03
155 1 0.000e+00 1.000e-01 0.000e+00 4.369e-04 2.281e-04 -5.769e-05
156 1 -1.000e-01 -1.000e-01 0.000e+00 1.260e-03 -1.615e-03 3.571e-04
ITEM: TIMESTEP
0
ITEM: NUMBER OF ATOMS
12
ITEM: BOX BOUNDS xy xz yz pp pp pp
                     -5.00000000000000e-01 5.00000000000000e-01 0.00000000000000e+00
-5.00000000000000e-01	5.00000000000000e-01	0.00000000000000e+00
-5.00000000000000e-01	5.00000000000000e-01	0.00000000000000e+00
ITEM: ATOMS id type x y z DisplacementX DisplacementY DisplacementZ
157 1 1.000e-01 -1.000e-01 0.000e+00 9.753e-04 -9.504e-04 4.265e-04
158 1 2.000e-01 0.000e+00 0.000e+00 -4.399e-06 -1.256e-04 1.416e-03
159 1 -1.000e-01 -1.000e-01 0.000e+00 -2.481e-04 9.802e-04 -1.891e-04
160 1 0.000e+00 -2.000e-01 0.000e+00 2.050e-03 3.655e-04 1.115e-03
161 1 -1.000e-01 1.000e-01 0.000e+00 1.731e-03 -9.242e-04 6.176e-04
162 1 0.000e+00 -1.000e-01 0.000e+00 -1.368e-04 7.534e-04 -1.540e-05
163 1 0.000e+00 0.000e+00 0.000e+00 1.838e-04 1.006e-01 -2.718e-04
164 1 1.000e-01 1.000e-01 0.000e+00 -8.802e-04 -8.548e-04 3.981e-04
165 1 -1.000e-01 0.000e+00 0.000e+00 -2.986e-04 -1.471e-03 -2.012e-04
166 1 0.000e+00 2.000e-01 0.000e+00 -3.032e-04 5.818e-04 -1.129e-03
167 1 -2.000e-01 0.000e+00 0.000e+00 6.776e-04 -4.789e-04 1.968e-04
168 1 1.000e-01 0.000e+00 0.000e+00 3.747e-05 1.009e-03 9.100e-04
ITEM: TIMESTEP
0
ITEM: NUMBER OF ATOMS
12
ITEM: BOX BOUNDS xy xz yz pp pp pp
                     -5.00000000000000e-01 5.00000000000000e-01 0.00000000000000e+00
-5.00000000000000e-01	5.00000000000000e-01	0.00000000000000e+00
-5.00000000000000e-01	5.00000000000000e-01	0.00000000000000e+00
ITEM: ATOMS id type x y z DisplacementX DisplacementY DisplacementZ
169 1 2.000e-01 0.000e+00 0.000e+00 1.367e-03 -1.712e-04 1.102e-03
170 1 0.000e+00 -2.000e-01 0.000e+00 -4.867e-04 -3.057e-04 1.526e-03
171 1 1.000e-01 -1.000e-01 0.000e+00 -1.087e-03 -6.003e-04 -3.396e-04
172 1 1.000e-01 0.000e+00 0.000e+00 -4.619e-04 1.727e-04 -2.034e-04
173 1 1.000e-01 1.000e-01 0.000e+00 1.452e-04 1.719e-04 -6.418e-04
174 1 -2.000e-01 0.000e+00 0.000e+00 2.006e-03 5.907e-04 -1.046e-03
175 1 -1.000e-01 -1.000e-01 0.000e+00 -1.758e-04 -1.041e-03 1.085e-04
176 1 0.000e+00 0.000e+00 0.000e+00 -9.904e-02 -8.711e-04 -9.495e-04
177 1 0.000e+00 2.000e-01 0.000e+00 -2.503e-04 -1.550e-03 7.059e-04
178 1 -1.000e-01 1.000e-01 0.000e+00 -7.669e-04 -5.637e-04 -1.383e-03
179 1 0.000e+00 1.000e-01 0.000e+00 9.036e-04 8.034e-05 -5.034e-04
180 1 0.000e+00 -1.000e-01 0.000e+00 -8.462e-04 1.987e-03 1.974e-03
ITEM: TIMESTEP
0
ITEM: NUMBER OF ATOMS
12
ITEM: BOX BOUNDS xy xz yz pp pp pp
                     -5.00000000000000e-01 5.00000000000000e-01 0.00000000000000e+00
-5.00000000000000e-01	5.00000000000000e-01	0.00000000000000e+00
-5.00000000000000e-01	5.00000000000000e-01	0.00000000000000e+00
ITEM: ATOMS id type x y z DisplacementX DisplacementY DisplacementZ
181 1 0.000e+00 1.000e-01 0.000e+00 -6.964e-04 1.445e-03 -1.136e-03
182 1 2.000e-01 0.000e+00 0.000e+00 -3.099e-04 3.200e-04 1.409e-03
183 1 -1.000e-01 -1.000e-01 0.000e+00 1.199e-03 -5.811e-04 -6.565e-04
184 1 0.000e+00 -2.000e-01 0.000e+00 1.341e-03 4.965e-04 -1.044e-03
185 1 1.000e-01 -1.000e-01 0.000e+00 1.728e-04 8.371e-04 1.129e-03
186 1 0.000e+00 2.000e-01 0.000e+00 -1.206e-03 7.412e-04 -1.415e-03
187 1 1.000e-01 1.000e-01 0.000e+00 -1.966e-03 -5.807e-04 1.243e-03
188 1 -2.000e-01 0.000e+00 0.000e+00 3.247e-04 -4.563e-04 -2.543e-03
189 1 -1.000e-01 1.000e-01 0.000e+00 2.567e-04 -8.960e-04 2.822e-05
190 1 0.000e+00 0.000e+00 0.000e+00 1.068e-03 -1.005e-01 1.514e-03
191 1 -1.000e-01 0.000e+00 0.000e+00 -9.567e-04 -1.536e-03 -1.906e-03
192 1 1.000e-01 0.000e+00 0.000e+00 3.147e-04 1.071e-03 -1.458e-03
ITEM: TIMESTEP
0
ITEM: NUMBER OF ATOMS
12
ITEM: BOX BOUNDS xy xz yz pp pp pp
                     -5.00000000000000e-01 5.00000000000000e-01 0.00000000000000e+00
-5.00000000000000e-01	5.00000000000000e-01	0.00000000000000e+00
-5.00000000000000e-01	5.00000000000000e-01	0.00000000000000e+00
ITEM: ATOMS id type x y z DisplacementX DisplacementY DisplacementZ
193 1 0.000e+00 -2.000e-01 0.000e+00 -1.209e-03 -3.099e-05 1.244e-03
194 1 -1.000e-01 1.000e-01 0.000e+00 -1.002e-03 2.308e-04 1.388e-03
195 1 0.000e+00 0.000e+00 0.000e+00 9.963e-02 1.420e-04 -1.613e-03
196 1 1.000e-01 1.000e-01 0.000e+00 -8.358e-04 -6.817e-04 5.526e-04
197 1 0.000e+00 2.000e-01 0.000e+00 -1.175e-04 -3.017e-04 -1.261e-04
198 1 -2.000e-01 0.000e+00 0.000e+00 7.081e-04 6.202e-04 1.243e-03
199 1 1.000e-01 -1.000e-01 0.000e+00 5.379e-04 -1.640e-03 -1.386e-03
200 1 0.000e+00 -1.000e-01 0.000e+00 4.210e-05 2.840e-05 1.130e-03
201 1 2.000e-01 0.000e+00 0.000e+00 -1.391e-03 -1.343e-03 -1.690e-03
202 1 -1.000e-01 0.000e+00 0.000e+00 2.295e-04 -5.844e-04 1.904e-03
203 1 -1.000e-01 -1.000e-01 0.000e+00 -1.946e-04 -3.060e-04 6.291e-04
204 1 0.000e+00 1.000e-01 0.000e+00 -3.592e-05 4.926e-04 -5.272e-04
ITEM: TIMESTEP
0
ITEM: NUMBER OF ATOMS
12
ITEM: BOX BOUNDS xy xz yz pp pp pp
                     -5.00000000000000e-01 5.00000000000000e-01 0.00000000000000e+00
-5.00000000000000e-01	5.00000000000000e-01	0.00000000000000e+00
-5.00000000000000e-01	5.00000000000000e-01	0.00000000000000e+00
ITEM: ATOMS id type x y z DisplacementX DisplacementY DisplacementZ
205 1 -2.000e-01 0.000e+00 0.000e+00 1.379e-03 -1.371e-03 9.244e-05
206 1 0.000e+00 2.000e-01 0.000e+00 1.069e-03 -7.399e-04 -1.323e-03
207 1 -1.000e-01 -1.000e-01 0.000e+00 -1.497e-03 -9.203e-04 1.087e-03
208 1 1.000e-01 1.000e-01 0.000e+00 -6.669e-04 6.654e-04 -1.270e-03
209 1 0.000e+00 0.000e+00 0.000e+00 1.319e-03 -9.972e-02 -3.958e-04
210 1 -1.000e-01 1.000e-01 0.000e+00 -4.060e-05 1.137e-03 -4.611e-04
211 1 2.000e-01 0.000e+00 0.000e+00 1.575e-03 -1.813e-03 6.414e-05
212 1 0.000e+00 -2.000e-01 0.000e+00 1.323e-03 6.912e-04 -7.953e-04
213 1 0.000e+00 1.000e-01 0.000e+00 3.377e-04 7.901e-04 -8.166e-04
214 1 1.000e-01 0.000e+00 0.000e+00 -7.396e-04 1.132e-03 -1.141e-03
215 1 1.000e-01 -1.000e-01 0.000e+00 -4.581e-04 7.483e-04 6.621e-04
216 1 -1.000e-01 0.000e+00 0.000e+00 2.483e-03 -1.928e-04 7.400e-04
ITEM: TIMESTEP
0
ITEM: NUMBER OF ATOMS
12
ITEM: BOX BOUNDS xy xz yz pp pp pp
                     -5.00000000000000e-01 5.00000000000000e-01 0.00000000000000e+00
-5.00000000000000e-01	5.00000000000000e-01	0.00000000000000e+00
-5.00000000000000e-01	5.00000000000000e-01	0.00000000000000e+00
ITEM: ATOMS id type x y z DisplacementX DisplacementY DisplacementZ
217 1 -1.000e-01 -1.000e-01 0.000e+00 -1.958e-03 2.270e-04 3.111e-05
218 1 0.000e+00 -2.000e-01 0.000e+00 4.027e-04 -1.017e-03 -2.417e-04
219 1 -1.000e-01 1.000e-01 0.000e+00 -1.292e-03 9.887e-04 -5.827e-04
220 1 0.000e+00 -1.000e-01 0.000e+00 -4.424e-04 -9.314e-04 1.177e-04
221 1 0.000e+00 2.000e-01 0.000e+00 -1.843e-04 -5.400e-04 -1.663e-03
222 1 0.000e+00 0.000e+00 0.000e+00 5.845e-05 9.996e-02 -6.227e-04
223 1 1.000e-01 -1.000e-01 0.000e+00 2.271e-04 -4.357e-04 8.293e-04
224 1 -1.000e-01 0.000e+00 0.000e+00 1.366e-03 4.665e-04 -1.456e-03
225 1 1.000e-01 1.000e-01 0.000e+00 1.394e-03 -3.702e-04 -2.195e-05
226 1 -2.000e-01 0.000e+00 0.000e+00 8.958e-05 1.016e-03 1.659e-03
227 1 2.000e-01 0.000e+00 0.000e+00 1.269e-04 7.049e-04 7.072e-04
228 1 1.000e-01 0.000e+00 0.000e+00 -2.869e-04 -1.770e-03 -1.574e-03
ITEM: TIMESTEP
0
ITEM: NUMBER OF ATOMS
12
ITEM: BOX BOUNDS xy xz yz pp pp pp
                     -5.00000000000000e-01 5.00000000000000e-01 0.00000000000000e+00
-5.00000000000000e-01	5.00000000000000e-01	0.00000000000000e+00
-5.00000000000000e-01	5.00000000000000e-01	0.00000000000000e+00
ITEM: ATOMS id type x y z DisplacementX DisplacementY DisplacementZ
229 1 -2.000e-01 0.000e+00 0.000e+00 5.474e-04 1.207e-03 -4.416e-04
230 1 0.000e+00 2.000e-01 0.000e+00 6.397e-04 -2.035e-03 1.299e-03
231 1 -1.000e-01 1.000e-01 0.000e+00 1.500e-04 -9.342e-04 1.888e-03
232 1 1.000e-01 0.000e+00 0.000e+00 1.011e-03 2.732e-03 3.593e-04
233 1 1.000e-01 1.000e-01 0.000e+00 -1.994e-04 4.074e-04 7.623e-04
234 1 -1.000e-01 -1.000e-01 0.000e+00 7.268e-04 3.625e-04 -7.926e-04
235 1 2.000e-01 0.000e+00 0.000e+00 9.901e-05 -2.425e-04 2.120e-04
236 1 0.000e+00 -2.000e-01 0.000e+00 -2.520e-04 8.186e-04 -2.145e-03
237 1 0.000e+00 1.000e-01 0.000e+00 3.692e-04 -1.015e-04 -4.004e-04
238 1 0.000e+00 0.000e+00 0.000e+00 -1.003e-01 7.183e-05 -1.559e-03
239 1 1.000e-01 -1.000e-01 0.000e+00 -1.864e-03 2.754e-03 2.235e-03
240 1 0.000e+00 -1.000e-01 0.000e+00 3.141e-04 8.088e-06 -1.336e-03
