ITEM: TIMESTEP
0
ITEM: NUMBER OF ATOMS
32
ITEM: BOX BOUNDS xy xz yz pp pp pp
                     -5.00000000000000e-01 5.00000000000000e-01 0.00000000000000e+00
-5.00000000000000e-01	5.00000000000000e-01	0.00000000000000e+00
-5.00000000000000e-01	5.00000000000000e-01	0.00000000000000e+00
ITEM: ATOMS id type x y z DisplacementX DisplacementY DisplacementZ
1 1 0.000e+00 -2.000e-01 0.000e+00 1.594e-03 -7.563e-05 -2.533e-04
2 1 2.000e-01 2.000e-01 2.000e-01 5.806e-04 8.025e-04 1.319e-03
3 1 2.000e-01 2.000e-01 0.000e+00 1.044e-03 -1.514e-03 4.246e-04
4 1 -2.000e-01 -2.000e-01 2.000e-01 -8.542e-04 5.215e-04 9.599e-04
5 1 2.000e-01 0.000e+00 2.000e-01 -1.419e-03 -4.794e-05 -1.724e-03
6 1 -4.000e-01 0.000e+00 0.000e+00 -7.720e-04 5.280e-04 -7.058e-05
7 1 0.000e+00 0.000e+00 0.000e+00 -1.041e-03 -2.025e-03 -2.004e-01
8 1 -2.000e-01 0.000e+00 2.000e-01 -4.035e-04 -2.088e-03 1.693e-04
9 1 2.000e-01 0.000e+00 -2.000e-01 6.969e-04 -2.052e-04 1.072e-03
10 1 -2.000e-01 0.000e+00 0.000e+00 -4.052e-05 1.770e-04 -1.925e-03
11 1 -2.000e-01 2.000e-01 0.000e+00 2.046e-04 1.317e-03 6.258e-04
12 1 2.000e-01 0.000e+00 0.000e+00 -5.512e-04 1.021e-03 -4.579e-04
13 1 0.000e+00 2.000e-01 -2.000e-01 5.363e-04 5.168e-04 8.780e-04
14 1 0.000e+00 2.000e-01 0.000e+00 -1.681e-03 1.054e-03 1.705e-03
15 1 0.000e+00 0.000e+00 2.000e-01 1.817e-03 -4.631e-05 -2.520e-05
16 1 0.000e+00 -2.000e-01 -2.000e-01 7.003e-04 -2.854e-04 -1.231e-03
17 1 0.000e+00 4.000e-01 0.000e+00 -9.608e-04 5.020e-04 1.071e-04
18 1 0.000e+00 0.000e+00 4.000e-01 5.781e-04 -8.165e-04 -2.844e-04
19 1 -2.000e-01 -2.000e-01 0.000e+00 1.881e-03 1.958e-03 8.924e-04
20 1 0.000e+00 2.000e-01 2.000e-01 -8.900e-04 2.993e-04 -7.802e-04
21 1 0.000e+00 -2.000e-01 2.000e-01 -1.488e-03 -3.210e-04 8.539e-04
22 1 -2.000e-01 2.000e-01 -2.000e-01 -4.819e-04 -4.624e-04 -9.590e-04
23 1 2.000e-01 -2.000e-01 0.000e+00 -1.862e-03 1.862e-03 1.050e-03
24 1 -2.000e-01 2.000e-01 2.000e-01 1.040e-03 1.004e-03 5.151e-05
25 1 2.000e-01 -2.000e-01 2.000e-01 -4.788e-04 -4.412e-04 1.124e-04
26 1 0.000e+00 0.000e+00 -4.000e-01 1.303e-03 -1.329e-03 -3.249e-04
27 1 4.000e-01 0.000e+00 0.000e+00 -1.902e-04 -9.331e-04 -5.902e-04
28 1 -2.000e-01 0.000e+00 -2.000e-01 -1.387e-03 1.677e-03 -8.311e-04
29 1 -2.000e-01 -2.000e-01 -2.000e-01 2.710e-04 -1.873e-03 -5.251e-04
30 1 0.000e+00 -4.000e-01 0.000e+00 4.577e-04 -8.802e-04 1.264e-03
31 1 2.000e-01 2.000e-01 -2.000e-01 -1.553e-04 -1.026e-03 -1.701e-03
32 1 2.000e-01 -2.000e-01 -2.000e-01 8.113e-05 1.487e-03 -2.451e-04
ITEM: TIMESTEP
0
ITEM: NUMBER OF ATOMS
32
ITEM: BOX BOUNDS xy xz yz pp pp pp
                     -5.00000000000000e-01 5.00000000000000e-01 0.00000000000000e+00
-5.00000000000000e-01	5.00000000000000e-01	0.00000000000000e+00
-5.00000000000000e-01	5.00000000000000e-01	0.00000000000000e+00
ITEM: ATOMS id type x y z DisplacementX DisplacementY DisplacementZ
33 1 -2.000e-01 -2.000e-01 2.000e-01 -6.792e-04 -2.632e-04 8.611e-04
34 1 0.000e+00 2.000e-01 2.000e-01 5.037e-05 -3.969e-04 -7.458e-04
35 1 0.000e+00 0.000e+00 4.000e-01 -2.787e-04 -3.818e-05 8.436e-05
36 1 2.000e-01 -2.000e-01 0.000e+00 7.896e-04 6.688e-04 -1.250e-03
37 1 -2.000e-01 0.000e+00 2.000e-01 6.034e-04 4.393e-04 -1.126e-03
38 1 0.000e+00 0.000e+00 0.000e+00 -1.994e-01 1.530e-03 1.812e-03
39 1 4.000e-01 0.000e+00 0.000e+00 -1.108e-03 4.065e-04 1.632e-03
40 1 0.000e+00 0.000e+00 2.000e-01 -1.811e-05 -1.431e-04 -1.674e-04
41 1 0.000e+00 0.000e+00 -2.000e-01 1.128e-03 2.828e-04 7.833e-04
42 1 2.000e-01 2.000e-01 -2.000e-01 4.311e-05 -8.541e-04 -1.201e-04
43 1 2.000e-01 0.000e+00 0.000e+00 4.184e-04 -7.074e-04 1.633e-03
44 1 -2.000e-01 2.000e-01 0.000e+00 -7.304e-04 9.931e-04 -4.364e-04
45 1 -2.000e-01 2.000e-01 2.000e-01 -1.507e-04 2.298e-03 2.059e-03
46 1 0.000e+00 4.000e-01 0.000e+00 -9.035e-05 2.667e-04 2.568e-04
47 1 2.000e-01 -2.000e-01 2.000e-01 8.224e-04 -8.368e-05 2.806e-04
48 1 -2.000e-01 -2.000e-01 0.000e+00 5.156e-04 1.620e-03 -1.144e-04
49 1 2.000e-01 2.000e-01 2.000e-01 -2.692e-04 -1.963e-03 -4.220e-04
50 1 -2.000e-01 -2.000e-01 -2.000e-01 3.068e-04 -1.132e-03 1.032e-05
51 1 0.000e+00 -2.000e-01 2.000e-01 3.183e-04 5.851e-04 -7.982e-04
52 1 0.000e+00 2.000e-01 -2.000e-01 -5.163e-04 -1.808e-03 1.465e-03
53 1 2.000e-01 0.000e+00 -2.000e-01 -6.924e-04 -1.632e-03 -1.075e-03
54 1 -2.000e-01 0.000e+00 -2.000e-01 7.753e-04 -6.961e-04 -5.790e-04
55 1 0.000e+00 0.000e+00 -4.000e-01 1.182e-03 -1.233e-03 -3.807e-04
56 1 2.000e-01 0.000e+00 2.000e-01 -2.478e-04 -4.781e-04 9.354e-04
57 1 -4.000e-01 0.000e+00 0.000e+00 -7.524e-04 -6.117e-04 1.881e-05
58 1 2.000e-01 2.000e-01 0.000e+00 5.711e-04 6.139e-04 1.122e-03
59 1 0.000e+00 -4.000e-01 0.000e+00 -2.399e-04 6.915e-07 4.802e-04
60 1 0.000e+00 -2.000e-01 -2.000e-01 -8.564e-05 -2.584e-04 -1.792e-03
61 1 -2.000e-01 2.000e-01 -2.000e-01 1.743e-03 -5.307e-04 1.327e-03
62 1 2.000e-01 -2.000e-01 -2.000e-01 -3.087e-04 -3.006e-04 -7.052e-04
63 1 0.000e+00 2.000e-01 0.000e+00 3.347e-04 7.196e-04 -4.883e-04
64 1 0.000e+00 -2.000e-01 0.000e+00 -2.610e-04 -3.398e-04 5.257e-04
ITEM: TIMESTEP
0
ITEM: NUMBER OF ATOMS
32
ITEM: BOX BOUNDS xy xz yz pp pp pp
                     -5.00000000000000e-01 5.00000000000000e-01 0.00000000000000e+00
-5.00000000000000e-01	5.00000000000000e-01	0.00000000000000e+00
-5.00000000000000e-01	5.00000000000000e-01	0.00000000000000e+00
ITEM: ATOMS id type x y z DisplacementX DisplacementY DisplacementZ
65 1 0.000e+00 4.000e-01 0.000e+00 -2.044e-05 -1.606e-03 -1.891e-04
66 1 -2.000e-01 2.000e-01 2.000e-01 -7.069e-04 1.554e-03 1.289e-03
67 1 2.000e-01 2.000e-01 2.000e-01 3.964e-04 1.491e-03 1.483e-03
68 1 2.000e-01 0.000e+00 2.000e-01 1.171e-03 1.526e-05 1.465e-03
69 1 -2.000e-01 2.000e-01 -2.000e-01 8.088e-04 4.758e-04 -1.554e-03
70 1 0.000e+00 -2.000e-01 2.000e-01 1.068e-03 1.079e-05 6.391e-04
71 1 2.000e-01 -2.000e-01 0.000e+00 -5.532e-05 -1.033e-03 4.492e-05
72 1 -2.000e-01 -2.000e-01 2.000e-01 -1.092e-03 1.919e-03 1.413e-03
73 1 -2.000e-01 0.000e+00 2.000e-01 1.509e-03 7.994e-05 2.665e-04
74 1 2.000e-01 -2.000e-01 2.000e-01 1.006e-04 1.731e-03 7.138e-04
75 1 2.000e-01 2.000e-01 -2.000e-01 -1.353e-03 -4.156e-04 6.306e-04
76 1 2.000e-01 -2.000e-01 -2.000e-01 -1.532e-04 -1.229e-04 3.804e-04
77 1 -4.000e-01 0.000e+00 0.000e+00 4.270e-05 1.282e-03 2.341e-04
78 1 -2.000e-01 -2.000e-01 -2.000e-01 9.753e-04 -1.696e-03 5.103e-06
79 1 0.000e+00 0.000e+00 -4.000e-01 -2.138e-04 1.326e-03 4.700e-04
80 1 0.000e+00 0.000e+00 0.000e+00 -1.056e-04 -2.008e-01 7.415e-04
81 1 0.000e+00 0.000e+00 2.000e-01 6.697e-04 6.543e-04 4.628e-04
82 1 2.000e-01 2.000e-01 0.000e+00 -9.395e-04 -7.447e-04 -9.644e-04
83 1 0.000e+00 -4.000e-01 0.000e+00 4.870e-05 2.287e-04 3.012e-04
84 1 0.000e+00 2.000e-01 2.000e-01 -7.657e-04 -5.810e-04 -3.665e-05
85 1 0.000e+00 2.000e-01 -2.000e-01 7.525e-04 -9.213e-04 7.437e-04
86 1 -2.000e-01 2.000e-01 0.000e+00 -5.822e-05 -9.186e-04 3.154e-05
87 1 0.000e+00 0.000e+00 4.000e-01 8.958e-04 1.158e-04 -1.025e-03
88 1 -2.000e-01 0.000e+00 0.000e+00 1.202e-03 1.046e-03 -2.709e-03
89 1 2.000e-01 0.000e+00 -2.000e-01 -5.847e-05 -5.532e-04 3.821e-05
90 1 0.000e+00 -2.000e-01 -2.000e-01 -1.178e-03 -9.543e-04 2.216e-04
91 1 -2.000e-01 -2.000e-01 0.000e+00 1.588e-04 -8.100e-04 -5.631e-04
92 1 4.000e-01 0.000e+00 0.000e+00 -5.337e-04 6.734e-04 7.349e-04
93 1 0.000e+00 2.000e-01 0.000e+00 -8.533e-05 -1.122e-03 4.273e-04
94 1 -2.000e-01 0.000e+00 -2.000e-01 2.501e-05 7.358e-04 -2.921e-04
95 1 0.000e+00 0.000e+00 -2.000e-01 1.322e-03 3.802e-04 5.097e-04
96 1 2.000e-01 0.000e+00 0.000e+00 9.654e-04 7.804e-04 -1.014e-03
