ITEM: TIMESTEP
0
ITEM: NUMBER OF ATOMS
47
ITEM: BOX BOUNDS xy xz yz pp pp pp
                     0.00000000000000e+00 1.06000000000000e+01 0.00000000000000e+00
0.00000000000000e+00	1.06000000000000e+01	0.00000000000000e+00
0.00000000000000e+00	1.06000000000000e+01	0.00000000000000e+00
ITEM: ATOMS id type x y z DisplacementX DisplacementY DisplacementZ
1 1 -8.114e-01 -7.337e-01 -5.605e-01 -1.034e-03 4.543e-03 1.083e-02
2 1 -1.138e-01 -1.335e+00 6.182e-01 -1.076e-02 -4.821e-03 1.168e-02
3 1 -1.401e+00 2.713e-01 1.360e+00 -1.562e-02 7.284e-03 2.552e-02
4 1 5.402e-01 -1.996e+00 -1.478e+00 -1.821e-02 -3.551e-03 3.040e-02
5 1 4.121e-01 1.768e+00 1.434e+00 -2.032e-02 1.473e-02 1.209e-02
6 1 -1.457e-01 3.567e-01 -8.813e-01 -3.548e-02 -7.288e-03 2.193e-02
7 1 -2.224e+00 5.561e-02 -1.148e+00 -3.579e-02 3.126e-03 3.043e-02
8 1 -1.116e+00 2.387e+00 6.055e-01 -2.835e-02 4.161e-03 2.333e-02
9 1 5.402e-01 -7.894e-01 -2.556e+00 -2.530e-02 -9.306e-03 2.072e-02
10 1 -3.097e-01 1.016e+00 4.922e-01 1.844e-03 9.296e-03 3.286e-03
11 1 5.631e-01 1.689e+00 -4.029e-01 -2.411e-02 -5.936e-03 2.487e-02
12 1 1.064e+00 8.882e-01 7.375e-01 -2.397e-02 -7.021e-03 2.105e-04
13 1 -9.635e-02 -3.608e-02 -2.023e-01 -1.913e-02 -6.302e-03 1.259e-02
14 1 -1.731e-01 5.705e-01 1.644e+00 -1.511e-02 1.179e-02 1.327e-02
15 1 3.238e-01 1.702e+00 -2.675e-01 -2.714e-02 -5.700e-03 1.786e-02
16 1 -1.528e+00 -3.481e-01 3.338e-01 -2.589e-02 -1.643e-02 2.114e-02
17 1 -9.392e-01 -4.724e-01 -3.111e-01 -1.133e-02 1.229e-03 1.395e-03
18 1 -7.536e-02 1.622e-01 9.542e-01 3.885e-03 -2.984e-03 2.392e-02
19 1 -8.237e-01 6.196e-01 1.078e+00 1.129e-02 1.255e-02 3.176e-02
20 1 6.214e-01 -2.444e+00 -4.139e-01 -3.146e-02 -7.971e-03 2.177e-02
21 1 9.143e-02 1.337e+00 7.826e-01 -8.319e-03 -5.407e-03 2.404e-02
22 1 -6.734e-02 -6.649e-01 1.283e+00 -1.820e-02 3.681e-04 2.929e-03
23 1 6.895e-02 4.112e-01 1.161e+00 -2.446e-02 1.835e-03 3.037e-02
24 1 5.754e-02 1.076e+00 5.630e-01 -4.570e-03 -3.142e-03 1.579e-02
25 1 2.538e-01 -7.680e-02 -2.147e-01 -6.801e-03 1.573e-02 2.436e-02
26 1 -2.101e-02 -1.029e+00 -1.117e+00 -1.377e-02 4.696e-03 2.662e-02
27 1 3.720e-01 -5.364e-01 1.256e+00 -5.196e-02 -2.843e-03 1.330e-02
28 1 -1.558e-01 -3.803e-01 5.154e-02 -1.963e-02 2.063e-02 1.550e-02
29 1 1.203e+00 -1.003e+00 -1.160e+00 -3.854e-03 -1.791e-02 2.597e-02
30 1 6.858e-01 1.557e+00 -1.022e+00 -1.762e-02 2.354e-02 6.854e-03
31 1 -1.795e+00 -3.221e-01 -1.965e-01 -7.674e-03 -1.413e-02 3.419e-02
32 1 2.907e-02 -8.748e-01 5.869e-01 -6.983e-03 -1.072e-02 2.249e-02
33 1 -2.091e-01 7.369e-02 -1.044e+00 -9.635e-03 -6.851e-03 5.370e-03
34 1 1.017e+00 -1.982e-01 -5.056e-02 -2.205e-02 1.772e-02 2.755e-02
35 1 -2.271e-01 5.491e-01 -1.808e+00 -2.060e-02 1.778e-04 2.346e-02
36 1 1.524e-01 7.849e-01 -3.164e-01 1.743e+00 1.509e-02 -1.744e+00
37 1 -4.092e-01 -1.536e+00 1.149e+00 -2.130e-02 2.412e-02 2.656e-02
38 1 1.726e-01 4.818e-01 -1.239e+00 -2.536e-02 5.631e-03 2.412e-02
39 1 7.647e-01 -1.740e+00 1.938e+00 -3.835e-02 -1.119e-02 2.777e-02
40 1 5.961e-01 1.039e+00 -1.005e+00 -2.354e-02 1.281e-02 2.314e-02
41 1 1.215e+00 -1.451e+00 -3.718e-01 -5.049e-02 -5.637e-03 -6.975e-04
42 1 -9.408e-02 -1.856e-01 6.902e-01 -3.242e-03 -1.425e-02 3.017e-02
43 1 6.507e-01 3.459e-01 -8.045e-01 -1.782e-02 -7.799e-03 4.691e-02
44 1 -3.841e-01 -1.174e-01 -3.328e-01 -2.277e-02 1.104e-02 2.811e-02
45 1 -1.253e+00 4.300e-01 4.059e-01 -1.126e-02 1.529e-02 2.125e-02
46 1 -3.351e-02 1.668e-01 1.308e-01 -5.208e-03 -1.105e-02 2.891e-02
47 1 -1.354e+00 4.924e-01 5.261e-01 -3.874e-04 1.438e-02 7.117e-03
ITEM: TIMESTEP
0
ITEM: NUMBER OF ATOMS
47
ITEM: BOX BOUNDS xy xz yz pp pp pp
                     0.00000000000000e+00 1.06000000000000e+01 0.00000000000000e+00
0.00000000000000e+00	1.06000000000000e+01	0.00000000000000e+00
0.00000000000000e+00	1.06000000000000e+01	0.00000000000000e+00
ITEM: ATOMS id type x y z DisplacementX DisplacementY DisplacementZ
48 1 -1.604e+00 4.092e-01 -8.109e-01 1.204e-02 -1.051e-02 4.088e-03
49 1 -4.789e-01 -8.464e-01 3.964e-02 6.250e-03 -3.141e-02 2.183e-02
50 1 -5.871e-02 3.305e-01 1.190e-01 -1.197e-02 -2.313e-02 3.828e-02
51 1 2.645e+00 -1.408e-01 2.229e-01 4.798e-03 -2.376e-02 2.386e-02
52 1 -5.941e-01 6.355e-01 -1.432e-01 1.385e-02 -1.951e-02 1.220e-02
53 1 -1.741e+00 6.730e-01 1.744e-01 -4.768e-03 -1.800e-02 1.694e-02
54 1 1.796e-01 -1.586e+00 -4.805e-02 -2.954e-03 -2.641e-02 2.473e-02
55 1 -4.452e-01 6.189e-01 -1.635e-01 5.264e-03 -2.725e-02 3.399e-02
56 1 -1.979e-01 7.219e-01 1.592e+00 5.394e-03 -1.745e-02 2.562e-02
57 1 -1.136e+00 4.873e-01 -4.927e-01 -1.720e-03 -3.990e-03 1.770e-02
58 1 1.076e+00 -4.952e-01 -2.997e-01 1.812e-03 -1.851e-02 2.706e-02
59 1 -3.869e-01 -9.987e-01 1.433e+00 -7.737e-03 -1.381e-02 2.387e-02
60 1 2.571e-01 -6.147e-01 1.631e+00 -1.695e-02 -7.714e-03 5.288e-03
61 1 1.080e+00 -1.513e+00 -3.799e-01 7.313e-03 -1.474e-02 3.372e-02
62 1 6.115e-02 7.948e-01 2.730e-01 2.595e-03 -2.573e-02 1.521e-02
63 1 1.336e+00 3.978e-01 1.157e+00 1.480e-02 -2.542e-02 3.359e-03
64 1 5.401e-01 1.783e+00 1.309e+00 -1.437e-02 -1.903e-02 2.418e-02
65 1 -8.457e-01 -9.612e-01 9.942e-01 5.059e-03 -3.341e-03 6.976e-03
66 1 -3.985e-01 -1.324e+00 -1.249e+00 -1.158e-02 -2.128e-02 1.434e-02
67 1 -7.170e-01 1.080e+00 2.324e-01 1.032e-02 -3.573e-03 2.976e-02
68 1 -9.921e-01 -6.494e-01 -6.146e-01 7.675e-03 -1.788e-02 2.711e-02
69 1 -2.182e-02 1.095e+00 -1.148e+00 1.027e-03 -2.137e-02 1.877e-02
70 1 -3.637e-01 7.854e-02 -1.823e+00 -4.750e-03 -1.750e-02 4.072e-02
71 1 -1.316e-01 1.232e+00 -1.807e+00 1.292e-03 -4.176e-02 2.059e-02
72 1 2.059e+00 -8.093e-01 1.239e+00 -1.466e-02 7.695e-04 1.994e-02
73 1 -2.189e+00 -3.162e-01 1.429e+00 9.330e-04 -5.464e-03 1.034e-02
74 1 5.718e-02 8.279e-01 8.347e-01 -1.817e-03 -2.392e-02 2.359e-02
75 1 -1.223e+00 -9.107e-01 -5.072e-01 7.618e-03 -4.970e-03 2.138e-02
76 1 7.775e-01 -4.635e-01 -1.099e+00 -1.680e-02 -4.168e-02 5.296e-03
77 1 1.233e+00 1.206e-01 1.311e+00 7.054e-03 -2.323e-02 1.278e-02
78 1 -2.208e+00 -1.765e-01 -1.857e-01 -5.495e-03 -1.229e-02 3.022e-02
79 1 -2.108e+00 9.064e-01 -3.904e-01 -1.043e-02 -1.391e-03 3.276e-02
80 1 -8.084e-01 8.336e-01 4.211e-01 1.018e-02 -8.792e-03 2.449e-02
81 1 1.574e-01 1.537e+00 -1.046e+00 -2.107e-03 -1.008e-02 3.232e-02
82 1 -1.657e-01 -8.469e-02 -1.337e+00 -1.089e-02 -3.363e-02 -1.066e-02
83 1 -1.628e-02 1.386e+00 -9.162e-01 -1.702e-02 1.724e+00 -1.734e+00
84 1 -2.207e+00 -3.392e-01 9.182e-01 -1.299e-02 -1.044e-02 2.568e-02
85 1 1.636e-01 2.524e-01 -6.091e-01 5.402e-03 -2.036e-02 3.731e-02
86 1 1.084e-02 -3.531e-01 1.461e+00 6.379e-03 -2.164e-02 2.154e-02
87 1 4.268e-01 -8.089e-01 -1.427e+00 1.313e-02 -1.481e-02 3.374e-02
88 1 -2.986e-01 6.773e-01 -2.631e-01 8.148e-03 -2.201e-02 -3.021e-02
89 1 1.886e+00 1.938e-01 -4.194e-01 7.533e-04 1.921e-02 2.276e-02
90 1 2.214e-01 2.924e-01 3.161e+00 1.139e-02 3.162e-03 5.955e-03
91 1 -2.282e+00 -1.376e-01 6.998e-01 -1.511e-02 -3.197e-02 3.133e-02
92 1 -1.804e+00 1.099e+00 2.727e-01 -1.416e-02 -2.801e-03 -7.974e-03
93 1 1.854e+00 1.878e+00 1.268e+00 7.014e-03 -2.203e-02 2.364e-02
94 1 -3.030e-01 -1.247e+00 -4.692e-01 -1.827e-02 -1.461e-02 1.920e-02
ITEM: TIMESTEP
0
ITEM: NUMBER OF ATOMS
47
ITEM: BOX BOUNDS xy xz yz pp pp pp
                     0.00000000000000e+00 1.06000000000000e+01 0.00000000000000e+00
0.00000000000000e+00	1.06000000000000e+01	0.00000000000000e+00
0.00000000000000e+00	1.06000000000000e+01	0.00000000000000e+00
ITEM: ATOMS id type x y z DisplacementX DisplacementY DisplacementZ
95 1 -1.725e+00 -3.222e-01 -9.507e-01 1.098e-02 -4.910e-03 2.698e-02
96 1 4.644e-01 1.431e-01 3.730e-01 2.925e-02 -6.346e-03 4.040e-02
97 1 3.795e-01 1.956e+00 -1.915e+00 1.139e-02 1.475e-02 3.280e-03
98 1 1.150e+00 -8.686e-02 -3.311e-01 -1.007e-02 1.006e-02 1.639e-02
99 1 -6.120e-01 -6.117e-01 -2.821e+00 5.811e-03 -3.439e-03 2.032e-02
100 1 -1.891e+00 -1.681e-01 7.074e-01 2.606e-02 -5.733e-03 8.965e-03
101 1 -1.165e-01 3.897e-01 5.625e-01 1.213e-02 -6.022e-03 4.060e-03
102 1 -6.567e-02 -1.270e+00 -9.747e-01 -2.289e-03 -2.413e-02 2.532e-02
103 1 1.169e+00 -3.620e-01 -1.018e+00 1.537e-02 -6.868e-03 1.189e-02
104 1 2.241e+00 7.005e-01 4.393e-01 1.808e-02 2.902e-03 2.613e-03
105 1 -6.013e-01 -3.760e-01 -1.732e-01 -1.530e-02 -6.793e-03 6.446e-03
106 1 -1.135e+00 -5.784e-01 3.558e-01 1.198e-03 6.882e-03 7.610e-03
107 1 2.035e-01 -1.282e+00 1.136e+00 2.115e-02 -1.497e-02 3.680e-03
108 1 -6.316e-01 1.101e+00 4.702e-01 2.748e-02 1.017e-02 1.992e-03
109 1 9.480e-01 1.747e-01 5.431e-01 3.500e-02 -1.506e-03 1.273e-02
110 1 -6.877e-01 7.132e-01 3.356e-01 2.593e-02 -1.307e-03 2.678e-02
111 1 -9.160e-01 1.397e+00 6.476e-01 2.685e-02 8.513e-03 1.872e-02
112 1 7.050e-01 -4.850e-01 2.994e-01 1.052e-02 -1.759e-02 1.552e-02
113 1 -9.864e-02 -1.221e+00 -1.610e+00 8.206e-03 -6.453e-03 2.470e-02
114 1 -4.859e-01 -7.395e-01 3.900e-01 2.077e-02 -2.122e-02 9.702e-03
115 1 -8.069e-01 -6.446e-01 -8.696e-01 2.118e-02 -4.339e-03 1.244e-03
116 1 1.516e+00 -1.382e-02 -8.741e-02 2.694e-02 -1.653e-02 1.113e-02
117 1 3.516e-01 -2.268e-01 -1.355e+00 7.059e-03 1.635e-02 9.999e-03
118 1 3.292e-01 -3.036e+00 1.860e-01 3.151e-02 -9.099e-03 2.204e-03
119 1 -2.141e-01 1.649e+00 -1.427e+00 4.738e-03 3.286e-03 4.154e-03
120 1 -4.339e-01 -1.473e+00 6.626e-01 1.519e-03 -1.705e-04 1.876e-02
121 1 -5.459e-01 5.569e-02 1.605e+00 3.541e-02 1.064e-02 1.791e-02
122 1 6.718e-01 -4.185e-02 2.321e+00 -1.919e-03 2.207e-02 2.393e-02
123 1 -1.091e+00 7.369e-01 3.569e-01 3.607e-02 2.672e-02 -1.412e-02
124 1 1.593e-01 6.728e-01 -5.924e-01 4.122e-03 1.377e-03 1.206e-02
125 1 4.645e-01 -1.862e+00 -2.488e-01 1.396e-02 -1.392e-02 8.443e-03
126 1 1.240e+00 -4.023e-02 -2.810e-01 6.986e-03 1.797e-02 1.201e-02
127 1 6.572e-01 1.700e+00 -7.776e-01 3.154e-02 -6.281e-03 1.028e-02
128 1 8.006e-01 -1.982e+00 -7.212e-01 1.693e-02 -3.999e-03 2.211e-02
129 1 2.682e+00 1.444e+00 -8.415e-01 9.259e-03 -7.313e-03 7.209e-03
130 1 -2.429e-01 3.033e-01 3.865e-01 -1.749e+00 1.022e-02 -1.734e+00
131 1 6.358e-01 3.666e-01 7.630e-01 2.192e-02 -2.912e-03 3.262e-02
132 1 -9.190e-01 2.359e-03 -2.946e-01 3.898e-02 5.686e-03 4.717e-02
133 1 -9.456e-01 -1.261e+00 1.703e-01 2.041e-02 1.435e-04 2.352e-02
134 1 -5.322e-01 -2.060e+00 -1.865e-01 3.929e-02 7.082e-04 1.266e-02
135 1 1.789e+00 1.216e+00 -2.865e-01 1.106e-02 7.154e-03 -8.845e-04
136 1 6.289e-01 6.884e-01 -1.244e+00 -6.138e-03 2.897e-03 2.304e-02
137 1 2.737e-01 -8.239e-01 -1.822e-01 2.581e-02 -1.141e-02 1.053e-02
138 1 -3.746e-01 -2.466e-01 1.135e+00 1.176e-02 5.887e-03 1.866e-02
139 1 -1.598e+00 -6.647e-01 4.177e-01 1.299e-02 1.124e-02 2.696e-03
140 1 -7.408e-01 2.288e+00 -1.717e+00 1.798e-02 -1.050e-02 2.220e-02
141 1 3.825e-01 -3.793e-01 -1.530e+00 3.282e-02 -1.176e-02 2.518e-02
ITEM: TIMESTEP
0
ITEM: NUMBER OF ATOMS
47
ITEM: BOX BOUNDS xy xz yz pp pp pp
                     0.00000000000000e+00 1.06000000000000e+01 0.00000000000000e+00
0.00000000000000e+00	1.06000000000000e+01	0.00000000000000e+00
0.00000000000000e+00	1.06000000000000e+01	0.00000000000000e+00
ITEM: ATOMS id type x y z DisplacementX DisplacementY DisplacementZ
142 1 2.349e+00 -8.354e-01 2.703e-01 1.122e-02 3.264e-03 -1.100e-02
143 1 2.872e+00 -1.288e-01 -4.361e-01 1.033e-02 3.980e-03 5.892e-03
144 1 -2.020e-01 -5.020e-01 3.625e-01 8.912e-03 1.015e-02 2.224e-02
145 1 1.217e+00 1.990e-01 -1.010e+00 1.992e-02 1.154e-02 1.164e-02
146 1 5.344e-01 1.150e+00 1.427e+00 -1.888e-02 2.282e-02 1.062e-02
147 1 -8.063e-01 -1.366e+00 4.431e-01 1.387e-03 1.109e-02 3.062e-02
148 1 1.399e+00 9.001e-01 -5.164e-01 8.786e-03 7.452e-03 2.482e-02
149 1 -4.310e-01 7.082e-02 1.699e+00 1.516e-02 1.122e-02 1.318e-02
150 1 -4.837e-01 5.390e-01 -1.436e+00 1.610e-02 -1.236e-03 2.524e-02
151 1 6.796e-01 -1.930e+00 -1.460e+00 1.656e-03 1.256e-02 2.348e-02
152 1 1.931e+00 1.436e+00 1.149e+00 6.139e-03 3.363e-02 1.795e-02
153 1 -3.766e-01 -1.644e+00 -3.509e-01 -8.631e-03 2.771e-02 2.814e-02
154 1 4.535e-01 2.173e-01 1.163e-01 -4.166e-04 1.554e-02 1.181e-03
155 1 9.870e-01 8.965e-01 9.601e-01 8.136e-03 4.314e-03 1.181e-02
156 1 6.587e-01 3.152e-01 -1.701e-01 1.201e-02 3.177e-02 2.539e-02
157 1 6.061e-01 7.811e-01 -1.036e+00 7.936e-03 1.436e-02 1.653e-02
158 1 -8.291e-01 -7.544e-01 1.830e+00 -1.410e-02 2.271e-02 1.300e-02
159 1 7.769e-01 -1.605e+00 1.837e+00 2.830e-03 1.539e-02 3.591e-04
160 1 -1.004e+00 4.810e-01 -4.362e-01 -9.836e-03 1.370e-02 1.572e-02
161 1 -2.329e-01 1.710e-01 -1.419e+00 6.933e-03 1.692e-02 2.500e-02
162 1 1.021e+00 2.671e-01 -8.660e-01 -1.429e-02 1.194e-02 2.548e-02
163 1 5.257e-01 -5.217e-01 6.346e-01 2.718e-03 6.501e-03 6.647e-03
164 1 -3.236e-01 1.924e-01 -1.438e+00 1.338e-02 1.911e-02 1.069e-02
165 1 -1.621e+00 8.916e-01 2.161e-01 4.697e-03 1.042e-02 1.346e-02
166 1 -1.917e+00 -4.851e-01 5.817e-01 -2.442e-02 2.569e-02 3.114e-02
167 1 -9.417e-01 1.455e-01 1.380e+00 -1.127e-02 1.685e-02 9.991e-03
168 1 2.143e-01 -6.765e-01 1.575e+00 1.284e-02 1.744e-02 1.857e-03
169 1 6.472e-01 -1.446e+00 1.109e+00 1.479e-03 -5.097e-03 1.795e-02
170 1 -3.524e-01 -1.790e-02 1.029e+00 -6.504e-04 2.352e-02 -3.400e-03
171 1 9.670e-02 1.213e+00 8.476e-01 -1.465e-02 1.233e-02 3.057e-02
172 1 -6.326e-01 -7.897e-01 -4.222e-01 1.118e-02 8.445e-03 1.410e-02
173 1 -6.787e-01 -5.010e-01 1.025e+00 -4.135e-03 1.406e-02 1.967e-02
174 1 -7.841e-01 2.554e-02 7.964e-01 3.976e-03 1.523e-02 1.662e-02
175 1 2.191e-02 1.392e+00 -9.259e-01 -4.727e-03 7.519e-03 4.608e-02
176 1 2.279e-01 1.886e-01 3.540e-01 2.668e-03 1.901e-02 1.600e-02
177 1 -3.575e-01 6.174e-01 5.449e-01 -1.313e-02 -1.739e+00 -1.723e+00
178 1 -1.778e+00 -1.660e+00 1.851e-01 -2.222e-03 1.529e-02 2.029e-02
179 1 7.848e-01 -4.271e-01 6.444e-01 -3.269e-03 4.806e-02 2.850e-02
180 1 1.157e-01 -5.149e-01 8.975e-01 1.901e-02 8.797e-03 2.054e-02
181 1 -3.535e-01 -1.146e+00 2.282e-01 -1.280e-02 3.383e-02 3.362e-02
182 1 6.813e-01 9.765e-01 -1.224e+00 -1.177e-02 2.453e-02 1.219e-02
183 1 -1.860e+00 1.904e-01 -1.940e+00 8.861e-03 1.210e-02 2.875e-02
184 1 -2.339e-02 8.474e-02 -2.025e+00 -2.484e-05 1.316e-02 8.393e-03
185 1 -9.936e-01 6.931e-01 1.517e-01 -2.666e-02 5.113e-04 8.591e-03
186 1 4.825e-01 2.274e+00 8.689e-01 2.474e-03 2.355e-02 1.393e-02
187 1 2.142e+00 -1.528e+00 1.197e+00 -4.684e-03 1.507e-02 2.930e-02
188 1 -4.783e-01 -1.079e+00 -1.121e+00 2.258e-02 2.297e-02 1.601e-02
ITEM: TIMESTEP
0
ITEM: NUMBER OF ATOMS
47
ITEM: BOX BOUNDS xy xz yz pp pp pp
                     0.00000000000000e+00 1.06000000000000e+01 0.00000000000000e+00
0.00000000000000e+00	1.06000000000000e+01	0.00000000000000e+00
0.00000000000000e+00	1.06000000000000e+01	0.00000000000000e+00
ITEM: ATOMS id type x y z DisplacementX DisplacementY DisplacementZ
189 1 -1.359e+00 5.619e-02 1.082e+00 -1.373e-02 4.196e-03 -7.519e-03
190 1 -4.561e-01 -2.149e-01 -4.644e-01 -9.549e-03 3.377e-03 -2.521e-02
191 1 -5.167e-01 -2.085e+00 5.609e-02 -4.593e-03 -2.222e-03 -1.209e-02
192 1 2.144e+00 -1.052e-01 4.181e-01 -2.466e-02 1.019e-03 -1.646e-02
193 1 8.905e-02 -1.622e+00 7.431e-02 -1.805e-02 -1.049e-02 -1.139e-02
194 1 6.692e-01 -1.302e+00 3.032e+00 3.365e-03 5.000e-03 -1.534e-02
195 1 -1.197e+00 -7.214e-01 -6.453e-01 -7.158e-03 -2.192e-02 -3.492e-02
196 1 2.532e-01 -3.778e-02 -9.801e-02 -1.621e-02 1.142e-03 -2.581e-02
197 1 1.096e+00 -2.060e+00 1.442e+00 -3.053e-02 -3.932e-03 -7.383e-03
198 1 -6.738e-01 1.901e-01 8.847e-01 -1.260e-02 6.489e-03 -1.089e-02
199 1 -5.162e-01 -4.780e-01 1.042e+00 -1.640e-02 1.028e-02 1.485e-03
200 1 -5.611e-01 1.120e-01 1.335e-02 -1.843e-02 -7.341e-03 -1.422e-02
201 1 -1.293e+00 4.010e-01 4.995e-01 -2.524e-02 -1.053e-02 -1.513e-02
202 1 1.496e+00 4.817e-01 8.680e-01 2.423e-03 -7.707e-04 -1.713e-02
203 1 2.242e-01 1.637e+00 -6.897e-01 -2.148e-02 3.279e-03 -3.497e-02
204 1 -6.767e-01 1.099e+00 2.337e+00 -1.932e-02 3.485e-03 -3.595e-03
205 1 -1.078e+00 -1.512e-02 1.039e+00 -8.213e-03 2.162e-02 -1.251e-02
206 1 2.750e-01 5.443e-01 9.874e-01 -1.321e-02 -1.567e-04 -5.790e-04
207 1 3.280e-01 4.076e-01 -1.355e+00 -2.703e-02 2.536e-03 -1.310e-02
208 1 -8.357e-01 -3.151e-01 -6.265e-02 -1.952e-02 -7.458e-03 -1.597e-02
209 1 -5.807e-01 -5.821e-03 5.498e-01 -1.967e-02 1.367e-02 -1.958e-02
210 1 -8.976e-01 -9.572e-01 1.332e-01 -2.680e-02 5.038e-03 -2.156e-02
211 1 9.052e-01 1.793e-01 1.456e-01 -3.215e-02 -9.401e-03 -1.492e-02
212 1 -4.977e-01 -2.295e+00 3.412e-01 3.760e-03 1.615e-02 -2.808e-02
213 1 -3.799e-01 -6.742e-01 1.997e-01 -2.235e-03 3.710e-03 -1.971e-02
214 1 3.282e-01 -2.188e-03 -6.767e-01 -2.154e-02 -5.459e-03 -1.768e-02
215 1 -7.216e-01 6.635e-01 -1.432e+00 -2.037e-02 2.265e-02 -2.000e-02
216 1 6.701e-01 2.457e-01 -7.727e-01 -1.863e-02 -8.286e-03 -2.375e-03
217 1 -1.211e+00 2.813e-01 1.395e+00 -1.262e-03 2.466e-02 -2.029e-02
218 1 -1.480e+00 7.741e-01 1.857e+00 -2.900e-02 -1.660e-03 -1.946e-02
219 1 -8.573e-01 8.332e-01 -1.351e+00 -1.423e-02 -3.489e-02 -3.642e-02
220 1 2.209e-01 6.482e-01 -5.760e-01 -1.937e-02 -6.437e-03 -1.692e-02
221 1 1.876e-01 1.433e+00 -2.557e-01 -2.058e-02 -1.554e-02 -1.933e-02
222 1 -4.466e-01 3.007e-02 7.180e-01 -4.228e-02 -9.494e-03 8.174e-03
223 1 1.017e-01 2.938e-01 1.470e+00 -1.108e-02 -1.651e-03 -1.363e-02
224 1 -4.746e-01 -7.643e-01 4.874e-02 1.727e+00 8.804e-03 1.736e+00
225 1 1.986e+00 -1.933e+00 -4.021e-01 -3.979e-02 -1.077e-02 -2.093e-02
226 1 1.046e+00 -4.738e-02 1.239e+00 -9.450e-03 -5.089e-03 -5.266e-02
227 1 -1.730e+00 8.601e-01 -2.754e-01 -3.589e-02 8.407e-03 -1.460e-02
228 1 -2.384e+00 2.138e+00 -8.524e-01 -3.287e-02 -3.289e-03 -1.016e-02
229 1 -1.171e+00 2.692e-01 1.205e+00 1.070e-03 -4.231e-03 -5.055e-02
230 1 7.228e-01 -9.739e-01 8.553e-01 -2.119e-02 -3.969e-03 -5.657e-03
231 1 -1.718e+00 4.827e-01 -1.482e+00 -1.360e-02 -4.421e-03 -1.365e-02
232 1 -1.543e-01 -2.136e-01 1.050e+00 -1.788e-02 3.061e-02 -1.477e-02
233 1 -4.569e-01 -4.065e-01 8.674e-01 -1.411e-02 2.090e-02 -1.799e-02
234 1 -1.809e+00 2.873e-01 -5.283e-01 -2.071e-02 -9.248e-03 -3.816e-03
235 1 1.059e-01 -1.080e+00 -1.791e+00 -5.983e-03 -5.901e-03 -1.256e-02
ITEM: TIMESTEP
0
ITEM: NUMBER OF ATOMS
47
ITEM: BOX BOUNDS xy xz yz pp pp pp
                     0.00000000000000e+00 1.06000000000000e+01 0.00000000000000e+00
0.00000000000000e+00	1.06000000000000e+01	0.00000000000000e+00
0.00000000000000e+00	1.06000000000000e+01	0.00000000000000e+00
ITEM: ATOMS id type x y z DisplacementX DisplacementY DisplacementZ
236 1 3.524e-01 7.595e-01 6.089e-02 -9.441e-03 -1.470e-03 7.773e-03
237 1 -1.986e+00 2.010e+00 5.256e-01 -3.208e-02 -2.779e-02 -1.463e-02
238 1 1.862e-01 -1.237e-01 9.728e-01 -2.359e-02 -1.392e-02 -9.628e-03
239 1 1.086e+00 8.026e-01 -1.582e+00 -3.499e-02 -1.329e-02 9.237e-03
240 1 5.310e-01 1.921e+00 -3.998e-01 -4.758e-03 -1.984e-02 -3.286e-03
241 1 -5.525e-01 -4.822e-01 1.016e+00 -7.939e-03 -2.570e-02 1.121e-03
242 1 -9.273e-01 3.037e-01 -3.379e-01 -8.990e-03 -8.144e-03 6.809e-03
243 1 4.433e-01 1.267e+00 3.956e-01 -2.645e-02 -1.135e-02 -4.227e-03
244 1 4.327e-01 9.472e-01 -2.644e-02 -1.727e-02 -1.376e-02 2.952e-03
245 1 9.226e-01 -2.797e-02 -1.167e+00 -5.739e-03 -4.536e-02 7.608e-03
246 1 1.897e-01 -5.857e-02 1.322e-01 -2.462e-02 -2.258e-02 -8.775e-03
247 1 -9.557e-02 5.779e-01 -1.364e+00 -1.707e-02 -7.580e-03 -6.668e-03
248 1 9.592e-01 1.164e-01 -3.140e-01 -8.606e-03 -2.577e-02 2.270e-02
249 1 1.154e+00 -1.722e+00 3.126e-01 -5.306e-03 -1.255e-02 1.545e-03
250 1 4.898e-01 -1.275e+00 5.114e-01 -9.660e-03 -2.451e-02 -8.882e-03
251 1 -6.929e-01 -2.632e-01 -1.600e+00 4.452e-03 -1.874e-02 5.744e-03
252 1 -6.622e-02 1.448e-01 7.449e-01 -5.486e-03 -9.858e-03 6.836e-03
253 1 2.113e+00 1.077e+00 1.584e+00 -2.164e-02 -1.371e-02 -1.262e-02
254 1 5.669e-02 -1.138e+00 1.755e-01 -3.540e-02 1.004e-02 9.514e-03
255 1 5.365e-02 -1.620e+00 3.593e-01 -2.734e-02 -1.884e-02 8.475e-03
256 1 3.124e-01 7.764e-01 -1.259e+00 -2.903e-02 -2.105e-02 -7.916e-03
257 1 -2.493e+00 3.862e-01 1.132e-01 -2.721e-02 -2.581e-02 6.331e-03
258 1 1.424e-01 -1.203e+00 -1.742e+00 -2.130e-02 -2.149e-02 -1.966e-02
259 1 1.495e-01 -1.317e+00 -1.004e+00 -2.311e-02 -2.463e-02 2.289e-02
260 1 -1.048e+00 -3.112e-01 -2.465e-01 -3.484e-02 -1.935e-02 -4.517e-03
261 1 6.397e-01 7.903e-01 5.952e-01 -2.025e-02 -4.511e-03 -1.330e-02
262 1 3.365e-01 1.912e-01 -7.820e-02 -1.797e-02 -3.246e-02 5.349e-03
263 1 6.577e-01 -6.789e-01 -9.933e-01 -2.324e-02 -5.238e-03 -7.034e-03
264 1 -4.026e-01 1.108e+00 3.251e-02 1.749e-03 -4.476e-02 7.464e-03
265 1 -3.186e-01 -1.213e-01 2.056e-01 -1.842e-02 -3.892e-03 2.235e-02
266 1 1.508e+00 -1.353e+00 6.679e-01 -2.050e-02 6.725e-03 -2.595e-02
267 1 3.918e-01 3.542e-01 9.585e-03 -2.082e-02 -1.599e-02 2.018e-02
268 1 -1.442e+00 -8.572e-01 -9.864e-01 -3.410e-02 -1.181e-02 -6.664e-03
269 1 2.022e-01 7.542e-01 1.164e+00 -1.718e-02 -2.023e-02 -5.952e-03
270 1 7.243e-01 -6.697e-01 1.225e+00 -1.434e-02 -1.437e-02 -5.805e-03
271 1 9.500e-01 8.029e-01 -1.200e+00 1.734e+00 1.728e+00 4.021e-03
272 1 9.137e-01 -2.031e+00 -1.425e+00 7.230e-03 -1.379e-02 1.033e-03
273 1 1.640e+00 7.780e-02 1.208e+00 -2.399e-02 -1.407e-02 -9.997e-03
274 1 -1.442e+00 3.315e-01 2.350e-01 -3.027e-02 -3.444e-02 1.486e-04
275 1 -1.359e+00 -9.458e-01 6.441e-01 -3.575e-02 -3.528e-02 1.294e-04
276 1 5.695e-02 1.968e+00 -1.132e+00 1.227e-02 -3.427e-02 1.101e-02
277 1 2.565e-02 1.359e+00 -3.630e-01 -2.310e-02 -9.133e-04 2.808e-04
278 1 6.805e-01 -4.970e-01 -5.229e-01 -3.662e-03 -4.727e-02 -4.915e-03
279 1 1.200e+00 -2.282e+00 6.276e-01 -1.610e-02 -5.321e-03 8.947e-03
280 1 -9.461e-01 -1.295e-01 -1.291e+00 -1.030e-02 -2.165e-02 -4.691e-03
281 1 -1.915e-01 3.358e-02 -3.441e-02 -3.146e-02 -1.494e-02 -1.264e-02
282 1 -4.276e-01 6.051e-01 -7.359e-01 -8.356e-03 -3.982e-03 4.290e-03
ITEM: TIMESTEP
0
ITEM: NUMBER OF ATOMS
47
ITEM: BOX BOUNDS xy xz yz pp pp pp
                     0.00000000000000e+00 1.06000000000000e+01 0.00000000000000e+00
0.00000000000000e+00	1.06000000000000e+01	0.00000000000000e+00
0.00000000000000e+00	1.06000000000000e+01	0.00000000000000e+00
ITEM: ATOMS id type x y z DisplacementX DisplacementY DisplacementZ
283 1 -1.014e+00 -3.468e-01 -2.012e+00 -1.169e-02 -2.313e-02 -1.191e-02
284 1 8.602e-01 9.303e-01 8.099e-02 -1.346e-02 -1.912e-02 -1.242e-02
285 1 6.194e-01 -8.761e-01 -2.933e-01 3.458e-03 -4.694e-03 -2.887e-02
286 1 2.718e-01 -4.465e-01 -3.395e-01 8.459e-03 -1.014e-02 -5.206e-03
287 1 -5.563e-01 7.612e-01 2.424e-01 4.460e-03 -8.921e-03 -2.194e-02
288 1 3.108e-01 -8.789e-02 1.727e-01 -6.825e-03 -9.748e-03 -1.024e-02
289 1 -2.809e-01 -4.742e-01 3.356e-01 6.834e-03 -2.419e-02 -2.341e-02
290 1 -5.880e-01 2.258e-01 -1.483e-01 -9.749e-03 -9.686e-03 -6.284e-03
291 1 9.376e-01 -2.998e+00 -8.442e-01 -4.506e-03 -2.015e-02 -2.470e-02
292 1 1.826e+00 1.259e+00 -1.699e-01 2.364e-02 -6.459e-03 -2.458e-02
293 1 -1.193e+00 2.331e-01 -3.218e-02 -9.762e-03 -6.524e-03 -1.491e-02
294 1 2.373e+00 1.052e+00 -1.183e+00 -3.048e-03 -4.756e-03 -1.092e-02
295 1 1.723e-01 7.098e-01 -7.678e-01 -1.366e-03 -2.090e-03 -1.429e-02
296 1 1.540e+00 -1.210e+00 3.772e-01 -1.015e-02 -1.248e-02 -1.951e-02
297 1 -2.921e-01 2.208e+00 -1.063e+00 2.008e-02 -1.150e-02 -1.967e-02
298 1 8.680e-01 -5.757e-01 2.596e+00 -8.067e-03 -4.558e-03 -7.596e-03
299 1 -2.494e+00 -1.232e+00 1.195e+00 -2.354e-03 6.577e-03 -9.711e-03
300 1 -1.559e+00 -8.955e-01 -8.714e-01 -4.128e-03 -3.012e-02 -1.132e-02
301 1 -3.865e-01 8.387e-01 -2.018e+00 -1.737e-02 4.167e-03 -2.320e-02
302 1 5.313e-01 -9.497e-01 -8.519e-01 1.130e-02 -2.054e-02 -9.339e-03
303 1 -4.713e-01 -8.084e-01 -7.437e-02 1.552e-02 -1.279e-02 -5.106e-03
304 1 2.337e-01 7.280e-01 -5.531e-01 1.869e-02 -1.142e-02 -1.943e-02
305 1 -7.612e-01 5.102e-01 3.791e-01 1.069e-02 -1.062e-02 -3.818e-02
306 1 3.838e-01 1.188e+00 -6.361e-01 -5.215e-03 -1.690e-02 -1.722e-02
307 1 1.355e-01 1.380e+00 -2.489e+00 5.228e-03 -1.935e-02 9.489e-03
308 1 1.256e+00 1.181e+00 2.047e-01 -1.033e-02 -1.252e-02 9.392e-03
309 1 -1.509e+00 1.078e+00 -1.409e+00 -2.337e-04 -1.749e-02 -3.482e-02
310 1 3.666e-01 -5.058e-01 -6.510e-01 1.208e-02 -3.073e-02 -4.682e-03
311 1 -7.075e-01 1.313e+00 -6.048e-03 2.960e-02 -7.675e-03 -2.541e-02
312 1 -3.832e-01 9.385e-02 -1.680e-02 1.442e-02 -9.426e-03 -1.103e-02
313 1 -1.588e+00 -7.755e-01 -5.763e-02 -5.612e-03 -3.105e-02 -3.348e-02
314 1 2.577e+00 -1.617e-01 1.062e+00 2.655e-03 -2.020e-02 -2.565e-02
315 1 -5.426e-01 -1.161e+00 -1.210e+00 3.619e-05 -6.525e-03 -1.160e-02
316 1 1.241e+00 1.295e+00 1.722e+00 -1.682e-03 -4.805e-02 -1.952e-02
317 1 -5.697e-01 -6.097e-01 -2.907e-01 1.773e-03 -1.728e-02 -4.549e-02
318 1 -4.997e-01 6.298e-01 -3.226e-01 1.441e-02 1.738e+00 1.736e+00
319 1 -2.820e-01 -7.410e-01 -8.928e-01 7.050e-03 -7.274e-03 -2.239e-02
320 1 1.128e+00 8.358e-01 1.846e+00 -1.092e-02 -3.083e-02 -1.359e-02
321 1 4.511e-01 -1.074e+00 -1.237e+00 7.415e-03 -1.760e-02 -4.040e-02
322 1 -1.328e+00 -1.870e+00 -6.530e-01 1.531e-02 -3.238e-02 -1.814e-02
323 1 -6.613e-01 5.865e-01 4.904e-01 -9.423e-03 4.984e-03 -2.308e-02
324 1 3.793e-01 1.779e+00 -2.491e-01 1.185e-02 -1.791e-02 -4.491e-04
325 1 -8.586e-01 -5.561e-01 -8.741e-01 -2.854e-02 -6.080e-05 -3.383e-02
326 1 -9.662e-01 2.661e-01 -2.327e-02 3.083e-03 -8.206e-03 1.111e-02
327 1 -1.076e+00 -5.954e-01 7.935e-01 8.230e-04 -1.870e-02 -1.684e-02
328 1 7.998e-02 -4.950e-01 -5.636e-02 -9.109e-04 -1.477e-02 -6.321e-03
329 1 -3.013e-01 -9.319e-01 2.692e-01 8.717e-03 -2.674e-02 -3.282e-02
ITEM: TIMESTEP
0
ITEM: NUMBER OF ATOMS
47
ITEM: BOX BOUNDS xy xz yz pp pp pp
                     0.00000000000000e+00 1.06000000000000e+01 0.00000000000000e+00
0.00000000000000e+00	1.06000000000000e+01	0.00000000000000e+00
0.00000000000000e+00	1.06000000000000e+01	0.00000000000000e+00
ITEM: ATOMS id type x y z DisplacementX DisplacementY DisplacementZ
330 1 7.256e-01 7.709e-01 -2.979e-01 1.440e-02 4.105e-03 4.769e-03
331 1 7.232e-01 -2.849e-01 -7.132e-01 1.071e-02 1.054e-02 -8.657e-03
332 1 1.076e+00 5.381e-01 -3.052e-01 2.155e-02 1.079e-02 -1.498e-02
333 1 2.136e-01 -1.867e+00 -1.643e-03 1.533e-02 2.620e-03 -1.400e-02
334 1 6.922e-02 2.738e-01 -4.635e-01 1.777e-02 2.454e-02 -1.282e-02
335 1 1.702e+00 -8.896e-01 -4.785e-01 2.119e-02 2.342e-02 -1.752e-02
336 1 -1.148e+00 2.940e-01 1.502e+00 2.112e-02 -1.480e-03 -1.884e-02
337 1 1.355e+00 2.164e+00 5.631e-01 2.341e-02 6.631e-03 -3.344e-02
338 1 -5.303e-01 -4.589e-01 -6.748e-01 1.780e-02 4.331e-03 -1.078e-02
339 1 -1.233e-01 5.173e-01 -7.834e-01 6.701e-03 1.206e-02 -2.461e-02
340 1 1.098e+00 -1.490e+00 -2.996e-01 2.693e-02 3.651e-03 -1.042e-02
341 1 -1.023e+00 -2.112e+00 2.927e-01 2.037e-02 9.505e-03 -4.134e-03
342 1 -1.370e+00 -6.846e-01 1.946e+00 2.367e-02 -6.366e-03 -2.011e-02
343 1 -3.463e+00 6.025e-01 -7.454e-01 1.638e-02 -5.997e-04 -1.002e-02
344 1 8.775e-01 2.119e+00 -8.814e-01 9.916e-03 3.728e-04 -2.398e-02
345 1 -1.530e-01 1.337e-01 3.151e+00 -2.265e-03 -4.751e-03 -1.949e-02
346 1 -1.483e-01 -7.972e-01 -1.622e+00 7.041e-03 2.649e-02 -8.015e-03
347 1 -1.206e-01 2.674e-01 1.030e+00 1.440e-02 -9.732e-03 -1.609e-02
348 1 2.089e-01 -1.252e+00 -1.208e+00 1.108e-02 1.021e-02 6.456e-03
349 1 1.818e-01 5.092e-01 4.134e-01 3.249e-03 -2.033e-03 1.233e-02
350 1 3.964e-01 -6.402e-01 7.893e-01 1.264e-02 1.375e-03 -1.166e-02
351 1 1.640e-01 -1.634e+00 1.312e+00 2.529e-02 -2.561e-03 -2.358e-02
352 1 2.880e+00 -5.084e-01 1.071e+00 1.732e-02 -1.029e-02 -3.306e-02
353 1 -5.664e-01 -1.468e+00 2.386e-01 1.636e-02 -1.027e-02 -3.228e-02
354 1 1.067e+00 -1.150e+00 2.066e+00 2.652e-02 -3.279e-03 -1.493e-02
355 1 -9.386e-01 1.185e+00 8.983e-01 2.690e-02 -2.750e-04 -1.998e-02
356 1 -1.482e-01 4.274e-01 -1.124e+00 2.744e-02 -1.020e-03 -3.078e-02
357 1 -3.857e-01 3.138e-01 -2.125e-01 2.506e-02 2.101e-02 -3.680e-03
358 1 -3.412e-02 5.069e-01 1.102e+00 9.440e-04 -1.999e-03 -2.077e-02
359 1 -5.928e-01 7.913e-01 1.118e-01 2.317e-02 6.323e-03 -3.666e-02
360 1 7.799e-01 3.843e-02 6.215e-01 9.959e-04 -2.091e-03 -1.402e-02
361 1 1.432e+00 2.410e-01 -6.446e-01 4.301e-04 1.555e-02 -1.655e-02
362 1 -1.259e+00 -1.403e+00 -9.244e-01 1.124e-02 -2.862e-03 -3.386e-02
363 1 -2.688e-01 2.453e-01 -3.912e-02 3.698e-02 -3.875e-04 -2.894e-03
364 1 -8.614e-01 -1.217e+00 -3.975e-01 1.750e-02 9.029e-03 -3.400e-02
365 1 2.219e+00 1.498e+00 2.843e-01 -1.726e+00 -2.405e-03 1.727e+00
366 1 -3.389e-01 2.260e-01 1.516e+00 2.819e-02 -8.427e-03 -3.455e-02
367 1 -8.064e-02 -4.029e-01 -1.236e+00 3.880e-02 -2.751e-03 -2.025e-02
368 1 -6.741e-02 5.206e-01 1.055e-01 4.115e-02 5.288e-03 -2.994e-02
369 1 -9.770e-01 4.746e-01 2.734e-01 4.232e-02 -8.604e-03 -2.081e-02
370 1 1.362e+00 -2.210e+00 -4.492e-01 -1.205e-02 1.650e-02 -1.945e-03
371 1 -8.373e-01 1.138e+00 -1.670e+00 1.617e-02 -2.719e-03 2.888e-02
372 1 1.189e+00 1.000e+00 -2.802e-01 1.491e-02 -3.043e-03 -2.221e-02
373 1 -5.508e-01 7.085e-01 5.743e-01 3.949e-02 1.800e-02 -8.394e-04
374 1 1.017e+00 -2.303e-02 -4.991e-02 7.213e-03 1.378e-02 -2.763e-02
375 1 7.609e-01 -7.458e-01 1.188e+00 2.675e-02 -1.030e-02 -6.686e-03
376 1 -3.733e-01 -6.951e-01 4.110e-01 -4.758e-03 -1.132e-04 -5.825e-03
ITEM: TIMESTEP
0
ITEM: NUMBER OF ATOMS
47
ITEM: BOX BOUNDS xy xz yz pp pp pp
                     0.00000000000000e+00 1.06000000000000e+01 0.00000000000000e+00
0.00000000000000e+00	1.06000000000000e+01	0.00000000000000e+00
0.00000000000000e+00	1.06000000000000e+01	0.00000000000000e+00
ITEM: ATOMS id type x y z DisplacementX DisplacementY DisplacementZ
377 1 3.590e-01 3.717e-02 -1.344e+00 -1.623e-03 -2.182e-02 4.547e-03
378 1 -6.790e-01 -3.247e-01 1.711e+00 4.942e-03 -2.704e-02 4.975e-03
379 1 1.823e-01 1.210e-02 -1.026e+00 7.240e-03 -4.522e-03 7.919e-03
380 1 3.268e-01 9.285e-01 -4.624e-01 3.561e-02 -3.187e-02 6.145e-03
381 1 1.559e-01 6.030e-01 3.182e-01 2.384e-02 -2.084e-02 -6.350e-03
382 1 -2.185e-01 1.602e-01 9.105e-01 1.555e-02 -3.178e-02 -1.332e-02
383 1 1.378e+00 1.862e+00 1.916e+00 2.735e-02 -3.056e-02 3.681e-03
384 1 4.335e-01 -1.164e+00 9.275e-01 1.442e-02 -1.360e-02 1.807e-03
385 1 9.769e-01 -9.586e-03 3.317e-01 1.441e-02 -1.147e-02 -1.129e-02
386 1 -2.011e+00 2.082e-01 -1.526e+00 2.511e-02 -2.565e-03 1.082e-02
387 1 1.835e+00 1.708e+00 -3.789e-01 2.295e-02 -8.588e-03 1.533e-02
388 1 1.254e-01 7.283e-01 1.335e+00 2.164e-02 -1.234e-02 -1.572e-02
389 1 1.022e+00 -2.133e+00 1.515e+00 1.093e-02 -1.211e-02 -2.074e-03