ITEM: TIMESTEP
0
ITEM: NUMBER OF ATOMS
47
ITEM: BOX BOUNDS xy xz yz pp pp pp
                     0.00000000000000e+00 1.06000000000000e+01 0.00000000000000e+00
0.00000000000000e+00	1.06000000000000e+01	0.00000000000000e+00
0.00000000000000e+00	1.06000000000000e+01	0.00000000000000e+00
ITEM: ATOMS id type x y z DisplacementX DisplacementY DisplacementZ
1 1 3.513e+00 -5.117e-03 -3.522e+00 -7.829e-03 3.731e-03 1.362e-02
2 1 1.776e+00 1.783e+00 3.553e+00 -3.693e-02 -1.047e-03 2.224e-02
3 1 -3.540e+00 -1.758e+00 -1.761e+00 -2.057e-02 -1.013e-02 9.423e-03
4 1 -3.542e+00 1.782e+00 -1.759e+00 -2.091e-02 1.205e-03 1.793e-02
5 1 1.752e+00 -1.759e+00 3.531e+00 -1.931e-02 -3.928e-03 2.160e-02
6 1 3.525e+00 3.553e+00 2.079e-02 -1.681e-02 -1.910e-03 2.232e-02
7 1 -1.943e-02 -3.545e+00 -3.548e+00 -1.123e-02 1.214e-02 2.600e-02
8 1 -1.429e-02 3.541e+00 -3.515e+00 -1.503e-02 -1.031e-02 1.802e-02
9 1 3.526e+00 -3.545e+00 9.377e-03 -1.883e-02 4.209e-03 2.512e-02
10 1 -3.544e+00 -1.761e+00 1.794e+00 -5.741e-03 1.008e-02 2.424e-02
11 1 -3.550e+00 1.768e+00 1.790e+00 -3.569e-02 -1.882e-02 7.724e-03
12 1 -1.772e+00 -1.758e+00 3.554e+00 -1.028e-02 1.187e-02 1.672e-02
13 1 -1.793e+00 1.767e+00 3.540e+00 -2.076e-02 1.800e-02 2.816e-02
14 1 -1.773e+00 -3.531e+00 1.770e+00 -2.791e-02 6.170e-03 2.212e-02
15 1 -1.784e+00 3.540e+00 1.774e+00 -5.649e-03 4.699e-03 1.471e-02
16 1 1.764e+00 -1.776e+00 -3.535e+00 -9.987e-03 -5.977e-03 3.564e-03
17 1 1.752e+00 1.771e+00 -3.536e+00 -2.093e-02 6.686e-03 1.187e-02
18 1 3.506e+00 -1.762e+00 -1.741e+00 3.825e-03 -9.189e-03 9.940e-03
19 1 3.526e+00 1.776e+00 -1.758e+00 -4.807e-03 9.944e-03 1.421e-02
20 1 1.772e+00 3.531e+00 1.787e+00 -2.027e-02 -1.552e-02 1.863e-02
21 1 -1.790e+00 -3.532e+00 -1.774e+00 -1.268e-02 -7.361e-03 2.759e-02
22 1 1.754e+00 -3.534e+00 1.771e+00 -3.497e-02 5.005e-04 1.996e-02
23 1 -1.783e+00 3.546e+00 -1.769e+00 -3.602e-02 -7.397e-03 2.454e-02
24 1 3.533e+00 1.761e+00 1.781e+00 -3.491e-02 -9.079e-03 1.984e-02
25 1 -1.782e+00 -1.775e+00 -3.520e+00 -1.512e-02 -1.077e-02 1.631e-02
26 1 -1.784e+00 1.769e+00 -3.524e+00 -2.639e-02 -4.108e-03 1.314e-02
27 1 3.538e+00 -1.758e+00 1.783e+00 -2.329e-02 -7.728e-04 2.844e-02
28 1 3.514e+00 -1.164e-02 1.081e-02 9.329e-03 1.617e-05 2.263e-02
29 1 1.705e-02 6.132e-03 -3.544e+00 -5.507e-02 -4.171e-03 -5.455e-03
30 1 1.748e+00 -3.564e+00 -1.755e+00 -2.010e-02 1.023e-02 -1.277e-03
31 1 1.755e+00 3.534e+00 -1.747e+00 -2.201e-02 -2.145e-02 2.052e-02
32 1 -5.034e-03 3.549e+00 -2.029e-02 -1.603e-02 -1.199e-02 6.501e-03
33 1 6.561e-03 -3.548e+00 3.128e-03 -2.064e-02 -7.301e-03 1.505e-02
34 1 -1.286e-02 1.148e-02 3.566e+00 -2.681e-02 -8.931e-03 5.222e-02
35 1 -3.542e+00 3.330e-03 7.232e-03 -1.944e-02 -2.021e-02 5.859e-03
36 1 -2.327e-03 6.401e-03 -3.644e-03 1.728e+00 1.119e-02 -1.724e+00
37 1 1.765e+00 1.766e+00 3.026e-03 -3.205e-02 -9.527e-03 2.389e-02
38 1 7.662e-03 -1.760e+00 -1.763e+00 -1.650e-02 7.071e-03 2.437e-02
39 1 -7.529e-03 1.773e+00 -1.764e+00 -2.466e-02 -6.702e-03 -3.190e-03
40 1 1.756e+00 -1.752e+00 -1.100e-02 -2.938e-02 -1.113e-02 2.516e-02
41 1 1.762e+00 1.325e-02 1.783e+00 -2.915e-02 -3.881e-03 -1.977e-03
42 1 -1.788e+00 -1.447e-02 -1.764e+00 1.382e-03 6.737e-04 2.983e-02
43 1 -1.667e-02 1.750e+00 1.779e+00 -6.596e-03 8.439e-04 1.236e-02
44 1 -1.765e+00 -1.766e+00 6.587e-03 -6.373e-03 2.290e-02 1.671e-02
45 1 -7.530e-03 -1.774e+00 1.774e+00 -7.848e-03 9.043e-03 1.676e-02
46 1 -1.782e+00 1.758e+00 5.009e-03 -1.751e-02 -5.749e-03 1.304e-02
47 1 -1.776e+00 -3.739e-03 1.771e+00 8.690e-03 4.678e-03 9.397e-03
ITEM: TIMESTEP
0
ITEM: NUMBER OF ATOMS
47
ITEM: BOX BOUNDS xy xz yz pp pp pp
                     0.00000000000000e+00 1.06000000000000e+01 0.00000000000000e+00
0.00000000000000e+00	1.06000000000000e+01	0.00000000000000e+00
0.00000000000000e+00	1.06000000000000e+01	0.00000000000000e+00
ITEM: ATOMS id type x y z DisplacementX DisplacementY DisplacementZ
48 1 -1.222e-02 3.518e+00 -3.522e+00 -8.187e-03 -7.433e-03 -1.827e-02
49 1 -1.758e+00 1.766e+00 3.548e+00 1.125e-02 -1.605e-02 7.027e-03
50 1 1.778e+00 -3.547e+00 -1.770e+00 1.289e-02 -2.771e-02 3.288e-02
51 1 -1.779e+00 -3.527e+00 -1.764e+00 1.037e-03 -8.448e-03 3.161e-02
52 1 1.778e+00 1.771e+00 3.544e+00 3.355e-03 -1.292e-02 8.278e-03
53 1 -3.520e+00 3.529e+00 -2.684e-03 -4.977e-04 -1.485e-02 1.923e-02
54 1 3.532e+00 8.170e-03 -3.540e+00 -4.850e-03 -1.067e-02 3.139e-02
55 1 -3.554e+00 -2.363e-03 -3.536e+00 -3.423e-03 -1.755e-02 1.889e-02
56 1 3.535e+00 3.525e+00 6.047e-03 1.466e-02 -2.056e-02 1.349e-02
57 1 1.783e+00 -3.538e+00 1.793e+00 -2.093e-02 -1.363e-02 3.027e-03
58 1 -1.765e+00 -3.555e+00 1.780e+00 1.899e-02 -7.560e-03 8.661e-03
59 1 1.773e+00 -1.776e+00 3.547e+00 -7.717e-03 -2.694e-02 8.686e-03
60 1 -1.746e+00 -1.777e+00 3.556e+00 4.370e-03 -4.727e-03 1.398e-02
61 1 3.532e+00 -1.774e+00 1.774e+00 -1.101e-02 -1.366e-02 2.431e-02
62 1 -3.546e+00 -1.782e+00 1.786e+00 2.581e-02 -9.898e-03 3.630e-03
63 1 1.773e+00 1.758e+00 -3.515e+00 2.525e-03 -1.908e-02 4.728e-03
64 1 -1.762e+00 1.779e+00 -3.519e+00 -1.537e-02 -2.040e-02 -2.492e-03
65 1 1.748e+00 3.521e+00 -1.765e+00 1.438e-02 -4.643e-03 1.584e-02
66 1 -1.760e+00 3.533e+00 -1.749e+00 5.023e-04 -2.487e-02 2.723e-02
67 1 -3.531e+00 1.744e+00 1.773e+00 -1.468e-02 -1.818e-02 2.323e-03
68 1 3.544e+00 -1.770e+00 -1.753e+00 4.677e-03 -1.853e-04 1.142e-02
69 1 3.549e+00 1.753e+00 1.767e+00 -1.321e-03 -1.575e-02 2.674e-02
70 1 -3.539e+00 -1.763e+00 -1.771e+00 -1.726e-02 -3.160e-02 1.032e-02
71 1 -1.776e+00 3.541e+00 1.778e+00 -5.569e-03 -1.910e-02 2.619e-02
72 1 1.767e+00 -1.780e+00 -3.530e+00 7.242e-03 -2.458e-02 9.199e-03
73 1 -1.760e+00 -1.785e+00 -3.520e+00 -1.434e-02 -3.477e-02 1.719e-02
74 1 1.764e+00 3.524e+00 1.767e+00 -8.522e-03 -5.299e-03 2.524e-02
75 1 1.546e-03 3.534e+00 5.295e-03 -1.156e-02 -2.203e-03 2.415e-02
76 1 1.928e-03 3.299e-03 -3.527e+00 9.867e-03 -2.841e-02 8.528e-04
77 1 3.559e+00 1.764e+00 -1.758e+00 -7.462e-03 -1.741e-02 1.156e-02
78 1 -3.534e+00 1.767e+00 -1.752e+00 2.147e-02 -2.487e-02 2.020e-02
79 1 -3.545e+00 -1.764e-02 1.737e-02 4.331e-03 -1.558e-02 1.686e-02
80 1 3.526e+00 -1.506e-02 -1.179e-02 2.416e-02 -1.353e-02 2.305e-02
81 1 9.903e-03 -2.034e-02 3.554e+00 -3.926e-03 -9.635e-03 3.869e-02
82 1 3.233e-04 -3.547e+00 -6.086e-03 -2.106e-03 -2.924e-02 1.561e-02
83 1 -4.743e-03 -1.050e-02 4.206e-03 5.373e-03 1.729e+00 -1.747e+00
84 1 -1.773e+00 1.768e+00 -1.805e-03 -4.698e-03 -2.425e-02 1.297e-02
85 1 1.767e+00 2.781e-03 -1.756e+00 1.401e-02 -2.612e-02 4.460e-02
86 1 -1.767e+00 -6.693e-03 -1.763e+00 -6.541e-03 -2.610e-02 3.420e-02
87 1 1.758e+00 1.759e+00 -6.984e-03 -2.738e-04 -2.831e-02 2.305e-02
88 1 1.935e-02 1.745e+00 1.783e+00 7.439e-03 -4.456e-02 -1.403e-03
89 1 5.838e-03 -1.788e+00 -1.772e+00 8.148e-03 1.191e-02 2.920e-02
90 1 -1.766e+00 -5.926e-04 1.782e+00 -9.602e-03 -3.716e-02 -6.391e-03
91 1 1.757e+00 -1.763e+00 5.642e-03 -1.897e-02 5.611e-04 1.788e-02
92 1 1.762e+00 -4.960e-04 1.763e+00 -1.591e-02 -1.491e-02 2.237e-02
93 1 -1.760e+00 -1.774e+00 8.183e-03 -9.258e-04 -2.408e-02 1.418e-02
94 1 6.738e-03 -1.780e+00 1.780e+00 -1.175e-02 -8.333e-03 1.258e-02
ITEM: TIMESTEP
0
ITEM: NUMBER OF ATOMS
47
ITEM: BOX BOUNDS xy xz yz pp pp pp
                     0.00000000000000e+00 1.06000000000000e+01 0.00000000000000e+00
0.00000000000000e+00	1.06000000000000e+01	0.00000000000000e+00
0.00000000000000e+00	1.06000000000000e+01	0.00000000000000e+00
ITEM: ATOMS id type x y z DisplacementX DisplacementY DisplacementZ
95 1 -3.531e+00 -3.148e-02 -3.534e+00 4.744e-03 1.236e-02 1.257e-02
96 1 -1.763e+00 1.784e+00 3.546e+00 9.418e-03 -4.018e-05 1.017e-02
97 1 3.541e+00 -1.783e+00 -1.771e+00 3.525e-02 1.096e-02 4.150e-02
98 1 3.551e+00 1.786e+00 -1.756e+00 2.616e-02 -7.951e-03 2.777e-02
99 1 -1.745e+00 -1.780e+00 3.556e+00 2.672e-02 -6.938e-03 2.139e-02
100 1 -3.538e+00 3.535e+00 3.898e-04 2.134e-02 6.374e-03 1.403e-02
101 1 5.031e-03 -3.524e+00 -3.533e+00 2.582e-02 1.691e-02 1.805e-02
102 1 1.051e-02 3.539e+00 -3.532e+00 2.625e-02 1.497e-02 1.603e-02
103 1 -3.525e+00 -3.527e+00 1.053e-02 1.270e-02 -1.889e-02 2.020e-02
104 1 3.561e+00 -1.761e+00 1.785e+00 9.742e-03 1.594e-02 2.337e-02
105 1 3.555e+00 1.769e+00 1.777e+00 -1.446e-03 -1.223e-02 3.932e-02
106 1 1.797e+00 -1.754e+00 3.554e+00 2.001e-02 -1.327e-03 3.261e-02
107 1 1.777e+00 1.773e+00 3.544e+00 2.466e-03 3.932e-04 1.708e-02
108 1 1.767e+00 -3.534e+00 1.793e+00 1.004e-02 -1.120e-02 2.615e-03
109 1 1.774e+00 3.539e+00 1.771e+00 7.257e-03 -9.925e-03 3.123e-03
110 1 -1.756e+00 -1.765e+00 -3.531e+00 2.723e-02 -1.598e-02 7.580e-03
111 1 -1.751e+00 1.774e+00 -3.515e+00 1.994e-02 3.534e-03 7.215e-03
112 1 -3.536e+00 -1.746e+00 -1.771e+00 9.571e-03 -1.717e-02 2.454e-02
113 1 -3.518e+00 1.758e+00 -1.757e+00 1.173e-03 1.302e-02 1.741e-02
114 1 -1.763e+00 3.556e+00 1.783e+00 -1.479e-03 3.495e-03 2.589e-02
115 1 1.769e+00 -3.532e+00 -1.766e+00 5.684e-03 -7.976e-03 1.364e-02
116 1 -1.741e+00 -3.514e+00 1.778e+00 2.672e-02 -7.838e-03 1.817e-02
117 1 1.772e+00 3.534e+00 -1.748e+00 1.817e-02 1.401e-03 2.275e-02
118 1 -3.527e+00 1.757e+00 1.767e+00 1.052e-02 -1.638e-02 3.589e-02
119 1 1.771e+00 -1.755e+00 -3.539e+00 8.012e-03 -9.273e-03 1.874e-02
120 1 1.751e+00 1.780e+00 -3.538e+00 1.347e-02 2.221e-03 1.528e-02
121 1 -3.519e+00 -1.756e+00 1.796e+00 2.635e-03 5.618e-03 3.598e-03
122 1 -3.533e+00 -3.886e-03 -4.442e-03 2.240e-03 1.712e-02 3.497e-02
123 1 2.852e-04 5.338e-03 -3.500e+00 2.251e-02 -1.377e-03 -1.059e-02
124 1 -1.766e+00 -3.532e+00 -1.779e+00 1.391e-02 1.437e-02 2.357e-02
125 1 -1.782e+00 3.543e+00 -1.762e+00 2.430e-02 -3.227e-04 2.127e-02
126 1 3.008e-02 3.572e+00 1.575e-04 1.683e-02 1.643e-03 3.578e-02
127 1 -3.485e-03 -3.534e+00 3.704e-03 2.474e-02 -1.616e-02 1.093e-02
128 1 3.111e-02 1.954e-02 3.537e+00 5.219e-03 -1.201e-02 2.999e-02
129 1 3.556e+00 -3.212e-03 1.221e-02 9.677e-03 -1.478e-02 3.334e-02
130 1 8.210e-03 -2.018e-03 1.554e-02 -1.736e+00 -1.485e-02 -1.740e+00
131 1 -1.769e+00 1.735e+00 -1.717e-02 1.640e-02 -1.504e-03 2.987e-02
132 1 -4.783e-03 -1.758e+00 -1.757e+00 3.980e-02 -2.345e-02 1.867e-02
133 1 -7.555e-03 1.764e+00 -1.777e+00 2.466e-02 -1.973e-03 2.087e-02
134 1 -1.757e+00 -1.770e+00 -8.207e-03 2.966e-02 3.419e-03 1.618e-02
135 1 -1.768e+00 3.946e-03 1.808e+00 2.831e-02 -3.933e-03 9.495e-04
136 1 1.805e+00 9.448e-03 -1.749e+00 2.108e-03 5.511e-04 2.779e-02
137 1 -4.461e-03 1.785e+00 1.765e+00 2.013e-02 -1.210e-02 7.655e-03
138 1 1.782e+00 -1.763e+00 4.345e-03 2.200e-02 1.829e-03 2.679e-02
139 1 8.960e-03 -1.774e+00 1.768e+00 1.487e-02 5.894e-03 1.904e-02
140 1 1.773e+00 1.764e+00 -1.030e-02 1.970e-02 -1.666e-02 1.875e-02
141 1 1.764e+00 4.540e-03 1.778e+00 1.847e-02 1.546e-02 5.040e-03
ITEM: TIMESTEP
0
ITEM: NUMBER OF ATOMS
47
ITEM: BOX BOUNDS xy xz yz pp pp pp
                     0.00000000000000e+00 1.06000000000000e+01 0.00000000000000e+00
0.00000000000000e+00	1.06000000000000e+01	0.00000000000000e+00
0.00000000000000e+00	1.06000000000000e+01	0.00000000000000e+00
ITEM: ATOMS id type x y z DisplacementX DisplacementY DisplacementZ
142 1 -1.629e-02 -3.524e+00 -3.504e+00 1.391e-02 1.974e-03 -1.258e-03
143 1 -1.754e+00 -1.772e+00 3.538e+00 2.587e-03 1.607e-02 6.599e-03
144 1 1.774e+00 3.532e+00 -1.758e+00 1.866e-03 1.013e-02 1.905e-03
145 1 -1.753e+00 3.549e+00 -1.762e+00 4.612e-03 1.055e-02 3.188e-02
146 1 1.775e+00 -1.764e+00 3.555e+00 -5.656e-03 1.443e-02 3.205e-02
147 1 -3.532e+00 -3.549e+00 -2.244e-03 2.941e-03 1.365e-02 1.843e-03
148 1 3.524e+00 1.334e-02 -3.533e+00 -3.114e-02 2.674e-02 2.181e-02
149 1 -3.532e+00 1.519e-03 -3.530e+00 -5.906e-03 2.720e-02 2.598e-02
150 1 3.545e+00 -3.534e+00 8.471e-03 1.152e-03 2.838e-02 3.030e-02
151 1 1.780e+00 3.532e+00 1.778e+00 1.618e-02 1.338e-02 2.038e-02
152 1 -1.768e+00 3.561e+00 1.795e+00 5.803e-03 2.345e-02 1.497e-02
153 1 1.770e+00 1.770e+00 3.547e+00 1.711e-02 1.568e-02 7.461e-05
154 1 -1.780e+00 1.781e+00 3.546e+00 -1.791e-02 9.488e-03 1.499e-02
155 1 3.548e+00 1.792e+00 1.781e+00 -1.341e-02 1.508e-02 1.868e-02
156 1 -3.539e+00 1.779e+00 1.784e+00 1.815e-02 1.609e-03 2.044e-02
157 1 1.766e+00 -1.761e+00 -3.520e+00 -8.217e-03 1.935e-02 -2.809e-03
158 1 -1.757e+00 -1.754e+00 -3.541e+00 4.418e-03 1.737e-02 1.188e-02
159 1 1.752e+00 -3.516e+00 -1.773e+00 3.555e-03 -2.199e-03 5.177e-03
160 1 -1.749e+00 -3.527e+00 -1.754e+00 -7.085e-03 6.285e-03 2.089e-02
161 1 -3.531e+00 -1.780e+00 1.781e+00 1.177e-02 1.507e-02 2.356e-02
162 1 3.539e+00 1.777e+00 -1.775e+00 2.814e-02 1.381e-03 1.433e-02
163 1 3.537e+00 -1.753e+00 1.763e+00 2.615e-03 -6.521e-03 3.346e-02
164 1 -3.533e+00 1.759e+00 -1.766e+00 -2.236e-03 2.205e-02 1.220e-02
165 1 -1.769e+00 -3.516e+00 1.775e+00 1.168e-03 1.957e-02 4.979e-03
166 1 1.762e+00 1.775e+00 -3.551e+00 5.987e-03 5.983e-03 7.281e-03
167 1 -1.769e+00 1.776e+00 -3.508e+00 -1.887e-02 2.729e-02 2.112e-02
168 1 1.747e+00 -3.541e+00 1.770e+00 -1.516e-02 2.501e-02 2.140e-02
169 1 -3.419e-03 -3.521e+00 -8.996e-04 1.418e-02 -7.844e-03 2.661e-02
170 1 -1.348e-02 -2.930e-03 -3.521e+00 1.648e-02 2.526e-02 -3.455e-03
171 1 3.558e+00 -1.765e+00 -1.762e+00 -2.619e-02 2.340e-02 2.484e-02
172 1 -3.524e+00 -1.772e+00 -1.751e+00 1.154e-02 1.528e-02 4.234e-02
173 1 -3.543e+00 9.928e-03 -5.237e-03 -1.575e-02 1.363e-02 2.266e-02
174 1 3.536e+00 2.478e-02 1.769e-02 1.309e-02 1.708e-02 1.986e-02
175 1 1.331e-03 -5.881e-03 3.554e+00 6.224e-03 2.254e-02 1.019e-02
176 1 -1.496e-02 3.560e+00 1.357e-02 -7.675e-03 1.554e-02 1.789e-02
177 1 -1.955e-02 -2.181e-03 -5.664e-03 -1.355e-02 -1.736e+00 -1.722e+00
178 1 -1.773e+00 -1.765e+00 1.386e-02 1.314e-02 3.352e-02 2.970e-02
179 1 1.762e+00 1.378e-02 -1.761e+00 4.291e-03 4.233e-02 3.451e-02
180 1 -1.767e+00 3.628e-03 -1.758e+00 -5.104e-03 2.907e-02 2.021e-02
181 1 1.757e+00 -1.757e+00 3.485e-03 2.825e-03 3.320e-02 2.986e-02
182 1 5.019e-03 -1.755e+00 1.790e+00 2.084e-02 2.928e-02 -1.562e-02
183 1 1.317e-02 1.797e+00 -1.752e+00 -7.371e-04 2.265e-03 1.643e-02
184 1 -1.771e+00 8.901e-03 1.786e+00 4.548e-03 2.140e-02 3.743e-03
185 1 1.768e+00 1.795e+00 -5.330e-03 -8.710e-03 5.461e-03 1.958e-02
186 1 1.779e+00 9.711e-03 1.761e+00 -1.753e-02 2.908e-02 1.668e-02
187 1 -1.770e+00 1.773e+00 3.046e-05 9.988e-03 9.889e-03 1.307e-02
188 1 3.331e-04 1.796e+00 1.766e+00 5.450e-03 1.375e-02 -5.404e-03
ITEM: TIMESTEP
0
ITEM: NUMBER OF ATOMS
47
ITEM: BOX BOUNDS xy xz yz pp pp pp
                     0.00000000000000e+00 1.06000000000000e+01 0.00000000000000e+00
0.00000000000000e+00	1.06000000000000e+01	0.00000000000000e+00
0.00000000000000e+00	1.06000000000000e+01	0.00000000000000e+00
ITEM: ATOMS id type x y z DisplacementX DisplacementY DisplacementZ
189 1 3.515e+00 4.771e-03 3.515e+00 9.570e-03 -2.182e-03 -1.229e-03
190 1 -3.536e+00 1.760e+00 1.773e+00 -1.060e-03 6.251e-03 -9.131e-03
191 1 1.759e+00 -1.785e+00 -3.550e+00 -2.155e-02 -4.359e-03 -1.501e-02
192 1 1.765e+00 1.770e+00 -3.550e+00 -3.051e-02 -2.993e-04 -1.079e-02
193 1 -3.557e+00 -1.772e+00 1.782e+00 -4.439e-03 3.401e-03 -3.275e-02
194 1 -1.099e-02 3.531e+00 3.539e+00 -2.683e-02 4.356e-03 -1.508e-02
195 1 3.527e+00 -3.540e+00 3.594e-03 -9.320e-03 -4.988e-03 -2.498e-02
196 1 3.522e+00 3.528e+00 -2.112e-02 -2.221e-02 9.154e-03 -2.606e-02
197 1 -1.737e-02 -3.544e+00 3.529e+00 -3.393e-02 1.436e-03 -1.802e-02
198 1 -1.777e+00 -1.759e+00 -3.552e+00 -1.746e-02 -4.569e-03 -9.354e-03
199 1 -1.760e+00 1.771e+00 -3.544e+00 -1.088e-02 2.411e-03 -2.225e-02
200 1 -3.549e+00 -1.762e+00 -1.777e+00 -3.150e-02 1.525e-02 -2.673e-02
201 1 -3.545e+00 1.777e+00 -1.762e+00 -1.342e-02 4.667e-03 -1.384e-02
202 1 -1.787e+00 -3.542e+00 -1.788e+00 -1.129e-02 -8.207e-03 -1.412e-02
203 1 -1.786e+00 3.544e+00 -1.775e+00 -2.872e-02 6.722e-03 -4.890e-03
204 1 3.528e+00 -1.774e+00 1.747e+00 -1.129e-02 6.405e-03 -1.367e-02
205 1 3.527e+00 1.755e+00 1.772e+00 -1.359e-02 1.288e-02 -1.261e-02
206 1 1.758e+00 -1.756e+00 3.529e+00 -2.734e-02 -2.019e-02 -4.319e-03
207 1 1.749e+00 1.747e+00 3.534e+00 -1.736e-02 1.091e-02 -1.684e-02
208 1 -1.780e+00 3.526e+00 1.747e+00 -3.023e-02 -3.298e-03 -2.160e-02
209 1 1.766e+00 -3.530e+00 -1.771e+00 -2.675e-02 -1.890e-02 -5.884e-03
210 1 -1.776e+00 -3.528e+00 1.769e+00 -1.163e-02 -7.327e-03 -3.125e-03
211 1 1.759e+00 3.535e+00 -1.781e+00 -1.068e-02 -9.844e-03 -8.055e-03
212 1 -1.779e+00 1.775e+00 3.514e+00 -1.574e-02 -1.661e-02 -1.802e-02
213 1 3.522e+00 -1.758e+00 -1.762e+00 -2.831e-02 -2.225e-02 -2.202e-03
214 1 3.529e+00 1.768e+00 -1.786e+00 -1.269e-02 4.588e-03 -3.385e-02
215 1 -1.766e+00 -1.751e+00 3.522e+00 -1.139e-02 -2.732e-02 -9.215e-03
216 1 -1.987e-03 -2.236e-03 3.525e+00 -2.776e-02 -1.473e-03 -2.595e-03
217 1 3.523e+00 -1.175e-02 4.778e-03 1.189e-02 1.928e-03 -3.791e-02
218 1 1.751e+00 -3.542e+00 1.778e+00 -3.832e-02 1.640e-02 -5.166e-03
219 1 1.782e+00 3.513e+00 1.739e+00 -3.004e-02 -1.832e-02 -3.493e-02
220 1 7.031e-03 3.531e+00 -8.679e-03 -2.731e-02 2.310e-02 -1.821e-02
221 1 -7.646e-03 -3.549e+00 3.048e-05 -3.212e-02 -1.828e-02 -2.358e-02
222 1 -3.553e+00 -1.218e-02 -1.635e-02 -2.931e-02 -1.684e-02 -1.684e-02
223 1 -1.844e-02 -6.587e-03 -3.530e+00 -2.293e-02 2.577e-03 -2.004e-02
224 1 1.735e-02 9.277e-03 -1.850e-02 1.747e+00 -2.910e-03 1.727e+00
225 1 -6.179e-03 1.781e+00 1.779e+00 -4.033e-02 1.549e-02 -2.684e-02
226 1 1.765e+00 -1.754e+00 -1.303e-02 -2.349e-02 -3.247e-03 -2.959e-02
227 1 1.771e+00 1.762e+00 3.786e-03 -2.302e-02 4.731e-03 -4.458e-02
228 1 7.258e-03 -1.748e+00 1.747e+00 -2.401e-02 -5.292e-03 -2.107e-02
229 1 -1.790e+00 -3.565e-03 1.783e+00 -5.966e-03 3.793e-03 -3.823e-02
230 1 1.779e+00 -9.595e-03 -1.777e+00 1.851e-03 -1.620e-02 -6.938e-04
231 1 -1.758e+00 1.762e+00 -2.491e-03 2.806e-03 -3.231e-03 -1.170e-02
232 1 -1.053e-02 -1.768e+00 -1.776e+00 -2.838e-02 1.854e-02 -8.959e-03
233 1 -1.770e+00 -1.773e+00 1.540e-02 -7.888e-03 2.553e-02 -2.411e-02
234 1 -4.307e-04 1.772e+00 -1.769e+00 -1.927e-02 -2.014e-02 -2.961e-02
235 1 -1.784e+00 -1.255e-02 -1.784e+00 -8.760e-03 2.053e-02 -1.559e-02
ITEM: TIMESTEP
0
ITEM: NUMBER OF ATOMS
47
ITEM: BOX BOUNDS xy xz yz pp pp pp
                     0.00000000000000e+00 1.06000000000000e+01 0.00000000000000e+00
0.00000000000000e+00	1.06000000000000e+01	0.00000000000000e+00
0.00000000000000e+00	1.06000000000000e+01	0.00000000000000e+00
ITEM: ATOMS id type x y z DisplacementX DisplacementY DisplacementZ
236 1 3.511e+00 3.521e+00 7.591e-03 6.929e-03 -1.767e-02 -1.330e-02
237 1 -3.544e+00 1.768e+00 1.798e+00 -1.979e-02 -1.121e-02 -2.174e-02
238 1 1.754e+00 -3.557e+00 -1.774e+00 -2.886e-02 -2.023e-02 1.564e-02
239 1 1.757e+00 -3.552e+00 1.779e+00 -1.961e-03 -2.220e-02 -3.504e-03
240 1 -3.563e+00 1.735e+00 -1.761e+00 -8.213e-03 3.148e-03 4.934e-03
241 1 4.498e-03 3.530e+00 3.542e+00 -1.931e-02 -4.289e-03 4.702e-03
242 1 3.528e+00 7.194e-03 -3.542e+00 -3.049e-02 -3.184e-02 -7.889e-03
243 1 3.519e+00 -4.511e-03 3.551e+00 -3.172e-02 -1.959e-02 -4.437e-03
244 1 1.046e-02 3.517e+00 -3.539e+00 4.461e-03 -1.631e-02 -2.203e-02
245 1 -1.775e+00 -3.543e+00 -1.756e+00 -1.400e-02 -3.057e-02 1.679e-03
246 1 -1.783e+00 -3.541e+00 1.754e+00 -8.244e-03 -2.305e-02 3.255e-03
247 1 -3.557e+00 -1.778e+00 -1.774e+00 -5.054e-04 -1.817e-02 1.554e-03
248 1 -3.549e+00 -1.796e+00 1.768e+00 -4.077e-03 -2.466e-02 -6.812e-03
249 1 -1.784e+00 -1.774e+00 -3.547e+00 1.989e-03 -8.179e-03 2.177e-02
250 1 -1.769e+00 -1.777e+00 3.540e+00 -2.889e-02 -1.399e-02 -6.306e-04
251 1 3.522e+00 1.772e+00 -1.752e+00 -2.841e-02 -9.727e-03 -7.344e-03
252 1 3.529e+00 1.762e+00 1.766e+00 -3.796e-02 -1.825e-02 -7.753e-03
253 1 1.781e+00 3.514e+00 -1.763e+00 -1.755e-02 -2.449e-02 -4.342e-03
254 1 1.775e+00 3.514e+00 1.770e+00 -3.415e-02 -1.763e-02 -3.898e-03
255 1 -1.778e+00 1.769e+00 3.534e+00 -2.113e-02 -1.827e-03 -1.031e-02
256 1 1.749e+00 -1.765e+00 -3.534e+00 -9.265e-03 -1.895e-02 -3.171e-03
257 1 -1.784e+00 1.757e+00 -3.532e+00 -2.686e-02 -1.875e-02 1.392e-03
258 1 1.763e+00 -1.782e+00 3.541e+00 -1.236e-02 -2.297e-02 9.460e-03
259 1 -1.796e+00 3.538e+00 1.758e+00 -1.639e-03 -1.025e-02 -5.351e-04
260 1 3.525e+00 -1.779e+00 -1.760e+00 -1.610e-02 -3.604e-02 -1.017e-03
261 1 3.506e+00 -1.780e+00 1.780e+00 -1.263e-02 7.687e-03 -9.752e-03
262 1 -1.774e+00 3.546e+00 -1.789e+00 -1.050e-02 7.406e-03 3.617e-03
263 1 -3.462e-03 3.516e+00 -7.146e-03 -4.544e-02 1.051e-02 -3.680e-03
264 1 3.519e+00 -9.038e-04 -1.002e-02 1.816e-02 -3.892e-02 -3.245e-03
265 1 1.763e+00 1.766e+00 -3.554e+00 -1.992e-02 -2.303e-02 -5.085e-03
266 1 1.774e+00 1.773e+00 3.551e+00 -1.863e-02 -1.437e-02 3.866e-03
267 1 -2.613e-03 -1.352e-02 3.536e+00 -3.176e-02 -2.675e-02 -3.562e-03
268 1 6.639e-03 -4.813e-03 -3.522e+00 -4.797e-02 -2.225e-02 1.194e-03
269 1 -3.539e+00 -1.461e-02 -9.013e-03 -3.498e-02 -1.523e-02 -9.740e-03
270 1 -1.568e-02 -3.567e+00 7.802e-03 -6.306e-03 -2.528e-02 -4.710e-03
271 1 1.045e-02 1.209e-03 2.959e-03 1.731e+00 1.744e+00 8.022e-04
272 1 -2.288e-03 1.760e+00 1.754e+00 -2.449e-02 -3.409e-02 -1.020e-02
273 1 1.765e+00 -9.016e-03 -1.778e+00 -2.691e-02 -3.748e-02 8.179e-03
274 1 1.750e+00 -4.193e-03 1.754e+00 -9.952e-03 -2.679e-02 1.863e-02
275 1 -7.364e-03 1.776e+00 -1.773e+00 -2.115e-02 -2.767e-02 -4.113e-04
276 1 -1.783e+00 1.763e+00 -1.369e-02 9.960e-03 -5.736e-03 7.337e-03
277 1 1.758e+00 -1.789e+00 1.802e-02 -3.511e-02 2.025e-03 6.509e-03
278 1 -1.775e+00 -3.884e-03 1.774e+00 1.169e-02 -2.363e-02 -1.107e-02
279 1 -1.796e-02 -1.780e+00 -1.774e+00 -1.543e-02 -1.093e-02 -1.460e-03
280 1 -1.772e+00 -2.201e-02 -1.754e+00 -1.584e-02 -1.479e-02 4.585e-03
281 1 3.636e-03 -1.773e+00 1.764e+00 -4.822e-03 -2.103e-02 -1.051e-02
282 1 -1.774e+00 -1.790e+00 -6.100e-03 6.727e-03 -1.402e-02 4.499e-03
ITEM: TIMESTEP
0
ITEM: NUMBER OF ATOMS
47
ITEM: BOX BOUNDS xy xz yz pp pp pp
                     0.00000000000000e+00 1.06000000000000e+01 0.00000000000000e+00
0.00000000000000e+00	1.06000000000000e+01	0.00000000000000e+00
0.00000000000000e+00	1.06000000000000e+01	0.00000000000000e+00
ITEM: ATOMS id type x y z DisplacementX DisplacementY DisplacementZ
283 1 1.104e-02 3.508e+00 3.510e+00 6.827e-03 -1.397e-02 -1.224e-02
284 1 1.766e+00 -3.555e+00 1.760e+00 -7.858e-03 -5.068e-03 -1.266e-02
285 1 -1.753e+00 1.765e+00 -3.561e+00 1.976e-02 -2.837e-02 -5.605e-03
286 1 1.772e+00 1.766e+00 -3.533e+00 -8.687e-03 -1.175e-02 1.784e-03
287 1 -1.775e+00 -3.557e+00 1.769e+00 -2.108e-03 -1.132e-02 -2.009e-02
288 1 3.525e+00 -7.095e-03 3.509e+00 1.016e-02 -7.311e-03 -1.435e-02
289 1 -3.518e+00 3.548e+00 -8.847e-03 -5.749e-04 -1.521e-02 -1.479e-02
290 1 3.538e+00 3.544e+00 8.064e-03 -1.557e-02 -1.591e-02 3.823e-03
291 1 -3.561e+00 1.324e-03 3.532e+00 1.388e-02 -2.438e-02 -2.426e-02
292 1 -1.768e+00 -1.767e+00 -3.525e+00 8.682e-03 -9.927e-03 -9.095e-03
293 1 1.783e+00 -1.800e+00 -3.555e+00 -9.198e-03 -9.836e-03 -2.567e-02
294 1 -1.761e+00 -3.572e+00 -1.767e+00 2.207e-02 -5.526e-03 -2.447e-02
295 1 1.763e+00 -3.531e+00 -1.762e+00 4.107e-03 -5.541e-03 -2.641e-02
296 1 -3.553e+00 -1.778e+00 -1.770e+00 1.037e-02 -1.635e-02 -1.439e-02
297 1 3.525e+00 -1.785e+00 -1.761e+00 1.068e-02 -1.453e-02 -8.355e-03
298 1 -1.737e+00 3.527e+00 1.757e+00 3.762e-03 -4.251e-03 -5.838e-03
299 1 1.766e+00 3.514e+00 1.762e+00 1.815e-02 -3.930e-04 -2.801e-02
300 1 -1.763e+00 1.767e+00 3.521e+00 -1.192e-02 -2.850e-02 -1.107e-02
301 1 1.757e+00 1.758e+00 3.502e+00 9.514e-03 -9.908e-03 4.344e-04
302 1 3.552e+00 -1.771e+00 1.747e+00 -2.808e-02 -1.878e-02 -2.417e-02
303 1 -3.529e+00 1.770e+00 -1.783e+00 9.193e-03 -1.308e-02 -1.852e-02
304 1 -3.530e+00 -1.780e+00 1.772e+00 -5.630e-03 -6.390e-03 -3.645e-02
305 1 3.531e+00 1.780e+00 -1.778e+00 -3.109e-03 -1.019e-02 -3.176e-02
306 1 1.778e+00 -1.788e+00 3.548e+00 -1.658e-02 -1.778e-02 -1.560e-02
307 1 -1.771e+00 3.506e+00 -1.760e+00 -7.218e-03 -2.249e-02 -2.603e-02
308 1 1.770e+00 3.520e+00 -1.782e+00 5.365e-03 -1.740e-02 -1.549e-02
309 1 -1.773e+00 -1.784e+00 3.526e+00 -4.906e-03 -2.399e-02 -1.581e-02
310 1 1.408e-02 -5.499e-03 3.519e+00 -1.270e-02 -1.885e-02 1.243e-02
311 1 -4.209e-03 3.508e+00 1.039e-02 1.117e-02 -4.789e-03 -1.910e-02
312 1 -3.545e+00 1.765e+00 1.745e+00 1.966e-02 -2.444e-02 -3.584e-02
313 1 3.543e+00 1.765e+00 1.754e+00 -3.182e-03 -2.143e-02 -2.623e-02
314 1 3.547e+00 -5.513e-03 -1.101e-02 2.095e-02 -2.709e-02 -2.306e-02
315 1 -3.548e+00 -2.128e-02 -2.911e-05 -6.896e-03 -2.946e-02 -2.822e-02
316 1 -1.307e-02 -3.556e+00 -9.867e-03 5.038e-03 -2.929e-02 -9.258e-03
317 1 -2.800e-03 -1.583e-02 -3.565e+00 -2.936e-03 -2.995e-02 -5.145e-03
318 1 -6.864e-03 1.346e-02 1.046e-02 2.202e-03 1.743e+00 1.739e+00
319 1 1.757e+00 6.024e-03 1.771e+00 -1.396e-03 -1.211e-02 -2.794e-02
320 1 -1.764e+00 1.768e+00 -1.449e-02 3.038e-03 -2.250e-02 -1.899e-02
321 1 1.760e+00 1.758e+00 -1.504e-02 -6.872e-03 -1.745e-02 -3.474e-02
322 1 -1.760e+00 -1.173e-02 1.775e+00 -1.428e-02 -5.369e-02 -1.780e-02
323 1 4.142e-03 -1.790e+00 1.769e+00 -4.988e-03 3.618e-03 -2.746e-02
324 1 -5.884e-03 1.767e+00 -1.794e+00 5.234e-03 -2.734e-02 -5.085e-03
325 1 1.775e+00 -1.780e+00 1.170e-03 -1.529e-02 -4.833e-03 -2.938e-02
326 1 -1.771e+00 -3.862e-03 -1.771e+00 9.041e-03 -1.465e-02 -7.628e-03
327 1 -1.770e+00 -1.786e+00 -2.182e-02 4.144e-03 -1.403e-02 -2.029e-02
328 1 1.760e+00 1.270e-03 -1.778e+00 -3.413e-02 -2.788e-02 -1.917e-02
329 1 6.971e-03 -1.788e+00 -1.785e+00 3.765e-03 -1.161e-02 -2.444e-02
ITEM: TIMESTEP
0
ITEM: NUMBER OF ATOMS
47
ITEM: BOX BOUNDS xy xz yz pp pp pp
                     0.00000000000000e+00 1.06000000000000e+01 0.00000000000000e+00
0.00000000000000e+00	1.06000000000000e+01	0.00000000000000e+00
0.00000000000000e+00	1.06000000000000e+01	0.00000000000000e+00
ITEM: ATOMS id type x y z DisplacementX DisplacementY DisplacementZ
330 1 -3.521e+00 -1.322e-02 3.524e+00 1.843e-02 -7.147e-04 -3.030e-03
331 1 3.549e+00 1.779e+00 1.768e+00 2.803e-02 1.234e-02 -6.008e-03
332 1 -1.756e+00 -1.775e+00 -3.552e+00 2.044e-02 9.618e-03 -8.704e-03
333 1 -1.752e+00 1.775e+00 -3.544e+00 3.621e-02 -1.765e-02 -2.961e-02
334 1 3.542e+00 -1.773e+00 1.754e+00 7.232e-03 3.345e-03 -4.574e-03
335 1 2.736e-02 3.534e+00 3.516e+00 2.045e-02 -1.336e-02 -2.398e-02
336 1 -3.513e+00 -3.549e+00 -2.349e-02 2.348e-02 1.588e-03 -2.769e-02
337 1 -3.537e+00 3.542e+00 -9.769e-03 1.204e-02 -1.789e-02 -1.428e-02
338 1 1.302e-02 -3.516e+00 3.527e+00 1.735e-02 -1.818e-03 -1.226e-02
339 1 1.784e+00 -1.752e+00 -3.533e+00 4.694e-03 2.357e-02 -1.241e-02
340 1 1.783e+00 1.768e+00 -3.552e+00 1.216e-02 -1.977e-02 -1.848e-02
341 1 3.536e+00 -1.790e+00 -1.784e+00 1.351e-02 -3.934e-03 -2.433e-02
342 1 3.541e+00 1.761e+00 -1.778e+00 1.925e-02 -2.003e-02 7.238e-03
343 1 1.785e+00 -3.529e+00 -1.758e+00 1.705e-03 1.292e-02 4.630e-03
344 1 1.793e+00 3.542e+00 -1.760e+00 7.555e-03 4.070e-03 -1.584e-02
345 1 -3.534e+00 -1.772e+00 1.767e+00 5.022e-03 1.548e-03 -2.448e-02
346 1 -3.499e+00 1.765e+00 1.753e+00 1.126e-03 2.552e-02 -2.701e-02
347 1 -1.760e+00 -1.779e+00 3.527e+00 1.448e-02 -2.977e-02 -1.880e-02
348 1 -1.760e+00 1.773e+00 3.537e+00 3.075e-02 1.464e-02 2.077e-02
349 1 1.777e+00 3.543e+00 1.762e+00 1.444e-02 2.094e-02 -7.076e-03
350 1 -1.765e+00 -3.524e+00 -1.790e+00 1.075e-02 7.033e-03 -5.325e-03
351 1 1.780e+00 -3.542e+00 1.765e+00 1.385e-02 1.727e-02 -3.859e-02
352 1 -1.765e+00 3.560e+00 -1.767e+00 2.509e-02 -8.147e-03 -1.503e-02
353 1 1.781e+00 1.770e+00 3.525e+00 1.924e-02 7.648e-03 -2.176e-02
354 1 -3.510e+00 -1.774e+00 -1.781e+00 2.111e-02 -5.075e-03 -2.368e-02
355 1 -3.528e+00 1.757e+00 -1.791e+00 1.774e-02 -2.554e-03 -2.702e-02
356 1 1.770e+00 -1.772e+00 3.529e+00 1.353e-02 -2.379e-02 -1.267e-02
357 1 -1.090e-02 3.988e-03 3.522e+00 2.500e-02 1.139e-02 2.001e-02
358 1 -3.547e+00 -7.881e-03 4.390e-03 3.631e-03 3.454e-03 -4.913e-02
359 1 -1.774e+00 -3.547e+00 1.779e+00 3.888e-04 -4.158e-03 -3.544e-02
360 1 -1.768e+00 3.557e+00 1.776e+00 9.219e-03 -5.341e-03 -3.522e-02
361 1 1.362e-02 3.553e+00 -9.214e-03 2.371e-02 1.601e-02 -2.199e-02
362 1 2.972e-03 -3.528e+00 -2.989e-03 1.925e-03 4.401e-03 -5.689e-03
363 1 3.562e+00 -2.033e-02 -1.750e-02 2.950e-02 1.259e-02 -2.572e-03
364 1 1.146e-02 -2.752e-03 -3.529e+00 2.719e-03 1.854e-03 -1.428e-02
365 1 8.503e-04 -3.741e-03 -1.255e-02 -1.738e+00 5.978e-03 1.744e+00
366 1 -2.409e-03 1.776e+00 1.772e+00 2.593e-02 2.084e-03 -3.286e-02
367 1 -1.772e+00 -1.768e+00 8.508e-03 3.274e-02 -2.145e-03 -3.509e-02
368 1 -1.740e+00 1.765e+00 3.139e-03 3.592e-02 8.449e-03 -3.147e-02
369 1 1.532e-02 -1.766e+00 1.764e+00 4.640e-02 -5.852e-03 -7.411e-03
370 1 1.801e+00 1.027e-02 1.772e+00 -7.019e-03 6.494e-03 -2.210e-02
371 1 -1.765e+00 1.352e-02 -1.804e+00 1.116e-02 3.261e-04 -1.338e-02
372 1 1.783e+00 1.766e+00 -1.206e-02 1.762e-02 -9.569e-03 -6.382e-03
373 1 3.977e-03 -1.773e+00 -1.773e+00 1.112e-02 6.520e-03 -6.593e-03
374 1 1.801e+00 -1.763e+00 -6.382e-04 -4.342e-03 1.023e-02 -3.447e-02
375 1 8.766e-03 1.780e+00 -1.772e+00 1.229e-02 -8.301e-03 -5.836e-03
376 1 1.773e+00 -1.041e-02 -1.756e+00 4.588e-03 2.042e-03 -7.655e-03
ITEM: TIMESTEP
0
ITEM: NUMBER OF ATOMS
47
ITEM: BOX BOUNDS xy xz yz pp pp pp
                     0.00000000000000e+00 1.06000000000000e+01 0.00000000000000e+00
0.00000000000000e+00	1.06000000000000e+01	0.00000000000000e+00
0.00000000000000e+00	1.06000000000000e+01	0.00000000000000e+00
ITEM: ATOMS id type x y z DisplacementX DisplacementY DisplacementZ
377 1 -3.520e+00 3.522e+00 9.392e-03 2.434e-02 -1.934e-02 1.087e-02
378 1 3.552e+00 1.760e+00 -1.765e+00 1.752e-02 -1.880e-02 1.715e-02
379 1 -1.768e+00 -3.534e+00 1.787e+00 3.116e-02 -1.667e-02 2.921e-03
380 1 -1.746e+00 -3.552e+00 -1.772e+00 4.144e-02 -8.660e-03 9.443e-03
381 1 3.541e+00 1.764e+00 1.766e+00 1.938e-02 -1.807e-02 -3.974e-03
382 1 1.270e-02 3.516e+00 -3.548e+00 4.422e-02 -2.795e-02 -9.240e-04
383 1 -3.531e+00 -1.174e-02 3.556e+00 9.015e-03 -1.017e-02 -8.848e-03
384 1 -3.533e+00 -1.259e-02 -3.528e+00 8.569e-03 -1.197e-02 -1.415e-02
385 1 1.111e-02 3.525e+00 3.540e+00 1.358e-02 -1.658e-03 -1.588e-02
386 1 1.773e+00 -3.556e+00 1.762e+00 1.528e-02 -1.493e-02 1.530e-03
387 1 1.780e+00 -3.566e+00 -1.785e+00 2.622e-02 -3.324e-02 -1.822e-03
388 1 3.551e+00 -1.788e+00 1.782e+00 -1.370e-02 -3.560e-02 2.000e-03
389 1 3.542e+00 -1.791e+00 -1.758e+00 2.711e-02 -1.403e-02 7.078e-03