ITEM: TIMESTEP
0
ITEM: NUMBER OF ATOMS
4
ITEM: BOX BOUNDS xy xz yz pp pp pp
                     -5.00000000000000e-01 5.00000000000000e-01 0.00000000000000e+00
-5.00000000000000e-01	5.00000000000000e-01	0.00000000000000e+00
-5.00000000000000e-01	5.00000000000000e-01	0.00000000000000e+00
ITEM: ATOMS id type x y z DisplacementX DisplacementY DisplacementZ
1 1 0.000e+00 0.000e+00 0.000e+00 -1.220e-03 9.949e-02 -1.342e-04
2 1 -1.000e-01 0.000e+00 0.000e+00 -1.184e-03 3.619e-04 3.078e-04
3 1 0.000e+00 -1.000e-01 0.000e+00 -3.582e-04 -5.243e-04 -3.990e-04
4 1 1.000e-01 0.000e+00 0.000e+00 -7.114e-04 -2.159e-05 9.491e-04
ITEM: TIMESTEP
0
ITEM: NUMBER OF ATOMS
4
ITEM: BOX BOUNDS xy xz yz pp pp pp
                     -5.00000000000000e-01 5.00000000000000e-01 0.00000000000000e+00
-5.00000000000000e-01	5.00000000000000e-01	0.00000000000000e+00
-5.00000000000000e-01	5.00000000000000e-01	0.00000000000000e+00
ITEM: ATOMS id type x y z DisplacementX DisplacementY DisplacementZ
5 1 0.000e+00 -1.000e-01 0.000e+00 -2.161e-03 -1.250e-04 4.336e-04
6 1 0.000e+00 0.000e+00 0.000e+00 1.000e-01 -1.371e-04 5.062e-04
7 1 0.000e+00 1.000e-01 0.000e+00 1.101e-03 -9.828e-04 1.841e-03
8 1 -1.000e-01 0.000e+00 0.000e+00 3.445e-05 3.535e-04 6.518e-04
ITEM: TIMESTEP
0
ITEM: NUMBER OF ATOMS
4
ITEM: BOX BOUNDS xy xz yz pp pp pp
                     -5.00000000000000e-01 5.00000000000000e-01 0.00000000000000e+00
-5.00000000000000e-01	5.00000000000000e-01	0.00000000000000e+00
-5.00000000000000e-01	5.00000000000000e-01	0.00000000000000e+00
ITEM: ATOMS id type x y z DisplacementX DisplacementY DisplacementZ
9 1 1.000e-01 0.000e+00 0.000e+00 6.728e-04 5.643e-04 -2.472e-03
10 1 -1.000e-01 0.000e+00 0.000e+00 9.284e-04 -4.086e-04 -8.667e-04
11 1 0.000e+00 0.000e+00 0.000e+00 1.405e-03 -9.845e-02 6.800e-04
12 1 0.000e+00 1.000e-01 0.000e+00 -5.568e-04 1.354e-04 -7.764e-05
ITEM: TIMESTEP
0
ITEM: NUMBER OF ATOMS
4
ITEM: BOX BOUNDS xy xz yz pp pp pp
                     -5.00000000000000e-01 5.00000000000000e-01 0.00000000000000e+00
-5.00000000000000e-01	5.00000000000000e-01	0.00000000000000e+00
-5.00000000000000e-01	5.00000000000000e-01	0.00000000000000e+00
ITEM: ATOMS id type x y z DisplacementX DisplacementY DisplacementZ
13 1 0.000e+00 1.000e-01 0.000e+00 -1.229e-04 2.253e-04 -2.744e-04
14 1 0.000e+00 -1.000e-01 0.000e+00 2.416e-03 1.688e-03 -1.737e-03
15 1 0.000e+00 0.000e+00 0.000e+00 -9.951e-02 -5.360e-04 -7.993e-05
16 1 1.000e-01 0.000e+00 0.000e+00 2.023e-03 -1.715e-03 -5.450e-04
ITEM: TIMESTEP
0
ITEM: NUMBER OF ATOMS
4
ITEM: BOX BOUNDS xy xz yz pp pp pp
                     -5.00000000000000e-01 5.00000000000000e-01 0.00000000000000e+00
-5.00000000000000e-01	5.00000000000000e-01	0.00000000000000e+00
-5.00000000000000e-01	5.00000000000000e-01	0.00000000000000e+00
ITEM: ATOMS id type x y z DisplacementX DisplacementY DisplacementZ
17 1 0.000e+00 0.000e+00 0.000e+00 9.998e-02 6.722e-04 -6.046e-04
18 1 0.000e+00 1.000e-01 0.000e+00 -2.092e-03 -9.785e-04 -7.658e-04
19 1 0.000e+00 -1.000e-01 0.000e+00 -9.058e-04 3.601e-05 1.542e-04
20 1 -1.000e-01 0.000e+00 0.000e+00 -1.205e-04 -1.240e-03 -4.651e-04
ITEM: TIMESTEP
0
ITEM: NUMBER OF ATOMS
4
ITEM: BOX BOUNDS xy xz yz pp pp pp
                     -5.00000000000000e-01 5.00000000000000e-01 0.00000000000000e+00
-5.00000000000000e-01	5.00000000000000e-01	0.00000000000000e+00
-5.00000000000000e-01	5.00000000000000e-01	0.00000000000000e+00
ITEM: ATOMS id type x y z DisplacementX DisplacementY DisplacementZ
21 1 1.000e-01 0.000e+00 0.000e+00 -1.110e-03 -1.167e-03 1.754e-03
22 1 0.000e+00 -1.000e-01 0.000e+00 7.312e-04 -6.172e-04 -5.973e-04
23 1 0.000e+00 0.000e+00 0.000e+00 -1.005e-01 1.099e-03 -4.704e-05
24 1 0.000e+00 1.000e-01 0.000e+00 1.458e-03 -1.206e-03 -6.930e-04
ITEM: TIMESTEP
0
ITEM: NUMBER OF ATOMS
4
ITEM: BOX BOUNDS xy xz yz pp pp pp
                     -5.00000000000000e-01 5.00000000000000e-01 0.00000000000000e+00
-5.00000000000000e-01	5.00000000000000e-01	0.00000000000000e+00
-5.00000000000000e-01	5.00000000000000e-01	0.00000000000000e+00
ITEM: ATOMS id type x y z DisplacementX DisplacementY DisplacementZ
25 1 0.000e+00 -1.000e-01 0.000e+00 -1.854e-04 -1.604e-03 -3.857e-04
26 1 1.000e-01 0.000e+00 0.000e+00 1.629e-03 -1.214e-03 -4.449e-04
27 1 -1.000e-01 0.000e+00 0.000e+00 -4.543e-05 9.042e-04 5.069e-04
28 1 0.000e+00 0.000e+00 0.000e+00 -9.881e-04 9.998e-02 2.630e-04
ITEM: TIMESTEP
0
ITEM: NUMBER OF ATOMS
4
ITEM: BOX BOUNDS xy xz yz pp pp pp
                     -5.00000000000000e-01 5.00000000000000e-01 0.00000000000000e+00
-5.00000000000000e-01	5.00000000000000e-01	0.00000000000000e+00
-5.00000000000000e-01	5.00000000000000e-01	0.00000000000000e+00
ITEM: ATOMS id type x y z DisplacementX DisplacementY DisplacementZ
29 1 0.000e+00 1.000e-01 0.000e+00 -1.458e-03 -1.279e-04 6.556e-05
30 1 -1.000e-01 0.000e+00 0.000e+00 -4.760e-04 -1.482e-04 -1.981e-04
31 1 1.000e-01 0.000e+00 0.000e+00 8.242e-04 1.329e-03 1.210e-04
32 1 0.000e+00 0.000e+00 0.000e+00 3.773e-04 -9.958e-02 1.572e-03
ITEM: TIMESTEP
0
ITEM: NUMBER OF ATOMS
4
ITEM: BOX BOUNDS xy xz yz pp pp pp
                     -5.00000000000000e-01 5.00000000000000e-01 0.00000000000000e+00
-5.00000000000000e-01	5.00000000000000e-01	0.00000000000000e+00
-5.00000000000000e-01	5.00000000000000e-01	0.00000000000000e+00
ITEM: ATOMS id type x y z DisplacementX DisplacementY DisplacementZ
33 1 0.000e+00 -1.000e-01 0.000e+00 1.073e-03 9.706e-04 1.318e-03
34 1 0.000e+00 1.000e-01 0.000e+00 -1.495e-04 -8.493e-04 1.369e-03
35 1 0.000e+00 0.000e+00 0.000e+00 1.015e-01 2.138e-04 -1.195e-03
36 1 -1.000e-01 0.000e+00 0.000e+00 2.546e-04 2.748e-04 -1.895e-03
ITEM: TIMESTEP
0
ITEM: NUMBER OF ATOMS
4
ITEM: BOX BOUNDS xy xz yz pp pp pp
                     -5.00000000000000e-01 5.00000000000000e-01 0.00000000000000e+00
-5.00000000000000e-01	5.00000000000000e-01	0.00000000000000e+00
-5.00000000000000e-01	5.00000000000000e-01	0.00000000000000e+00
ITEM: ATOMS id type x y z DisplacementX DisplacementY DisplacementZ
37 1 1.000e-01 0.000e+00 0.000e+00 -9.172e-04 -8.848e-05 -7.162e-04
38 1 -1.000e-01 0.000e+00 0.000e+00 -2.665e-05 -1.532e-03 8.547e-04
39 1 0.000e+00 0.000e+00 0.000e+00 2.196e-03 9.755e-02 5.906e-04
40 1 0.000e+00 -1.000e-01 0.000e+00 1.474e-03 1.925e-03 8.968e-04
ITEM: TIMESTEP
0
ITEM: NUMBER OF ATOMS
4
ITEM: BOX BOUNDS xy xz yz pp pp pp
                     -5.00000000000000e-01 5.00000000000000e-01 0.00000000000000e+00
-5.00000000000000e-01	5.00000000000000e-01	0.00000000000000e+00
-5.00000000000000e-01	5.00000000000000e-01	0.00000000000000e+00
ITEM: ATOMS id type x y z DisplacementX DisplacementY DisplacementZ
41 1 -1.000e-01 0.000e+00 0.000e+00 6.549e-04 1.265e-03 -1.303e-03
42 1 1.000e-01 0.000e+00 0.000e+00 7.978e-04 -2.152e-04 -1.656e-03
43 1 0.000e+00 0.000e+00 0.000e+00 -2.043e-03 -1.003e-01 4.920e-04
44 1 0.000e+00 1.000e-01 0.000e+00 -7.354e-05 -1.112e-03 8.621e-04
ITEM: TIMESTEP
0
ITEM: NUMBER OF ATOMS
4
ITEM: BOX BOUNDS xy xz yz pp pp pp
                     -5.00000000000000e-01 5.00000000000000e-01 0.00000000000000e+00
-5.00000000000000e-01	5.00000000000000e-01	0.00000000000000e+00
-5.00000000000000e-01	5.00000000000000e-01	0.00000000000000e+00
ITEM: ATOMS id type x y z DisplacementX DisplacementY DisplacementZ
45 1 0.000e+00 -1.000e-01 0.000e+00 1.902e-04 2.025e-03 7.071e-05
46 1 0.000e+00 1.000e-01 0.000e+00 -7.093e-04 -6.152e-04 -4.170e-04
47 1 0.000e+00 0.000e+00 0.000e+00 -9.974e-02 -1.957e-03 -1.053e-03
48 1 1.000e-01 0.000e+00 0.000e+00 1.476e-03 -5.627e-04 7.470e-04
ITEM: TIMESTEP
0
ITEM: NUMBER OF ATOMS
4
ITEM: BOX BOUNDS xy xz yz pp pp pp
                     -5.00000000000000e-01 5.00000000000000e-01 0.00000000000000e+00
-5.00000000000000e-01	5.00000000000000e-01	0.00000000000000e+00
-5.00000000000000e-01	5.00000000000000e-01	0.00000000000000e+00
ITEM: ATOMS id type x y z DisplacementX DisplacementY DisplacementZ
49 1 0.000e+00 0.000e+00 0.000e+00 -1.853e-04 1.005e-01 3.243e-04
50 1 0.000e+00 -1.000e-01 0.000e+00 -6.907e-04 2.034e-03 2.391e-04
51 1 1.000e-01 0.000e+00 0.000e+00 -2.987e-04 8.479e-05 1.085e-03
52 1 -1.000e-01 0.000e+00 0.000e+00 1.434e-03 1.510e-03 3.882e-04
ITEM: TIMESTEP
0
ITEM: NUMBER OF ATOMS
4
ITEM: BOX BOUNDS xy xz yz pp pp pp
                     -5.00000000000000e-01 5.00000000000000e-01 0.00000000000000e+00
-5.00000000000000e-01	5.00000000000000e-01	0.00000000000000e+00
-5.00000000000000e-01	5.00000000000000e-01	0.00000000000000e+00
ITEM: ATOMS id type x y z DisplacementX DisplacementY DisplacementZ
53 1 1.000e-01 0.000e+00 0.000e+00 -1.087e-03 -1.408e-03 4.901e-04
54 1 0.000e+00 1.000e-01 0.000e+00 -5.753e-04 9.261e-04 1.354e-03
55 1 -1.000e-01 0.000e+00 0.000e+00 -2.661e-04 -1.818e-03 -2.005e-03
56 1 0.000e+00 0.000e+00 0.000e+00 -1.816e-03 -9.925e-02 1.285e-04
ITEM: TIMESTEP
0
ITEM: NUMBER OF ATOMS
4
ITEM: BOX BOUNDS xy xz yz pp pp pp
                     -5.00000000000000e-01 5.00000000000000e-01 0.00000000000000e+00
-5.00000000000000e-01	5.00000000000000e-01	0.00000000000000e+00
-5.00000000000000e-01	5.00000000000000e-01	0.00000000000000e+00
ITEM: ATOMS id type x y z DisplacementX DisplacementY DisplacementZ
57 1 0.000e+00 -1.000e-01 0.000e+00 2.659e-04 4.858e-04 1.554e-05
58 1 0.000e+00 1.000e-01 0.000e+00 9.613e-04 -2.086e-04 4.288e-04
59 1 1.000e-01 0.000e+00 0.000e+00 -1.065e-03 8.134e-04 1.646e-04
60 1 0.000e+00 0.000e+00 0.000e+00 -9.933e-02 -1.175e-03 6.890e-07
ITEM: TIMESTEP
0
ITEM: NUMBER OF ATOMS
4
ITEM: BOX BOUNDS xy xz yz pp pp pp
                     -5.00000000000000e-01 5.00000000000000e-01 0.00000000000000e+00
-5.00000000000000e-01	5.00000000000000e-01	0.00000000000000e+00
-5.00000000000000e-01	5.00000000000000e-01	0.00000000000000e+00
ITEM: ATOMS id type x y z DisplacementX DisplacementY DisplacementZ
61 1 0.000e+00 1.000e-01 0.000e+00 -3.537e-04 -6.684e-04 3.420e-05
62 1 0.000e+00 -1.000e-01 0.000e+00 -1.033e-03 -2.328e-04 -3.796e-04
63 1 0.000e+00 0.000e+00 0.000e+00 1.007e-01 9.684e-04 6.804e-05
64 1 -1.000e-01 0.000e+00 0.000e+00 -8.458e-04 -2.058e-05 -3.978e-04
ITEM: TIMESTEP
0
ITEM: NUMBER OF ATOMS
4
ITEM: BOX BOUNDS xy xz yz pp pp pp
                     -5.00000000000000e-01 5.00000000000000e-01 0.00000000000000e+00
-5.00000000000000e-01	5.00000000000000e-01	0.00000000000000e+00
-5.00000000000000e-01	5.00000000000000e-01	0.00000000000000e+00
ITEM: ATOMS id type x y z DisplacementX DisplacementY DisplacementZ
65 1 0.000e+00 -1.000e-01 0.000e+00 5.129e-04 -6.040e-04 -6.801e-04
66 1 0.000e+00 0.000e+00 0.000e+00 7.001e-05 1.010e-01 -7.328e-04
67 1 1.000e-01 0.000e+00 0.000e+00 2.666e-04 -8.886e-04 -5.459e-04
68 1 -1.000e-01 0.000e+00 0.000e+00 -5.074e-04 -4.229e-04 1.275e-03
ITEM: TIMESTEP
0
ITEM: NUMBER OF ATOMS
4
ITEM: BOX BOUNDS xy xz yz pp pp pp
                     -5.00000000000000e-01 5.00000000000000e-01 0.00000000000000e+00
-5.00000000000000e-01	5.00000000000000e-01	0.00000000000000e+00
-5.00000000000000e-01	5.00000000000000e-01	0.00000000000000e+00
ITEM: ATOMS id type x y z DisplacementX DisplacementY DisplacementZ
69 1 -1.000e-01 0.000e+00 0.000e+00 5.950e-04 -5.105e-04 -4.061e-04
70 1 0.000e+00 1.000e-01 0.000e+00 -6.638e-04 1.281e-04 -2.170e-03
71 1 0.000e+00 0.000e+00 0.000e+00 1.011e-01 -9.855e-04 -4.305e-04
72 1 0.000e+00 -1.000e-01 0.000e+00 8.964e-04 8.086e-04 4.459e-04
ITEM: TIMESTEP
0
ITEM: NUMBER OF ATOMS
4
ITEM: BOX BOUNDS xy xz yz pp pp pp
                     -5.00000000000000e-01 5.00000000000000e-01 0.00000000000000e+00
-5.00000000000000e-01	5.00000000000000e-01	0.00000000000000e+00
-5.00000000000000e-01	5.00000000000000e-01	0.00000000000000e+00
ITEM: ATOMS id type x y z DisplacementX DisplacementY DisplacementZ
73 1 1.000e-01 0.000e+00 0.000e+00 -6.902e-04 -1.287e-04 -1.416e-03
74 1 0.000e+00 -1.000e-01 0.000e+00 -6.867e-04 -1.197e-03 1.330e-03
75 1 0.000e+00 1.000e-01 0.000e+00 1.306e-03 7.586e-05 -9.206e-04
76 1 0.000e+00 0.000e+00 0.000e+00 -1.006e-01 -1.703e-03 8.707e-04
ITEM: TIMESTEP
0
ITEM: NUMBER OF ATOMS
4
ITEM: BOX BOUNDS xy xz yz pp pp pp
                     -5.00000000000000e-01 5.00000000000000e-01 0.00000000000000e+00
-5.00000000000000e-01	5.00000000000000e-01	0.00000000000000e+00
-5.00000000000000e-01	5.00000000000000e-01	0.00000000000000e+00
ITEM: ATOMS id type x y z DisplacementX DisplacementY DisplacementZ
77 1 -1.000e-01 0.000e+00 0.000e+00 -2.187e-03 -4.118e-04 8.332e-04
78 1 1.000e-01 0.000e+00 0.000e+00 -7.418e-04 9.816e-04 -1.533e-03
79 1 0.000e+00 0.000e+00 0.000e+00 5.109e-04 -9.940e-02 1.819e-04
80 1 0.000e+00 1.000e-01 0.000e+00 -3.598e-04 -1.376e-03 5.758e-04
