ITEM: TIMESTEP
0
ITEM: NUMBER OF ATOMS
107
ITEM: BOX BOUNDS xy xz yz pp pp pp
                     0.00000000000000e+00 1.06000000000000e+01 0.00000000000000e+00
0.00000000000000e+00	1.06000000000000e+01	0.00000000000000e+00
0.00000000000000e+00	1.06000000000000e+01	0.00000000000000e+00
ITEM: ATOMS id type x y z DisplacementX DisplacementY DisplacementZ
1 1 3.525e-01 3.545e-01 3.544e-01 -1.225e-03 -1.074e-03 -5.110e-04
2 1 2.123e+00 2.124e+00 3.517e-01 7.538e-04 1.220e-03 6.939e-04
3 1 2.125e+00 3.525e-01 2.126e+00 -7.313e-04 -1.642e-04 1.362e-03
4 1 3.535e-01 2.125e+00 2.124e+00 -2.785e-03 -1.149e-02 -1.627e-02
5 1 3.895e+00 3.549e-01 3.555e-01 -1.431e-03 -5.407e-04 -5.396e-04
6 1 5.664e+00 2.124e+00 3.553e-01 1.082e-03 -1.387e-02 -1.511e-02
7 1 5.666e+00 3.514e-01 2.127e+00 -2.580e-03 -1.428e-02 -1.806e-02
8 1 3.894e+00 2.125e+00 2.125e+00 1.447e-03 -1.325e-02 -1.596e-02
9 1 7.434e+00 3.507e-01 3.560e-01 2.105e-04 -1.431e-02 -2.058e-02
10 1 9.201e+00 2.123e+00 3.534e-01 -8.696e-04 -1.373e-02 -1.579e-02
11 1 9.202e+00 3.511e-01 2.125e+00 2.917e-03 -1.326e-02 -1.721e-02
12 1 7.433e+00 2.124e+00 2.122e+00 -2.219e-04 -2.684e-02 -1.567e-02
13 1 3.514e-01 3.897e+00 3.556e-01 -3.254e-03 -1.607e-02 -1.447e-02
14 1 2.125e+00 3.896e+00 2.125e+00 -1.391e-04 -1.951e-02 -1.745e-02
15 1 3.895e+00 3.895e+00 3.541e-01 1.066e-04 -1.640e-02 -1.626e-02
16 1 5.665e+00 3.895e+00 2.128e+00 8.628e-03 -8.990e-03 -1.755e-02
17 1 7.433e+00 3.896e+00 3.575e-01 -7.201e-04 -9.774e-03 -9.421e-03
18 1 9.204e+00 3.897e+00 2.128e+00 -8.388e-03 -8.679e-03 -1.703e-02
19 1 3.524e-01 3.521e-01 3.893e+00 1.623e-03 -4.047e-04 -3.865e-04
20 1 2.124e+00 2.123e+00 3.894e+00 -6.600e-04 -1.044e-03 -1.375e-04
21 1 3.898e+00 3.518e-01 3.894e+00 -3.577e-04 1.208e-05 3.469e-04
22 1 5.662e+00 2.123e+00 3.894e+00 3.527e-03 -1.493e-02 -1.755e-02
23 1 7.433e+00 3.646e-01 3.894e+00 4.898e-05 -2.438e-02 -1.409e-02
24 1 9.207e+00 2.122e+00 3.894e+00 -3.226e-03 -1.333e-02 -1.826e-02
25 1 3.494e-01 3.896e+00 3.895e+00 -3.102e-04 -1.839e-02 -1.839e-02
26 1 3.896e+00 3.898e+00 3.895e+00 -1.334e-04 -1.862e-02 -1.716e-02
27 1 7.434e+00 3.885e+00 3.893e+00 7.796e-05 1.003e-03 -2.415e-02
28 1 2.125e+00 3.532e-01 5.662e+00 -5.008e-04 1.023e-03 -6.790e-05
29 1 3.533e-01 2.124e+00 5.662e+00 1.147e-03 -2.953e-04 -4.813e-04
30 1 5.666e+00 3.531e-01 5.662e+00 1.181e-03 8.378e-04 2.064e-03
31 1 3.896e+00 2.124e+00 5.664e+00 6.283e-04 1.091e-03 -1.431e-04
32 1 9.201e+00 3.506e-01 5.663e+00 1.699e-03 1.759e-03 5.012e-04
33 1 7.435e+00 2.123e+00 5.666e+00 -3.550e-05 -1.299e-02 -1.935e-02
34 1 2.125e+00 3.896e+00 5.664e+00 -4.901e-04 2.831e-04 -7.641e-04
35 1 5.667e+00 3.897e+00 5.664e+00 -1.116e-03 -1.939e-02 -1.689e-02
36 1 9.203e+00 3.897e+00 5.661e+00 -1.854e-04 -1.678e-02 -1.558e-02
37 1 3.545e-01 3.526e-01 7.434e+00 9.337e-04 3.194e-03 1.374e-03
38 1 2.125e+00 2.124e+00 7.436e+00 2.589e-04 1.599e-03 -1.964e-04
39 1 2.124e+00 3.538e-01 9.205e+00 7.710e-04 9.778e-04 4.186e-04
40 1 3.531e-01 2.123e+00 9.204e+00 -1.779e-03 4.679e-04 -4.685e-04
41 1 3.895e+00 3.543e-01 7.434e+00 -5.290e-04 5.765e-04 1.072e-03
42 1 5.665e+00 2.124e+00 7.434e+00 -5.551e-04 1.019e-03 -1.165e-03
43 1 5.665e+00 3.540e-01 9.202e+00 -4.993e-04 3.728e-04 7.689e-05
44 1 3.894e+00 2.124e+00 9.203e+00 -1.244e-03 -1.644e-03 -9.283e-05
45 1 7.435e+00 3.510e-01 7.430e+00 5.624e-05 5.681e-04 -5.749e-05
46 1 9.203e+00 2.124e+00 7.432e+00 2.609e-04 6.915e-04 -3.143e-04
47 1 9.203e+00 3.526e-01 9.204e+00 -2.903e-04 -6.459e-04 1.331e-03
48 1 7.435e+00 2.125e+00 9.203e+00 1.096e-04 -1.559e-02 -1.302e-02
49 1 3.532e-01 3.897e+00 7.431e+00 -2.441e-03 -1.974e-04 -1.480e-03
50 1 2.126e+00 3.893e+00 9.204e+00 -1.667e-03 -1.147e-03 1.194e-03
51 1 3.894e+00 3.895e+00 7.432e+00 -3.904e-04 -4.697e-04 -3.788e-04
52 1 5.664e+00 3.896e+00 9.205e+00 7.904e-04 -1.600e-02 -1.315e-02
53 1 7.434e+00 3.897e+00 7.431e+00 -1.331e-03 -2.065e-02 -1.459e-02
54 1 9.201e+00 3.894e+00 9.203e+00 -3.012e-03 -1.622e-02 -1.419e-02
55 1 2.125e+00 5.664e+00 3.555e-01 -2.533e-04 -1.690e-02 -2.131e-02
56 1 3.526e-01 5.666e+00 2.125e+00 1.052e-02 -1.821e-02 -1.921e-02
57 1 5.666e+00 5.666e+00 3.567e-01 6.512e-03 -1.958e-02 -1.002e-02
58 1 3.898e+00 5.666e+00 2.124e+00 -1.068e-02 -1.789e-02 -1.885e-02
59 1 9.202e+00 5.667e+00 3.574e-01 -8.155e-03 -1.677e-02 -9.836e-03
60 1 7.435e+00 5.674e+00 2.133e+00 -9.435e-04 1.735e+00 1.735e+00
61 1 3.503e-01 7.435e+00 3.559e-01 2.219e-03 -1.686e-02 -1.781e-02
62 1 2.124e+00 9.204e+00 3.524e-01 -1.075e-03 9.800e-04 1.436e-03
63 1 2.124e+00 7.434e+00 2.121e+00 -1.367e-03 -1.501e-02 -1.447e-02
64 1 3.519e-01 9.204e+00 2.126e+00 -1.080e-03 -1.862e-02 -1.696e-02
65 1 3.897e+00 7.433e+00 3.587e-01 4.896e-04 -1.834e-02 -1.757e-02
66 1 5.664e+00 9.201e+00 3.571e-01 5.932e-04 -1.878e-02 -1.976e-02
67 1 5.673e+00 7.434e+00 2.132e+00 1.460e-03 -2.642e-02 -2.703e-02
68 1 3.896e+00 9.203e+00 2.125e+00 1.201e-03 -1.888e-02 -1.842e-02
69 1 7.432e+00 7.433e+00 3.446e-01 -9.484e-06 -2.298e-02 1.707e-03
70 1 9.202e+00 9.204e+00 3.560e-01 2.686e-04 -1.855e-02 -1.792e-02
71 1 9.194e+00 7.435e+00 2.134e+00 -3.143e-04 -2.425e-02 -2.636e-02
72 1 7.434e+00 9.193e+00 2.132e+00 -2.443e-03 9.113e-04 -2.499e-02
73 1 2.123e+00 5.662e+00 3.895e+00 -1.636e-03 -1.530e-02 -1.325e-02
74 1 5.673e+00 5.674e+00 3.894e+00 2.010e-04 -2.728e-02 -2.563e-02
75 1 9.195e+00 5.672e+00 3.893e+00 -1.863e-03 -2.588e-02 -2.555e-02
76 1 3.650e-01 7.437e+00 3.894e+00 -1.133e-02 -1.927e-02 -1.770e-02
77 1 2.125e+00 9.206e+00 3.895e+00 -3.130e-04 6.558e-05 7.444e-04
78 1 3.883e+00 7.433e+00 3.895e+00 1.231e-02 -1.819e-02 -1.552e-02
79 1 5.673e+00 9.195e+00 3.894e+00 -9.509e-03 -1.012e-02 -1.802e-02
80 1 9.194e+00 9.195e+00 3.894e+00 6.960e-03 -9.026e-03 -1.796e-02
81 1 3.526e-01 5.665e+00 5.662e+00 -1.578e-03 -1.785e-02 -1.759e-02
82 1 3.897e+00 5.665e+00 5.662e+00 -2.621e-03 -1.765e-02 -1.854e-02
83 1 7.435e+00 5.671e+00 5.654e+00 1.087e-04 -2.664e-02 2.001e-03
84 1 2.125e+00 7.434e+00 5.666e+00 -1.045e-03 -1.790e-03 5.722e-04
85 1 3.519e-01 9.204e+00 5.663e+00 -1.296e-03 -1.646e-03 7.617e-04
86 1 5.672e+00 7.434e+00 5.654e+00 -6.423e-03 -1.754e-02 -1.022e-02
87 1 3.895e+00 9.202e+00 5.661e+00 6.869e-04 8.005e-04 4.105e-04
88 1 9.195e+00 7.435e+00 5.654e+00 6.501e-03 -2.080e-02 -1.034e-02
89 1 7.436e+00 9.196e+00 5.653e+00 2.400e-04 -9.373e-03 -1.090e-02
90 1 2.125e+00 5.665e+00 7.435e+00 -2.934e-04 -5.958e-04 2.199e-03
91 1 3.545e-01 5.665e+00 9.203e+00 -1.710e-03 -1.725e-02 -1.410e-02
92 1 5.666e+00 5.666e+00 7.430e+00 -4.756e-03 -1.906e-02 -1.389e-02
93 1 3.895e+00 5.665e+00 9.205e+00 1.549e-03 -1.483e-02 -1.436e-02
94 1 9.203e+00 5.665e+00 7.430e+00 4.010e-03 -1.765e-02 -1.466e-02
95 1 7.434e+00 5.663e+00 9.204e+00 8.094e-04 -1.541e-02 -2.681e-02
96 1 3.506e-01 7.435e+00 7.429e+00 1.109e-03 -1.057e-03 1.135e-03
97 1 2.125e+00 9.204e+00 7.434e+00 -6.103e-04 -5.142e-04 -2.335e-04
98 1 2.124e+00 7.434e+00 9.205e+00 -4.761e-04 9.687e-04 5.655e-04
99 1 3.534e-01 9.204e+00 9.205e+00 -1.169e-03 1.384e-03 -1.212e-04
100 1 3.898e+00 7.434e+00 7.431e+00 6.208e-04 -3.739e-04 -4.523e-04
101 1 5.665e+00 9.202e+00 7.430e+00 -1.321e-03 -5.057e-04 -8.374e-04
102 1 5.662e+00 7.434e+00 9.204e+00 3.112e-03 -1.743e-02 -1.456e-02
103 1 3.894e+00 9.204e+00 9.204e+00 1.113e-03 -9.543e-04 -1.151e-03
104 1 7.436e+00 7.435e+00 7.444e+00 6.784e-04 -1.483e-02 -2.747e-02
105 1 9.202e+00 9.201e+00 7.433e+00 -1.088e-03 2.179e-03 6.659e-04
106 1 9.207e+00 7.434e+00 9.205e+00 -4.675e-03 -1.903e-02 -1.347e-02
107 1 7.433e+00 9.206e+00 9.203e+00 6.149e-04 -1.856e-02 -1.395e-02
ITEM: TIMESTEP
0
ITEM: NUMBER OF ATOMS
107
ITEM: BOX BOUNDS xy xz yz pp pp pp
                     0.00000000000000e+00 1.06000000000000e+01 0.00000000000000e+00
0.00000000000000e+00	1.06000000000000e+01	0.00000000000000e+00
0.00000000000000e+00	1.06000000000000e+01	0.00000000000000e+00
ITEM: ATOMS id type x y z DisplacementX DisplacementY DisplacementZ
1 1 3.525e-01 3.545e-01 3.544e-01 1.491e-03 6.403e-04 -2.178e-03
2 1 2.123e+00 2.124e+00 3.517e-01 7.959e-04 -8.358e-04 1.936e-04
3 1 2.125e+00 3.525e-01 2.126e+00 -1.120e-02 -1.867e-03 -1.647e-02
4 1 3.535e-01 2.125e+00 2.124e+00 -8.479e-04 -4.124e-04 -2.607e-04
5 1 3.895e+00 3.549e-01 3.555e-01 -1.583e-02 -6.921e-04 -1.553e-02
6 1 5.664e+00 2.124e+00 3.553e-01 -1.672e-02 -7.764e-04 -1.984e-02
7 1 5.666e+00 3.514e-01 2.127e+00 -1.947e-02 1.105e-02 -2.021e-02
8 1 3.894e+00 2.125e+00 2.125e+00 -2.066e-02 -4.651e-04 -1.752e-02
9 1 7.434e+00 3.507e-01 3.560e-01 -1.870e-02 -6.277e-04 -1.897e-02
10 1 9.201e+00 2.123e+00 3.534e-01 5.230e-04 -5.984e-04 -1.242e-03
11 1 9.202e+00 3.511e-01 2.125e+00 -1.917e-02 -1.765e-03 -1.869e-02
12 1 7.433e+00 2.124e+00 2.122e+00 -1.428e-02 6.013e-04 -1.583e-02
13 1 3.514e-01 3.897e+00 3.556e-01 -4.110e-04 2.280e-04 5.565e-04
14 1 2.125e+00 3.896e+00 2.125e+00 -1.449e-02 1.644e-03 -1.634e-02
15 1 3.895e+00 3.895e+00 3.541e-01 -1.546e-02 2.599e-03 -1.641e-02
16 1 5.665e+00 3.895e+00 2.128e+00 -1.731e-02 -1.086e-02 -1.845e-02
17 1 7.433e+00 3.896e+00 3.575e-01 -1.689e-02 -2.889e-04 -1.692e-02
18 1 9.204e+00 3.897e+00 2.128e+00 -1.742e-02 8.657e-04 -1.715e-02
19 1 3.524e-01 3.521e-01 3.893e+00 -1.600e-03 -4.582e-04 3.541e-04
20 1 2.124e+00 2.123e+00 3.894e+00 1.519e-03 2.998e-04 -5.727e-04
21 1 3.898e+00 3.518e-01 3.894e+00 -1.779e-02 2.641e-03 -1.805e-02
22 1 5.662e+00 2.123e+00 3.894e+00 -1.443e-02 -1.233e-04 -1.492e-02
23 1 7.433e+00 3.646e-01 3.894e+00 -2.016e-02 -1.377e-02 -1.740e-02
24 1 9.207e+00 2.122e+00 3.894e+00 -1.779e-03 1.262e-03 -1.805e-03
25 1 3.494e-01 3.896e+00 3.895e+00 1.301e-03 5.011e-04 -5.828e-04
26 1 3.896e+00 3.898e+00 3.895e+00 -1.843e-02 -2.263e-03 -1.711e-02
27 1 7.434e+00 3.885e+00 3.893e+00 -1.847e-02 1.238e-02 -1.922e-02
28 1 2.125e+00 3.532e-01 5.662e+00 2.344e-03 1.242e-03 4.735e-05
29 1 3.533e-01 2.124e+00 5.662e+00 7.991e-04 8.207e-04 1.980e-03
30 1 5.666e+00 3.531e-01 5.662e+00 -1.801e-02 1.355e-03 -1.875e-02
31 1 3.896e+00 2.124e+00 5.664e+00 -1.883e-03 -1.235e-03 -1.078e-03
32 1 9.201e+00 3.506e-01 5.663e+00 1.226e-03 4.201e-04 7.813e-04
33 1 7.435e+00 2.123e+00 5.666e+00 1.820e-03 6.683e-04 2.641e-04
34 1 2.125e+00 3.896e+00 5.664e+00 -1.626e-04 1.318e-03 7.682e-04
35 1 5.667e+00 3.897e+00 5.664e+00 -1.867e-02 9.481e-04 -1.769e-02
36 1 9.203e+00 3.897e+00 5.661e+00 7.581e-04 -1.236e-03 -1.422e-03
37 1 3.545e-01 3.526e-01 7.434e+00 -1.454e-04 1.300e-04 -9.739e-04
38 1 2.125e+00 2.124e+00 7.436e+00 1.202e-03 2.927e-04 -1.784e-03
39 1 2.124e+00 3.538e-01 9.205e+00 2.178e-04 -4.990e-05 2.292e-04
40 1 3.531e-01 2.123e+00 9.204e+00 -9.703e-04 -2.532e-03 -1.310e-04
41 1 3.895e+00 3.543e-01 7.434e+00 1.229e-05 -3.566e-04 3.219e-04
42 1 5.665e+00 2.124e+00 7.434e+00 7.140e-04 -3.331e-04 7.296e-05
43 1 5.665e+00 3.540e-01 9.202e+00 -1.782e-02 -2.239e-03 -1.331e-02
44 1 3.894e+00 2.124e+00 9.203e+00 -1.325e-03 1.590e-04 -2.754e-04
45 1 7.435e+00 3.510e-01 7.430e+00 -1.076e-03 9.590e-05 -1.872e-03
46 1 9.203e+00 2.124e+00 7.432e+00 -3.344e-04 -5.088e-04 -2.536e-05
47 1 9.203e+00 3.526e-01 9.204e+00 1.804e-04 1.178e-04 1.313e-03
48 1 7.435e+00 2.125e+00 9.203e+00 8.146e-05 2.127e-03 9.096e-04
49 1 3.532e-01 3.897e+00 7.431e+00 -1.874e-03 4.725e-04 -8.850e-04
50 1 2.126e+00 3.893e+00 9.204e+00 2.512e-04 1.324e-03 5.592e-05
51 1 3.894e+00 3.895e+00 7.432e+00 -1.427e-03 5.056e-04 -2.943e-04
52 1 5.664e+00 3.896e+00 9.205e+00 -1.573e-02 4.634e-03 -1.260e-02
53 1 7.434e+00 3.897e+00 7.431e+00 7.271e-04 1.289e-03 8.334e-04
54 1 9.201e+00 3.894e+00 9.203e+00 -5.026e-04 -1.405e-03 -1.741e-03
55 1 2.125e+00 5.664e+00 3.555e-01 -1.386e-02 1.288e-03 -1.650e-02
56 1 3.526e-01 5.666e+00 2.125e+00 -1.418e-02 -5.192e-03 -1.832e-02
57 1 5.666e+00 5.666e+00 3.567e-01 -1.898e-02 6.821e-03 -1.120e-02
58 1 3.898e+00 5.666e+00 2.124e+00 -1.054e-02 7.482e-03 -1.790e-02
59 1 9.202e+00 5.667e+00 3.574e-01 -1.751e-02 1.469e-03 -1.745e-02
60 1 7.435e+00 5.674e+00 2.133e+00 -2.490e-02 1.382e-04 -2.648e-02
61 1 3.503e-01 7.435e+00 3.559e-01 -1.441e-02 -1.544e-03 -2.364e-02
62 1 2.124e+00 9.204e+00 3.524e-01 -1.468e-02 8.567e-07 -1.661e-02
63 1 2.124e+00 7.434e+00 2.121e+00 -2.578e-02 -7.482e-04 -1.521e-02
64 1 3.519e-01 9.204e+00 2.126e+00 -1.415e-02 2.476e-03 -1.702e-02
65 1 3.897e+00 7.433e+00 3.587e-01 -1.226e-02 1.312e-03 -1.091e-02
66 1 5.664e+00 9.201e+00 3.571e-01 -1.801e-02 -6.659e-03 -9.122e-03
67 1 5.673e+00 7.434e+00 2.132e+00 1.735e+00 1.302e-03 1.736e+00
68 1 3.896e+00 9.203e+00 2.125e+00 -1.204e-02 -7.201e-03 -1.877e-02
69 1 7.432e+00 7.433e+00 3.446e-01 -2.584e-02 2.222e-03 4.116e-04
70 1 9.202e+00 9.204e+00 3.560e-01 -1.540e-02 -1.813e-03 -1.818e-02
71 1 9.194e+00 7.435e+00 2.134e+00 2.646e-03 1.570e-03 -2.590e-02
72 1 7.434e+00 9.193e+00 2.132e+00 -2.642e-02 3.554e-04 -2.613e-02
73 1 2.123e+00 5.662e+00 3.895e+00 -1.658e-02 4.255e-03 -1.764e-02
74 1 5.673e+00 5.674e+00 3.894e+00 -2.403e-02 -1.069e-03 -2.605e-02
75 1 9.195e+00 5.672e+00 3.893e+00 -8.598e-03 -7.374e-03 -1.800e-02
76 1 3.650e-01 7.437e+00 3.894e+00 -2.610e-02 -1.519e-03 -1.414e-02
77 1 2.125e+00 9.206e+00 3.895e+00 -1.482e-02 -2.909e-03 -1.787e-02
78 1 3.883e+00 7.433e+00 3.895e+00 -5.513e-04 7.060e-04 -2.439e-02
79 1 5.673e+00 9.195e+00 3.894e+00 -2.724e-02 5.412e-04 -2.574e-02
80 1 9.194e+00 9.195e+00 3.894e+00 -8.720e-03 7.923e-03 -1.949e-02
81 1 3.526e-01 5.665e+00 5.662e+00 5.275e-04 2.821e-04 1.008e-03
82 1 3.897e+00 5.665e+00 5.662e+00 -1.783e-02 4.076e-04 -1.643e-02
83 1 7.435e+00 5.671e+00 5.654e+00 -1.909e-02 -6.212e-03 -8.791e-03
84 1 2.125e+00 7.434e+00 5.666e+00 -1.165e-02 -9.383e-04 -2.275e-02
85 1 3.519e-01 9.204e+00 5.663e+00 7.859e-04 -9.464e-05 -5.263e-04
86 1 5.672e+00 7.434e+00 5.654e+00 -2.594e-02 1.813e-03 6.438e-04
87 1 3.895e+00 9.202e+00 5.661e+00 -1.651e-02 -1.806e-04 -1.616e-02
88 1 9.195e+00 7.435e+00 5.654e+00 -1.016e-02 1.576e-04 -1.052e-02
89 1 7.436e+00 9.196e+00 5.653e+00 -1.918e-02 8.067e-03 -9.293e-03
90 1 2.125e+00 5.665e+00 7.435e+00 -2.682e-04 -4.942e-04 7.140e-04
91 1 3.545e-01 5.665e+00 9.203e+00 1.408e-04 4.326e-05 -2.868e-04
92 1 5.666e+00 5.666e+00 7.430e+00 -1.665e-02 -3.099e-03 -1.303e-02
93 1 3.895e+00 5.665e+00 9.205e+00 -1.523e-02 1.681e-03 -1.470e-02
94 1 9.203e+00 5.665e+00 7.430e+00 1.018e-03 -6.594e-04 -7.347e-05
95 1 7.434e+00 5.663e+00 9.204e+00 -1.895e-02 3.128e-03 -1.404e-02
96 1 3.506e-01 7.435e+00 7.429e+00 -1.324e-03 -5.867e-05 1.303e-03
97 1 2.125e+00 9.204e+00 7.434e+00 8.821e-04 8.723e-04 -8.637e-04
98 1 2.124e+00 7.434e+00 9.205e+00 -1.334e-02 1.183e-04 -1.400e-02
99 1 3.534e-01 9.204e+00 9.205e+00 -1.107e-04 1.514e-03 2.179e-04
100 1 3.898e+00 7.434e+00 7.431e+00 -2.019e-02 -4.373e-04 -1.418e-02
101 1 5.665e+00 9.202e+00 7.430e+00 -1.643e-02 2.816e-03 -1.128e-02
102 1 5.662e+00 7.434e+00 9.204e+00 -1.543e-02 -2.065e-04 -2.611e-02
103 1 3.894e+00 9.204e+00 9.204e+00 -1.610e-02 -4.782e-04 -1.294e-02
104 1 7.436e+00 7.435e+00 7.444e+00 -1.571e-02 8.058e-04 -2.572e-02
105 1 9.202e+00 9.201e+00 7.433e+00 5.227e-04 -4.178e-04 1.937e-03
106 1 9.207e+00 7.434e+00 9.205e+00 -1.928e-02 3.482e-03 -1.400e-02
107 1 7.433e+00 9.206e+00 9.203e+00 -1.940e-02 -3.653e-03 -1.322e-02
ITEM: TIMESTEP
0
ITEM: NUMBER OF ATOMS
107
ITEM: BOX BOUNDS xy xz yz pp pp pp
                     0.00000000000000e+00 1.06000000000000e+01 0.00000000000000e+00
0.00000000000000e+00	1.06000000000000e+01	0.00000000000000e+00
0.00000000000000e+00	1.06000000000000e+01	0.00000000000000e+00
ITEM: ATOMS id type x y z DisplacementX DisplacementY DisplacementZ
1 1 3.525e-01 3.545e-01 3.544e-01 1.574e-02 -6.988e-04 -1.632e-02
2 1 2.123e+00 2.124e+00 3.517e-01 8.813e-04 -8.197e-05 1.190e-03
3 1 2.125e+00 3.525e-01 2.126e+00 1.346e-02 -1.921e-03 -1.677e-02
4 1 3.535e-01 2.125e+00 2.124e+00 1.908e-02 -1.102e-03 -1.584e-02
5 1 3.895e+00 3.549e-01 3.555e-01 2.603e-04 2.344e-04 -4.175e-04
6 1 5.664e+00 2.124e+00 3.553e-01 9.056e-04 -7.326e-04 1.090e-03
7 1 5.666e+00 3.514e-01 2.127e+00 1.655e-02 -5.473e-04 -1.674e-02
8 1 3.894e+00 2.125e+00 2.125e+00 1.567e-04 -7.899e-04 -4.792e-04
9 1 7.434e+00 3.507e-01 3.560e-01 1.848e-02 2.851e-03 -1.869e-02
10 1 9.201e+00 2.123e+00 3.534e-01 1.777e-02 -1.250e-04 -1.901e-02
11 1 9.202e+00 3.511e-01 2.125e+00 1.835e-02 1.134e-02 -1.916e-02
12 1 7.433e+00 2.124e+00 2.122e+00 1.440e-02 -1.058e-03 -1.598e-02
13 1 3.514e-01 3.897e+00 3.556e-01 1.535e-02 8.443e-04 -1.671e-02
14 1 2.125e+00 3.896e+00 2.125e+00 1.029e-02 3.088e-03 -1.740e-02
15 1 3.895e+00 3.895e+00 3.541e-01 7.789e-04 1.864e-04 -1.580e-03
16 1 5.665e+00 3.895e+00 2.128e+00 1.922e-02 5.968e-04 -1.870e-02
17 1 7.433e+00 3.896e+00 3.575e-01 2.032e-02 -1.412e-04 -1.855e-02
18 1 9.204e+00 3.897e+00 2.128e+00 1.949e-02 -1.300e-02 -1.738e-02
19 1 3.524e-01 3.521e-01 3.893e+00 1.880e-02 1.164e-03 -1.827e-02
20 1 2.124e+00 2.123e+00 3.894e+00 -9.753e-04 -3.532e-04 -1.316e-03
21 1 3.898e+00 3.518e-01 3.894e+00 3.071e-04 -4.688e-04 -3.144e-04
22 1 5.662e+00 2.123e+00 3.894e+00 -3.303e-04 1.646e-03 1.390e-03
23 1 7.433e+00 3.646e-01 3.894e+00 1.839e-02 -1.338e-02 -1.921e-02
24 1 9.207e+00 2.122e+00 3.894e+00 1.619e-02 -5.806e-05 -1.661e-02
25 1 3.494e-01 3.896e+00 3.895e+00 1.875e-02 8.436e-05 -1.915e-02
26 1 3.896e+00 3.898e+00 3.895e+00 -6.816e-04 -5.042e-04 8.581e-04
27 1 7.434e+00 3.885e+00 3.893e+00 1.939e-02 1.011e-02 -1.839e-02
28 1 2.125e+00 3.532e-01 5.662e+00 4.524e-04 -6.480e-04 4.161e-05
29 1 3.533e-01 2.124e+00 5.662e+00 2.782e-04 9.883e-04 -4.736e-04
30 1 5.666e+00 3.531e-01 5.662e+00 -1.575e-03 9.835e-04 -1.203e-03
31 1 3.896e+00 2.124e+00 5.664e+00 5.052e-04 3.876e-04 2.115e-03
32 1 9.201e+00 3.506e-01 5.663e+00 1.919e-02 -1.711e-03 -1.603e-02
33 1 7.435e+00 2.123e+00 5.666e+00 1.282e-03 -3.609e-04 8.880e-04
34 1 2.125e+00 3.896e+00 5.664e+00 6.900e-04 -1.353e-03 3.635e-04
35 1 5.667e+00 3.897e+00 5.664e+00 -4.524e-04 -8.472e-04 4.835e-04
36 1 9.203e+00 3.897e+00 5.661e+00 1.799e-02 6.462e-04 -1.819e-02
37 1 3.545e-01 3.526e-01 7.434e+00 -5.080e-04 -1.784e-04 7.235e-04
38 1 2.125e+00 2.124e+00 7.436e+00 -1.236e-04 -1.538e-03 -1.014e-03
39 1 2.124e+00 3.538e-01 9.205e+00 -3.580e-04 7.242e-04 -1.190e-03
40 1 3.531e-01 2.123e+00 9.204e+00 -5.248e-04 -1.709e-03 -6.341e-04
41 1 3.895e+00 3.543e-01 7.434e+00 -1.442e-03 -6.445e-04 1.061e-03
42 1 5.665e+00 2.124e+00 7.434e+00 1.434e-03 -5.532e-04 -9.446e-04
43 1 5.665e+00 3.540e-01 9.202e+00 1.789e-03 2.078e-04 -1.943e-04
44 1 3.894e+00 2.124e+00 9.203e+00 9.187e-04 -5.769e-04 1.353e-03
45 1 7.435e+00 3.510e-01 7.430e+00 1.411e-03 -1.737e-03 -1.204e-03
46 1 9.203e+00 2.124e+00 7.432e+00 7.578e-04 9.798e-04 5.009e-06
47 1 9.203e+00 3.526e-01 9.204e+00 1.758e-02 -4.039e-03 -1.299e-02
48 1 7.435e+00 2.125e+00 9.203e+00 -4.395e-04 -6.778e-04 -1.788e-03
49 1 3.532e-01 3.897e+00 7.431e+00 5.909e-04 -3.287e-04 1.060e-03
50 1 2.126e+00 3.893e+00 9.204e+00 5.120e-04 -2.561e-03 1.393e-04
51 1 3.894e+00 3.895e+00 7.432e+00 1.932e-03 -2.189e-04 1.081e-04
52 1 5.664e+00 3.896e+00 9.205e+00 -5.367e-04 -9.089e-04 5.240e-04
53 1 7.434e+00 3.897e+00 7.431e+00 -4.284e-04 -3.385e-04 -1.585e-03
54 1 9.201e+00 3.894e+00 9.203e+00 1.633e-02 4.965e-03 -1.466e-02
55 1 2.125e+00 5.664e+00 3.555e-01 1.339e-02 1.576e-03 -1.504e-02
56 1 3.526e-01 5.666e+00 2.125e+00 1.075e-02 8.004e-03 -1.689e-02
57 1 5.666e+00 5.666e+00 3.567e-01 1.888e-02 1.404e-03 -1.557e-02
58 1 3.898e+00 5.666e+00 2.124e+00 1.529e-02 -4.330e-03 -1.953e-02
59 1 9.202e+00 5.667e+00 3.574e-01 1.731e-02 7.915e-03 -9.205e-03
60 1 7.435e+00 5.674e+00 2.133e+00 2.698e-02 1.593e-03 -2.570e-02
61 1 3.503e-01 7.435e+00 3.559e-01 9.565e-03 3.310e-04 -1.084e-02
62 1 2.124e+00 9.204e+00 3.524e-01 1.306e-02 -1.180e-03 -1.431e-02
63 1 2.124e+00 7.434e+00 2.121e+00 2.431e-02 -1.150e-03 -1.566e-02
64 1 3.519e-01 9.204e+00 2.126e+00 1.072e-02 -8.520e-03 -1.783e-02
65 1 3.897e+00 7.433e+00 3.587e-01 1.432e-02 -1.143e-04 -2.325e-02
66 1 5.664e+00 9.201e+00 3.571e-01 1.755e-02 -1.081e-03 -1.639e-02
67 1 5.673e+00 7.434e+00 2.132e+00 -2.649e-03 -8.186e-04 -2.545e-02
68 1 3.896e+00 9.203e+00 2.125e+00 1.199e-02 4.934e-03 -1.765e-02
69 1 7.432e+00 7.433e+00 3.446e-01 2.591e-02 1.082e-03 6.056e-04
70 1 9.202e+00 9.204e+00 3.560e-01 1.878e-02 -7.157e-03 -1.086e-02
71 1 9.194e+00 7.435e+00 2.134e+00 -1.735e+00 -6.264e-05 1.734e+00
72 1 7.434e+00 9.193e+00 2.132e+00 2.420e-02 2.388e-04 -2.471e-02
73 1 2.123e+00 5.662e+00 3.895e+00 1.433e-02 4.787e-03 -1.841e-02
74 1 5.673e+00 5.674e+00 3.894e+00 8.838e-03 -8.294e-03 -1.919e-02
75 1 9.195e+00 5.672e+00 3.893e+00 2.586e-02 2.398e-03 -2.557e-02
76 1 3.650e-01 7.437e+00 3.894e+00 -3.560e-04 -7.521e-04 -2.497e-02
77 1 2.125e+00 9.206e+00 3.895e+00 1.266e-02 -3.225e-03 -1.801e-02
78 1 3.883e+00 7.433e+00 3.895e+00 2.617e-02 -6.526e-04 -1.505e-02
79 1 5.673e+00 9.195e+00 3.894e+00 9.510e-03 8.499e-03 -1.796e-02
80 1 9.194e+00 9.195e+00 3.894e+00 2.540e-02 1.252e-03 -2.330e-02
81 1 3.526e-01 5.665e+00 5.662e+00 1.708e-02 1.188e-04 -1.686e-02
82 1 3.897e+00 5.665e+00 5.662e+00 -2.476e-03 3.916e-05 -1.794e-03
83 1 7.435e+00 5.671e+00 5.654e+00 1.692e-02 -7.165e-03 -1.011e-02
84 1 2.125e+00 7.434e+00 5.666e+00 1.415e-02 -1.833e-03 -2.050e-02
85 1 3.519e-01 9.204e+00 5.663e+00 1.728e-02 1.335e-04 -1.800e-02
86 1 5.672e+00 7.434e+00 5.654e+00 1.015e-02 -2.139e-03 -1.132e-02
87 1 3.895e+00 9.202e+00 5.661e+00 4.778e-04 -7.909e-04 1.252e-03
88 1 9.195e+00 7.435e+00 5.654e+00 2.481e-02 2.090e-04 2.870e-03
89 1 7.436e+00 9.196e+00 5.653e+00 1.767e-02 8.094e-03 -8.566e-03
90 1 2.125e+00 5.665e+00 7.435e+00 -1.569e-03 -1.012e-04 5.599e-04
91 1 3.545e-01 5.665e+00 9.203e+00 1.686e-02 1.480e-03 -1.430e-02
92 1 5.666e+00 5.666e+00 7.430e+00 9.684e-04 5.115e-04 1.588e-03
93 1 3.895e+00 5.665e+00 9.205e+00 2.475e-04 1.077e-03 -2.421e-04
94 1 9.203e+00 5.665e+00 7.430e+00 1.825e-02 -2.543e-03 -1.431e-02
95 1 7.434e+00 5.663e+00 9.204e+00 1.727e-02 5.313e-03 -1.307e-02
96 1 3.506e-01 7.435e+00 7.429e+00 2.201e-02 2.663e-04 -1.240e-02
97 1 2.125e+00 9.204e+00 7.434e+00 3.486e-04 -1.801e-03 -9.239e-04
98 1 2.124e+00 7.434e+00 9.205e+00 1.355e-02 -3.558e-05 -1.255e-02
99 1 3.534e-01 9.204e+00 9.205e+00 1.699e-02 -1.605e-03 -1.540e-02
100 1 3.898e+00 7.434e+00 7.431e+00 3.431e-04 1.080e-03 -3.486e-04
101 1 5.665e+00 9.202e+00 7.430e+00 1.809e-03 -6.564e-07 7.350e-05
102 1 5.662e+00 7.434e+00 9.204e+00 2.159e-02 2.177e-03 -1.184e-02
103 1 3.894e+00 9.204e+00 9.204e+00 -5.008e-04 1.024e-03 -1.546e-03
104 1 7.436e+00 7.435e+00 7.444e+00 1.633e-02 1.154e-03 -2.531e-02
105 1 9.202e+00 9.201e+00 7.433e+00 1.959e-02 3.745e-03 -1.460e-02
106 1 9.207e+00 7.434e+00 9.205e+00 1.495e-02 2.646e-03 -2.690e-02
107 1 7.433e+00 9.206e+00 9.203e+00 1.853e-02 -3.543e-03 -1.308e-02
ITEM: TIMESTEP
0
ITEM: NUMBER OF ATOMS
107
ITEM: BOX BOUNDS xy xz yz pp pp pp
                     0.00000000000000e+00 1.06000000000000e+01 0.00000000000000e+00
0.00000000000000e+00	1.06000000000000e+01	0.00000000000000e+00
0.00000000000000e+00	1.06000000000000e+01	0.00000000000000e+00
ITEM: ATOMS id type x y z DisplacementX DisplacementY DisplacementZ
1 1 3.525e-01 3.545e-01 3.544e-01 -1.759e-03 1.482e-02 -1.405e-02
2 1 2.123e+00 2.124e+00 3.517e-01 6.857e-04 -7.417e-04 2.241e-04
3 1 2.125e+00 3.525e-01 2.126e+00 -1.394e-03 1.819e-02 -1.630e-02
4 1 3.535e-01 2.125e+00 2.124e+00 -4.964e-03 1.273e-02 -1.678e-02
5 1 3.895e+00 3.549e-01 3.555e-01 -7.510e-05 1.733e-02 -1.657e-02
6 1 5.664e+00 2.124e+00 3.553e-01 8.893e-04 1.435e-02 -1.645e-02
7 1 5.666e+00 3.514e-01 2.127e+00 7.147e-03 9.776e-03 -1.908e-02
8 1 3.894e+00 2.125e+00 2.125e+00 2.322e-03 1.334e-02 -1.550e-02
9 1 7.434e+00 3.507e-01 3.560e-01 -3.791e-04 1.046e-02 -1.008e-02
10 1 9.201e+00 2.123e+00 3.534e-01 -1.521e-03 1.234e-02 -1.511e-02
11 1 9.202e+00 3.511e-01 2.125e+00 -7.339e-03 9.565e-03 -1.825e-02
12 1 7.433e+00 2.124e+00 2.122e+00 3.503e-04 2.760e-02 -1.334e-02
13 1 3.514e-01 3.897e+00 3.556e-01 2.183e-04 -6.410e-04 -9.961e-04
14 1 2.125e+00 3.896e+00 2.125e+00 -6.003e-04 6.147e-04 -1.879e-04
15 1 3.895e+00 3.895e+00 3.541e-01 -2.645e-04 -9.121e-04 1.169e-03
16 1 5.665e+00 3.895e+00 2.128e+00 -5.085e-03 1.247e-02 -1.954e-02
17 1 7.433e+00 3.896e+00 3.575e-01 6.420e-04 1.319e-02 -2.075e-02
18 1 9.204e+00 3.897e+00 2.128e+00 4.374e-03 1.409e-02 -1.945e-02
19 1 3.524e-01 3.521e-01 3.893e+00 1.742e-03 1.797e-02 -1.832e-02
20 1 2.124e+00 2.123e+00 3.894e+00 5.921e-04 -1.053e-03 -6.893e-04
21 1 3.898e+00 3.518e-01 3.894e+00 -3.873e-04 1.923e-02 -1.801e-02
22 1 5.662e+00 2.123e+00 3.894e+00 4.147e-03 1.321e-02 -1.856e-02
23 1 7.433e+00 3.646e-01 3.894e+00 -1.000e-03 7.916e-04 -2.503e-02
24 1 9.207e+00 2.122e+00 3.894e+00 -3.862e-03 1.267e-02 -1.833e-02
25 1 3.494e-01 3.896e+00 3.895e+00 -1.589e-03 3.201e-04 -1.750e-03
26 1 3.896e+00 3.898e+00 3.895e+00 -6.709e-05 6.333e-04 5.081e-04
27 1 7.434e+00 3.885e+00 3.893e+00 -6.668e-04 2.514e-02 -1.575e-02
28 1 2.125e+00 3.532e-01 5.662e+00 1.219e-04 -1.298e-03 -8.602e-04
29 1 3.533e-01 2.124e+00 5.662e+00 -1.314e-03 5.571e-04 5.327e-05
30 1 5.666e+00 3.531e-01 5.662e+00 -1.563e-04 1.791e-02 -1.702e-02
31 1 3.896e+00 2.124e+00 5.664e+00 -6.625e-04 4.658e-04 8.654e-04
32 1 9.201e+00 3.506e-01 5.663e+00 -4.948e-04 1.779e-02 -1.837e-02
33 1 7.435e+00 2.123e+00 5.666e+00 -1.268e-03 1.379e-02 -2.191e-02
34 1 2.125e+00 3.896e+00 5.664e+00 -8.330e-04 -6.715e-04 -2.099e-03
35 1 5.667e+00 3.897e+00 5.664e+00 8.639e-04 5.144e-05 1.070e-04
36 1 9.203e+00 3.897e+00 5.661e+00 1.160e-03 -8.477e-04 6.904e-04
37 1 3.545e-01 3.526e-01 7.434e+00 -4.886e-04 3.191e-04 9.807e-04
38 1 2.125e+00 2.124e+00 7.436e+00 -3.994e-04 9.859e-05 1.204e-03
39 1 2.124e+00 3.538e-01 9.205e+00 1.089e-04 -1.099e-03 2.633e-03
40 1 3.531e-01 2.123e+00 9.204e+00 -3.030e-04 1.197e-04 -1.326e-03
41 1 3.895e+00 3.543e-01 7.434e+00 5.530e-04 -4.717e-04 -7.967e-04
42 1 5.665e+00 2.124e+00 7.434e+00 1.326e-04 -8.202e-04 4.938e-04
43 1 5.665e+00 3.540e-01 9.202e+00 1.125e-03 1.616e-02 -1.481e-02
44 1 3.894e+00 2.124e+00 9.203e+00 -1.558e-03 -8.292e-04 3.081e-05
45 1 7.435e+00 3.510e-01 7.430e+00 5.503e-04 2.291e-02 -1.192e-02
46 1 9.203e+00 2.124e+00 7.432e+00 3.992e-04 -1.124e-03 1.229e-03
47 1 9.203e+00 3.526e-01 9.204e+00 -1.896e-03 1.504e-02 -1.267e-02
48 1 7.435e+00 2.125e+00 9.203e+00 1.166e-03 1.436e-02 -1.355e-02
49 1 3.532e-01 3.897e+00 7.431e+00 -2.408e-05 -1.135e-03 1.203e-04
50 1 2.126e+00 3.893e+00 9.204e+00 1.310e-04 9.795e-04 2.265e-04
51 1 3.894e+00 3.895e+00 7.432e+00 6.073e-04 5.543e-04 8.983e-04
52 1 5.664e+00 3.896e+00 9.205e+00 6.766e-04 8.869e-06 -6.132e-04
53 1 7.434e+00 3.897e+00 7.431e+00 -4.866e-04 -4.740e-05 -2.386e-04
54 1 9.201e+00 3.894e+00 9.203e+00 -6.031e-05 1.133e-04 -9.236e-05
55 1 2.125e+00 5.664e+00 3.555e-01 -8.416e-05 2.236e-04 -1.165e-03
56 1 3.526e-01 5.666e+00 2.125e+00 9.586e-05 1.780e-02 -1.763e-02
57 1 5.666e+00 5.666e+00 3.567e-01 1.336e-03 1.655e-02 -1.887e-02
58 1 3.898e+00 5.666e+00 2.124e+00 8.230e-04 1.851e-02 -1.756e-02
59 1 9.202e+00 5.667e+00 3.574e-01 -1.738e-03 1.822e-02 -1.616e-02
60 1 7.435e+00 5.674e+00 2.133e+00 -1.146e-03 -3.034e-03 -2.700e-02
61 1 3.503e-01 7.435e+00 3.559e-01 8.983e-06 1.716e-02 -1.936e-02
62 1 2.124e+00 9.204e+00 3.524e-01 -7.650e-04 1.552e-02 -1.807e-02
63 1 2.124e+00 7.434e+00 2.121e+00 1.633e-05 1.357e-02 -1.611e-02
64 1 3.519e-01 9.204e+00 2.126e+00 1.205e-02 1.647e-02 -1.856e-02
65 1 3.897e+00 7.433e+00 3.587e-01 -2.247e-04 1.884e-02 -1.789e-02
66 1 5.664e+00 9.201e+00 3.571e-01 8.750e-03 1.799e-02 -8.591e-03
67 1 5.673e+00 7.434e+00 2.132e+00 7.940e-04 2.775e-02 -2.551e-02
68 1 3.896e+00 9.203e+00 2.125e+00 -1.048e-02 1.706e-02 -1.729e-02
69 1 7.432e+00 7.433e+00 3.446e-01 -8.931e-04 2.469e-02 1.268e-03
70 1 9.202e+00 9.204e+00 3.560e-01 -7.148e-03 1.782e-02 -9.721e-03
71 1 9.194e+00 7.435e+00 2.134e+00 -1.450e-04 2.529e-02 -2.619e-02
72 1 7.434e+00 9.193e+00 2.132e+00 1.194e-03 -1.736e+00 1.735e+00
73 1 2.123e+00 5.662e+00 3.895e+00 3.316e-04 -2.825e-03 9.732e-05
74 1 5.673e+00 5.674e+00 3.894e+00 -7.897e-03 8.072e-03 -1.821e-02
75 1 9.195e+00 5.672e+00 3.893e+00 7.312e-03 1.048e-02 -2.006e-02
76 1 3.650e-01 7.437e+00 3.894e+00 -1.162e-02 1.756e-02 -1.820e-02
77 1 2.125e+00 9.206e+00 3.895e+00 2.833e-04 1.398e-02 -1.339e-02
78 1 3.883e+00 7.433e+00 3.895e+00 1.021e-02 1.817e-02 -1.826e-02
79 1 5.673e+00 9.195e+00 3.894e+00 -9.551e-04 2.532e-02 -2.569e-02
80 1 9.194e+00 9.195e+00 3.894e+00 1.134e-03 2.730e-02 -2.581e-02
81 1 3.526e-01 5.665e+00 5.662e+00 -2.255e-03 2.088e-04 -6.322e-04
82 1 3.897e+00 5.665e+00 5.662e+00 -4.467e-04 -1.739e-04 1.447e-03
83 1 7.435e+00 5.671e+00 5.654e+00 -1.501e-03 9.607e-03 -1.125e-02
84 1 2.125e+00 7.434e+00 5.666e+00 -7.528e-04 -2.914e-04 -8.267e-04
85 1 3.519e-01 9.204e+00 5.663e+00 -2.066e-03 1.636e-02 -1.821e-02
86 1 5.672e+00 7.434e+00 5.654e+00 -9.089e-03 1.739e-02 -8.368e-03
87 1 3.895e+00 9.202e+00 5.661e+00 5.883e-04 1.972e-02 -2.078e-02
88 1 9.195e+00 7.435e+00 5.654e+00 7.859e-03 1.867e-02 -1.072e-02
89 1 7.436e+00 9.196e+00 5.653e+00 1.071e-04 2.620e-02 2.095e-03
90 1 2.125e+00 5.665e+00 7.435e+00 -8.368e-04 -6.662e-04 -2.329e-04
91 1 3.545e-01 5.665e+00 9.203e+00 -1.422e-03 -4.585e-04 4.904e-04
92 1 5.666e+00 5.666e+00 7.430e+00 -2.295e-03 5.769e-04 -1.843e-03
93 1 3.895e+00 5.665e+00 9.205e+00 3.117e-04 9.575e-06 6.519e-04
94 1 9.203e+00 5.665e+00 7.430e+00 -2.008e-04 -1.433e-03 -1.081e-03
95 1 7.434e+00 5.663e+00 9.204e+00 5.747e-05 2.151e-02 -1.432e-02
96 1 3.506e-01 7.435e+00 7.429e+00 4.696e-05 -7.477e-04 -3.151e-04
97 1 2.125e+00 9.204e+00 7.434e+00 9.227e-05 -5.723e-04 1.266e-03
98 1 2.124e+00 7.434e+00 9.205e+00 9.254e-04 1.124e-03 2.416e-04
99 1 3.534e-01 9.204e+00 9.205e+00 -3.434e-03 1.632e-02 -1.346e-02
100 1 3.898e+00 7.434e+00 7.431e+00 7.368e-04 -2.401e-04 1.074e-04
101 1 5.665e+00 9.202e+00 7.430e+00 -3.006e-03 1.825e-02 -1.424e-02
102 1 5.662e+00 7.434e+00 9.204e+00 5.664e-03 1.855e-02 -1.626e-02
103 1 3.894e+00 9.204e+00 9.204e+00 2.865e-03 1.566e-02 -1.397e-02
104 1 7.436e+00 7.435e+00 7.444e+00 -7.069e-04 1.502e-02 -2.656e-02
105 1 9.202e+00 9.201e+00 7.433e+00 2.893e-03 1.742e-02 -1.307e-02
106 1 9.207e+00 7.434e+00 9.205e+00 -4.298e-03 1.805e-02 -1.378e-02