ITEM: TIMESTEP
0
ITEM: NUMBER OF ATOMS
24
ITEM: BOX BOUNDS xy xz yz pp pp pp
                     -5.00000000000000e-01 5.00000000000000e-01 0.00000000000000e+00
-5.00000000000000e-01	5.00000000000000e-01	0.00000000000000e+00
-5.00000000000000e-01	5.00000000000000e-01	0.00000000000000e+00
ITEM: ATOMS id type x y DisplacementX DisplacementY
1 1 0.000e+00 0.000e+00 4.964e-02 -1.920e-03
2 1 0.000e+00 2.000e-01 -9.981e-04 -6.129e-02
3 1 0.000e+00 4.000e-01 -1.342e-01 1.853e-03
4 1 0.000e+00 6.000e-01 -9.981e-04 -6.129e-02
5 1 0.000e+00 8.000e-01 4.964e-02 -1.920e-03
6 1 2.000e-01 0.000e+00 1.945e-02 4.144e-02
7 1 2.000e-01 4.000e-01 -7.190e-01 -1.768e-01
8 1 2.000e-01 6.000e-01 5.388e-02 -2.183e-02
9 1 2.000e-01 8.000e-01 -3.610e-02 7.492e-03
10 1 4.000e-01 0.000e+00 7.606e-02 1.427e-01
11 1 4.000e-01 2.000e-01 5.388e-02 -2.183e-02
12 1 4.000e-01 4.000e-01 -1.621e-01 1.717e-01
13 1 4.000e-01 6.000e-01 -1.085e-01 -6.816e-02
14 1 4.000e-01 8.000e-01 -3.610e-02 7.492e-03
15 1 6.000e-01 0.000e+00 4.864e-02 -4.822e-02
16 1 6.000e-01 2.000e-01 4.964e-02 -1.920e-03
17 1 6.000e-01 4.000e-01 -4.163e-02 -1.411e-02
18 1 6.000e-01 6.000e-01 1.945e-02 4.144e-02
19 1 6.000e-01 8.000e-01 -3.610e-02 7.492e-03
20 1 8.000e-01 0.000e+00 -3.202e-02 -2.785e-02
21 1 8.000e-01 2.000e-01 -1.085e-01 -6.816e-02
22 1 8.000e-01 4.000e-01 1.412e-02 1.588e-01
23 1 8.000e-01 6.000e-01 4.964e-02 -1.920e-03
24 1 8.000e-01 8.000e-01 -3.610e-02 7.492e-03
ITEM: TIMESTEP
0
ITEM: NUMBER OF ATOMS
24
ITEM: BOX BOUNDS xy xz yz pp pp pp
                     -5.00000000000000e-01 5.00000000000000e-01 0.00000000000000e+00
-5.00000000000000e-01	5.00000000000000e-01	0.00000000000000e+00
-5.00000000000000e-01	5.00000000000000e-01	0.00000000000000e+00
ITEM: ATOMS id type x y DisplacementX DisplacementY
1 1 0.000e+00 0.000e+00 3.267e-03 -6.748e-03
2 1 0.000e+00 2.000e-01 1.105e-02 6.585e-02
3 1 0.000e+00 4.000e-01 -7.922e-02 -1.512e-01
4 1 0.000e+00 6.000e-01 1.105e-02 6.585e-02
5 1 0.000e+00 8.000e-01 3.267e-03 -6.748e-03
6 1 2.000e-01 0.000e+00 1.003e-01 2.202e-02
7 1 2.000e-01 4.000e-01 -2.854e-02 1.380e-01
8 1 2.000e-01 6.000e-01 -3.307e-03 -3.931e-01
9 1 2.000e-01 8.000e-01 -5.009e-03 2.547e-03
10 1 4.000e-01 0.000e+00 1.032e-02 -8.460e-02
11 1 4.000e-01 2.000e-01 -3.307e-03 -3.931e-01
12 1 4.000e-01 4.000e-01 1.103e-01 -3.214e-01
13 1 4.000e-01 6.000e-01 -5.193e-02 2.260e-01
14 1 4.000e-01 8.000e-01 -5.009e-03 2.547e-03
15 1 6.000e-01 0.000e+00 -1.513e-01 6.896e-02
16 1 6.000e-01 2.000e-01 3.267e-03 -6.748e-03
17 1 6.000e-01 4.000e-01 -8.947e-02 -7.734e-02
18 1 6.000e-01 6.000e-01 1.003e-01 2.202e-02
19 1 6.000e-01 8.000e-01 -5.009e-03 2.547e-03
20 1 8.000e-01 0.000e+00 3.721e-02 -1.144e-01
21 1 8.000e-01 2.000e-01 -5.193e-02 2.260e-01
22 1 8.000e-01 4.000e-01 8.413e-02 -2.285e-01
23 1 8.000e-01 6.000e-01 3.267e-03 -6.748e-03
24 1 8.000e-01 8.000e-01 -5.009e-03 2.547e-03
ITEM: TIMESTEP
0
ITEM: NUMBER OF ATOMS
24
ITEM: BOX BOUNDS xy xz yz pp pp pp
                     -5.00000000000000e-01 5.00000000000000e-01 0.00000000000000e+00
-5.00000000000000e-01	5.00000000000000e-01	0.00000000000000e+00
-5.00000000000000e-01	5.00000000000000e-01	0.00000000000000e+00
ITEM: ATOMS id type x y DisplacementX DisplacementY
1 1 0.000e+00 0.000e+00 -4.416e-02 -5.959e-02
2 1 0.000e+00 2.000e-01 2.424e-02 3.172e-02
3 1 0.000e+00 4.000e-01 2.723e-01 2.108e-01
4 1 0.000e+00 6.000e-01 2.424e-02 3.172e-02
5 1 0.000e+00 8.000e-01 -4.416e-02 -5.959e-02
6 1 2.000e-01 0.000e+00 4.321e-01 -1.238e-01
7 1 2.000e-01 4.000e-01 -5.888e-02 -9.455e-02
8 1 2.000e-01 6.000e-01 -1.033e-01 -8.787e-02
9 1 2.000e-01 8.000e-01 2.747e-02 3.847e-02
10 1 4.000e-01 0.000e+00 -1.040e-01 -1.112e-01
11 1 4.000e-01 2.000e-01 -1.033e-01 -8.787e-02
12 1 4.000e-01 4.000e-01 4.421e-02 1.361e-01
13 1 4.000e-01 6.000e-01 -1.121e-02 1.965e-01
14 1 4.000e-01 8.000e-01 2.747e-02 3.847e-02
15 1 6.000e-01 0.000e+00 2.534e-01 1.723e-01
16 1 6.000e-01 2.000e-01 -4.416e-02 -5.959e-02
17 1 6.000e-01 4.000e-01 1.059e-01 5.243e-04
18 1 6.000e-01 6.000e-01 4.321e-01 -1.238e-01
19 1 6.000e-01 8.000e-01 2.747e-02 3.847e-02
20 1 8.000e-01 0.000e+00 -1.201e-02 -8.480e-02
21 1 8.000e-01 2.000e-01 -1.121e-02 1.965e-01
22 1 8.000e-01 4.000e-01 -1.574e-01 -1.875e-01
23 1 8.000e-01 6.000e-01 -4.416e-02 -5.959e-02
24 1 8.000e-01 8.000e-01 2.747e-02 3.847e-02
ITEM: TIMESTEP
0
ITEM: NUMBER OF ATOMS
24
ITEM: BOX BOUNDS xy xz yz pp pp pp
                     -5.00000000000000e-01 5.00000000000000e-01 0.00000000000000e+00
-5.00000000000000e-01	5.00000000000000e-01	0.00000000000000e+00
-5.00000000000000e-01	5.00000000000000e-01	0.00000000000000e+00
ITEM: ATOMS id type x y DisplacementX DisplacementY
1 1 0.000e+00 0.000e+00 -2.267e-02 1.230e-02
2 1 0.000e+00 2.000e-01 8.915e-02 4.771e-01
3 1 0.000e+00 4.000e-01 -5.061e-02 3.958e-02
4 1 0.000e+00 6.000e-01 8.915e-02 4.771e-01
5 1 0.000e+00 8.000e-01 -2.267e-02 1.230e-02
6 1 2.000e-01 0.000e+00 1.054e-01 6.127e-02
7 1 2.000e-01 4.000e-01 1.005e-01 -1.336e-02
8 1 2.000e-01 6.000e-01 -1.206e-02 -2.137e-03
9 1 2.000e-01 8.000e-01 -2.708e-02 1.167e-02
10 1 4.000e-01 0.000e+00 -5.048e-04 -7.612e-02
11 1 4.000e-01 2.000e-01 -1.206e-02 -2.137e-03
12 1 4.000e-01 4.000e-01 -2.340e-01 8.673e-02
13 1 4.000e-01 6.000e-01 6.946e-03 -6.724e-02
14 1 4.000e-01 8.000e-01 -2.708e-02 1.167e-02
15 1 6.000e-01 0.000e+00 -7.591e-02 -1.007e-01
16 1 6.000e-01 2.000e-01 -2.267e-02 1.230e-02
17 1 6.000e-01 4.000e-01 -7.062e-02 7.211e-02
18 1 6.000e-01 6.000e-01 1.054e-01 6.127e-02
19 1 6.000e-01 8.000e-01 -2.708e-02 1.167e-02
20 1 8.000e-01 0.000e+00 6.950e-02 -1.064e-02
21 1 8.000e-01 2.000e-01 6.946e-03 -6.724e-02
22 1 8.000e-01 4.000e-01 9.071e-02 -6.503e-02
23 1 8.000e-01 6.000e-01 -2.267e-02 1.230e-02
24 1 8.000e-01 8.000e-01 -2.708e-02 1.167e-02
