ITEM: TIMESTEP
0
ITEM: NUMBER OF ATOMS
6
ITEM: BOX BOUNDS xy xz yz pp pp pp
                     -5.00000000000000e-01 5.00000000000000e-01 0.00000000000000e+00
-5.00000000000000e-01	5.00000000000000e-01	0.00000000000000e+00
-5.00000000000000e-01	5.00000000000000e-01	0.00000000000000e+00
ITEM: ATOMS id type x y z DisplacementX DisplacementY DisplacementZ
1 1 -2.000e-01 0.000e+00 0.000e+00 -6.483e-03 -2.957e-03 1.076e-02
2 1 0.000e+00 0.000e+00 0.000e+00 -1.297e-02 1.988e-02 -2.057e-01
3 1 2.000e-01 0.000e+00 0.000e+00 3.011e-03 1.472e-03 1.181e-02
4 1 0.000e+00 2.000e-01 0.000e+00 -1.351e-02 -1.045e-02 3.858e-03
5 1 0.000e+00 0.000e+00 2.000e-01 8.657e-03 2.737e-03 1.018e-02
6 1 0.000e+00 -2.000e-01 0.000e+00 1.612e-02 1.395e-02 6.351e-03
ITEM: TIMESTEP
0
ITEM: NUMBER OF ATOMS
6
ITEM: BOX BOUNDS xy xz yz pp pp pp
                     -5.00000000000000e-01 5.00000000000000e-01 0.00000000000000e+00
-5.00000000000000e-01	5.00000000000000e-01	0.00000000000000e+00
-5.00000000000000e-01	5.00000000000000e-01	0.00000000000000e+00
ITEM: ATOMS id type x y z DisplacementX DisplacementY DisplacementZ
7 1 2.000e-01 0.000e+00 0.000e+00 2.399e-03 -1.015e-03 1.369e-02
8 1 0.000e+00 -2.000e-01 0.000e+00 1.820e-02 -5.566e-03 8.156e-03
9 1 0.000e+00 2.000e-01 0.000e+00 4.300e-03 -1.603e-03 -8.515e-03
10 1 0.000e+00 0.000e+00 0.000e+00 -2.051e-01 1.129e-02 -5.769e-03
11 1 0.000e+00 0.000e+00 2.000e-01 6.924e-03 1.755e-03 3.481e-03
12 1 0.000e+00 0.000e+00 -2.000e-01 6.392e-03 -6.630e-03 -9.585e-03
ITEM: TIMESTEP
0
ITEM: NUMBER OF ATOMS
6
ITEM: BOX BOUNDS xy xz yz pp pp pp
                     -5.00000000000000e-01 5.00000000000000e-01 0.00000000000000e+00
-5.00000000000000e-01	5.00000000000000e-01	0.00000000000000e+00
-5.00000000000000e-01	5.00000000000000e-01	0.00000000000000e+00
ITEM: ATOMS id type x y z DisplacementX DisplacementY DisplacementZ
13 1 0.000e+00 0.000e+00 -2.000e-01 -7.447e-03 1.347e-02 3.225e-03
14 1 2.000e-01 0.000e+00 0.000e+00 -3.744e-03 -5.347e-03 3.283e-03
15 1 0.000e+00 2.000e-01 0.000e+00 -1.876e-02 -8.162e-03 2.622e-02
16 1 0.000e+00 0.000e+00 0.000e+00 1.757e-02 -2.095e-01 9.161e-03
17 1 -2.000e-01 0.000e+00 0.000e+00 3.373e-03 1.037e-02 -7.551e-03
18 1 0.000e+00 0.000e+00 2.000e-01 -5.207e-03 -8.688e-03 -1.849e-03
ITEM: TIMESTEP
0
ITEM: NUMBER OF ATOMS
6
ITEM: BOX BOUNDS xy xz yz pp pp pp
                     -5.00000000000000e-01 5.00000000000000e-01 0.00000000000000e+00
-5.00000000000000e-01	5.00000000000000e-01	0.00000000000000e+00
-5.00000000000000e-01	5.00000000000000e-01	0.00000000000000e+00
ITEM: ATOMS id type x y z DisplacementX DisplacementY DisplacementZ
19 1 0.000e+00 0.000e+00 -2.000e-01 -4.195e-03 5.512e-03 -7.295e-03
20 1 2.000e-01 0.000e+00 0.000e+00 3.000e-03 -1.172e-02 -1.080e-02
21 1 -2.000e-01 0.000e+00 0.000e+00 -5.886e-03 6.133e-03 7.853e-03
22 1 0.000e+00 0.000e+00 0.000e+00 1.533e-02 2.045e-01 -5.025e-03
23 1 0.000e+00 -2.000e-01 0.000e+00 -3.569e-03 -3.307e-03 9.069e-03
24 1 0.000e+00 0.000e+00 2.000e-01 -4.247e-03 -6.663e-03 1.343e-02
