ITEM: TIMESTEP
0
ITEM: NUMBER OF ATOMS
47
ITEM: BOX BOUNDS xy xz yz pp pp pp
                     0.00000000000000e+00 1.06200000000000e+01 0.00000000000000e+00
0.00000000000000e+00	1.06200000000000e+01	0.00000000000000e+00
0.00000000000000e+00	1.06200000000000e+01	0.00000000000000e+00
ITEM: ATOMS id type x y z DisplacementX DisplacementY DisplacementZ
1 1 3.522e+00 -3.153e-04 -3.523e+00 5.717e-03 -2.413e-03 7.726e-03
2 1 1.762e+00 1.772e+00 3.550e+00 -6.212e-04 -6.478e-03 5.448e-03
3 1 -3.549e+00 -1.774e+00 -1.760e+00 4.291e-03 6.069e-03 1.280e-02
4 1 -3.550e+00 1.771e+00 -1.760e+00 1.184e-03 -3.779e-03 9.504e-03
5 1 1.762e+00 -1.772e+00 3.551e+00 1.725e-03 -2.424e-03 1.033e-02
6 1 3.529e+00 3.536e+00 8.220e-03 3.037e-03 -2.115e-03 1.445e-02
7 1 -6.831e-03 -3.537e+00 -3.530e+00 5.988e-04 -3.593e-03 7.437e-03
8 1 -8.252e-03 3.537e+00 -3.529e+00 2.538e-03 -3.115e-03 1.351e-02
9 1 3.528e+00 -3.539e+00 7.901e-03 2.982e-03 1.745e-03 1.153e-02
10 1 -3.550e+00 -1.770e+00 1.778e+00 2.589e-03 3.103e-03 9.274e-03
11 1 -3.551e+00 1.768e+00 1.779e+00 1.345e-03 -1.329e-04 7.456e-03
12 1 -1.779e+00 -1.769e+00 3.549e+00 -1.470e-03 -2.922e-03 1.277e-04
13 1 -1.779e+00 1.771e+00 3.550e+00 5.541e-04 -4.398e-03 7.859e-03
14 1 -1.778e+00 -3.539e+00 1.779e+00 4.207e-03 -6.566e-03 2.146e-02
15 1 -1.777e+00 3.540e+00 1.780e+00 1.216e-03 -2.088e-03 8.412e-03
16 1 1.761e+00 -1.762e+00 -3.521e+00 -2.487e-03 -8.855e-03 9.664e-04
17 1 1.760e+00 1.761e+00 -3.522e+00 7.748e-04 -4.979e-04 5.829e-03
18 1 3.522e+00 -1.759e+00 -1.760e+00 -1.137e-03 -1.415e-02 1.302e-02
19 1 3.520e+00 1.760e+00 -1.763e+00 -1.640e-02 1.425e-02 9.462e-03
20 1 1.761e+00 3.536e+00 1.777e+00 -1.504e-05 -1.322e-02 1.222e-02
21 1 -1.777e+00 -3.537e+00 -1.762e+00 -6.797e-03 -5.324e-03 1.648e-02
22 1 1.760e+00 -3.536e+00 1.776e+00 1.707e-03 -4.653e-03 1.185e-02
23 1 -1.774e+00 3.537e+00 -1.760e+00 1.637e-03 -3.702e-04 8.588e-03
24 1 3.529e+00 1.767e+00 1.775e+00 -8.736e-04 -6.500e-03 4.630e-03
25 1 -1.775e+00 -1.769e+00 -3.531e+00 1.005e-03 -5.788e-03 1.033e-02
26 1 -1.778e+00 1.769e+00 -3.529e+00 2.827e-03 7.606e-03 6.876e-03
27 1 3.530e+00 -1.767e+00 1.776e+00 7.112e-04 -8.704e-03 1.142e-02
28 1 3.523e+00 -1.435e-03 -1.841e-04 1.508e-02 -1.738e-03 1.718e-02
29 1 -2.566e-04 1.106e-03 -3.519e+00 -4.774e-03 -2.811e-03 -1.086e-02
30 1 1.759e+00 -3.547e+00 -1.760e+00 6.715e-03 1.328e-02 1.571e-02
31 1 1.760e+00 3.549e+00 -1.761e+00 1.085e-03 -9.318e-03 1.309e-02
32 1 -7.984e-03 3.538e+00 6.478e-03 3.777e-03 1.914e-03 1.404e-02
33 1 -7.692e-03 -3.539e+00 8.509e-03 1.243e-03 -4.228e-03 1.002e-02
34 1 -9.164e-03 7.515e-04 3.549e+00 6.429e-03 -3.311e-03 2.650e-02
35 1 -3.550e+00 -9.491e-04 1.134e-02 -7.499e-04 -7.594e-03 5.812e-03
36 1 1.559e-03 3.241e-04 -1.786e-03 1.735e+00 -2.350e-04 -1.736e+00
37 1 1.760e+00 1.760e+00 3.257e-04 -2.161e-02 -2.361e-03 2.769e-02
38 1 -2.359e-04 -1.762e+00 -1.763e+00 -1.703e-02 -1.174e-02 3.083e-02
39 1 -1.563e-03 1.761e+00 -1.763e+00 -2.450e-02 -1.127e-02 1.510e-02
40 1 1.762e+00 -1.762e+00 -8.735e-04 -1.328e-02 -1.043e-02 1.255e-02
41 1 1.758e+00 -1.225e-03 1.788e+00 -3.715e-03 1.386e-03 -1.033e-02
42 1 -1.788e+00 1.811e-03 -1.762e+00 4.254e-03 -1.551e-03 1.807e-02
43 1 -9.314e-03 1.769e+00 1.778e+00 -1.303e-03 -9.154e-03 5.089e-03
44 1 -1.778e+00 -1.768e+00 7.901e-03 3.566e-03 5.027e-03 1.114e-02
45 1 -8.458e-03 -1.768e+00 1.776e+00 1.937e-03 5.767e-03 5.237e-03
46 1 -1.778e+00 1.767e+00 8.861e-03 1.254e-03 -3.935e-03 9.843e-03
47 1 -1.776e+00 2.143e-04 1.776e+00 1.411e-03 6.223e-04 7.139e-03
ITEM: TIMESTEP
0
ITEM: NUMBER OF ATOMS
47
ITEM: BOX BOUNDS xy xz yz pp pp pp
                     0.00000000000000e+00 1.06200000000000e+01 0.00000000000000e+00
0.00000000000000e+00	1.06200000000000e+01	0.00000000000000e+00
0.00000000000000e+00	1.06200000000000e+01	0.00000000000000e+00
ITEM: ATOMS id type x y z DisplacementX DisplacementY DisplacementZ
48 1 -1.313e-04 3.523e+00 -3.523e+00 -1.845e-03 -9.508e-03 3.549e-03
49 1 -1.771e+00 1.760e+00 3.547e+00 1.492e-03 -1.563e-02 1.890e-02
50 1 1.773e+00 -3.550e+00 -1.763e+00 1.340e-03 -7.469e-03 1.263e-02
51 1 -1.771e+00 -3.551e+00 -1.761e+00 6.620e-04 -4.981e-03 8.628e-03
52 1 1.773e+00 1.761e+00 3.550e+00 -8.009e-04 -1.309e-02 9.531e-03
53 1 -3.537e+00 3.529e+00 7.109e-03 8.579e-04 -1.351e-02 1.531e-02
54 1 3.539e+00 -7.376e-03 -3.529e+00 4.724e-04 -2.028e-02 1.883e-02
55 1 -3.537e+00 -7.707e-03 -3.528e+00 5.865e-03 -1.049e-02 1.226e-02
56 1 3.536e+00 3.531e+00 7.386e-03 1.798e-03 -1.557e-02 1.987e-02
57 1 1.768e+00 -3.547e+00 1.779e+00 8.239e-04 -1.266e-02 1.459e-02
58 1 -1.769e+00 -3.550e+00 1.781e+00 5.136e-04 -1.582e-02 1.580e-02
59 1 1.769e+00 -1.780e+00 3.550e+00 2.296e-03 7.090e-05 1.045e-02
60 1 -1.771e+00 -1.779e+00 3.549e+00 2.228e-03 -5.192e-03 1.395e-02
61 1 3.540e+00 -1.778e+00 1.779e+00 2.783e-03 -6.935e-03 1.702e-02
62 1 -3.538e+00 -1.778e+00 1.778e+00 -1.036e-04 -8.508e-03 8.594e-03
63 1 1.761e+00 1.762e+00 -3.521e+00 2.019e-03 -1.853e-02 1.245e-02
64 1 -1.762e+00 1.761e+00 -3.520e+00 -2.636e-03 -1.824e-02 7.114e-03
65 1 1.761e+00 3.523e+00 -1.761e+00 1.025e-02 -8.185e-03 1.904e-02
66 1 -1.761e+00 3.522e+00 -1.761e+00 -1.459e-02 -7.942e-03 1.163e-02
67 1 -3.535e+00 1.761e+00 1.776e+00 -1.871e-03 -1.200e-02 5.229e-03
68 1 3.535e+00 -1.776e+00 -1.759e+00 5.604e-04 -1.590e-02 1.601e-02
69 1 3.535e+00 1.760e+00 1.775e+00 -7.404e-04 -9.615e-03 7.273e-03
70 1 -3.537e+00 -1.776e+00 -1.759e+00 3.287e-03 -7.905e-03 1.937e-02
71 1 -1.768e+00 3.530e+00 1.777e+00 -3.292e-04 -1.335e-02 1.127e-02
72 1 1.769e+00 -1.775e+00 -3.529e+00 -5.181e-05 -1.976e-02 1.673e-02
73 1 -1.769e+00 -1.776e+00 -3.528e+00 -6.748e-04 -1.549e-02 1.164e-02
74 1 1.768e+00 3.529e+00 1.777e+00 1.366e-03 -1.640e-02 1.903e-02
75 1 -5.515e-04 3.520e+00 -3.287e-05 -2.028e-03 -6.567e-03 1.920e-02
76 1 -1.524e-03 -2.776e-04 -3.521e+00 -6.724e-03 -2.619e-02 -7.650e-04
77 1 3.550e+00 1.762e+00 -1.762e+00 -2.507e-04 -1.700e-02 1.412e-02
78 1 -3.549e+00 1.760e+00 -1.760e+00 5.584e-03 -1.741e-02 1.917e-02
79 1 -3.538e+00 -7.664e-03 7.306e-03 -1.115e-03 -2.147e-02 1.442e-02
80 1 3.538e+00 -7.750e-03 7.313e-03 5.363e-03 -8.296e-03 2.083e-02
81 1 -1.185e-03 -1.069e-02 3.551e+00 4.381e-03 -1.957e-03 1.878e-02
82 1 1.252e-03 -3.548e+00 1.134e-02 -1.644e-03 -1.565e-02 8.557e-03
83 1 -1.008e-03 -8.032e-04 -8.656e-04 1.161e-04 1.731e+00 -1.733e+00
84 1 -1.761e+00 1.761e+00 -6.016e-04 -1.941e-02 -1.632e-02 2.047e-02
85 1 1.761e+00 -2.222e-04 -1.760e+00 2.803e-03 -2.980e-02 2.250e-02
86 1 -1.760e+00 3.254e-03 -1.759e+00 -9.906e-03 -2.535e-02 2.125e-02
87 1 1.762e+00 1.762e+00 -1.477e-04 1.967e-03 -2.387e-02 2.525e-02
88 1 5.899e-04 1.761e+00 1.788e+00 -5.497e-03 -2.491e-02 2.375e-03
89 1 -2.006e-03 -1.788e+00 -1.760e+00 6.546e-03 -1.753e-04 2.467e-02
90 1 -1.768e+00 -7.536e-03 1.776e+00 8.984e-03 -1.784e-02 7.110e-03
91 1 1.768e+00 -1.777e+00 8.616e-03 5.456e-04 -1.738e-02 1.702e-02
92 1 1.768e+00 -6.707e-03 1.778e+00 -1.296e-03 -7.921e-03 4.240e-03
93 1 -1.766e+00 -1.777e+00 6.775e-03 4.003e-03 -5.750e-03 2.021e-02
94 1 3.007e-04 -1.774e+00 1.775e+00 -4.172e-03 -8.131e-03 1.238e-02
ITEM: TIMESTEP
0
ITEM: NUMBER OF ATOMS
47
ITEM: BOX BOUNDS xy xz yz pp pp pp
                     0.00000000000000e+00 1.06200000000000e+01 0.00000000000000e+00
0.00000000000000e+00	1.06200000000000e+01	0.00000000000000e+00
0.00000000000000e+00	1.06200000000000e+01	0.00000000000000e+00
ITEM: ATOMS id type x y z DisplacementX DisplacementY DisplacementZ
95 1 -3.522e+00 1.131e-03 -3.521e+00 1.290e-03 -3.131e-03 9.393e-03
96 1 -1.761e+00 1.772e+00 3.549e+00 3.268e-03 -2.648e-03 1.559e-02
97 1 3.551e+00 -1.772e+00 -1.761e+00 6.379e-03 -4.187e-04 2.429e-02
98 1 3.550e+00 1.772e+00 -1.760e+00 1.322e-02 -1.215e-03 1.395e-02
99 1 -1.759e+00 -1.773e+00 3.548e+00 1.321e-02 5.926e-03 1.920e-02
100 1 -3.531e+00 3.535e+00 9.317e-03 6.272e-03 7.243e-03 1.851e-02
101 1 6.961e-03 -3.537e+00 -3.530e+00 1.053e-02 -1.661e-03 2.192e-02
102 1 6.283e-03 3.540e+00 -3.529e+00 4.811e-03 -9.400e-04 1.948e-02
103 1 -3.530e+00 -3.540e+00 6.414e-03 5.015e-03 -1.549e-03 2.058e-02
104 1 3.549e+00 -1.769e+00 1.779e+00 1.436e-02 9.222e-03 1.695e-02
105 1 3.548e+00 1.770e+00 1.778e+00 7.610e-03 7.288e-03 2.290e-02
106 1 1.780e+00 -1.770e+00 3.549e+00 9.130e-03 -4.028e-03 1.268e-02
107 1 1.778e+00 1.771e+00 3.548e+00 2.492e-03 2.198e-03 9.594e-03
108 1 1.779e+00 -3.539e+00 1.779e+00 6.909e-03 1.022e-02 1.851e-02
109 1 1.778e+00 3.539e+00 1.776e+00 3.985e-03 2.287e-03 1.446e-02
110 1 -1.761e+00 -1.760e+00 -3.519e+00 1.298e-02 -7.603e-03 1.306e-02
111 1 -1.762e+00 1.761e+00 -3.521e+00 6.854e-03 9.204e-03 1.943e-02
112 1 -3.521e+00 -1.762e+00 -1.761e+00 -3.359e-03 -4.174e-03 9.805e-03
113 1 -3.522e+00 1.762e+00 -1.762e+00 -4.756e-03 1.121e-02 1.065e-02
114 1 -1.762e+00 3.537e+00 1.777e+00 1.909e-02 5.362e-03 1.588e-02
115 1 1.775e+00 -3.536e+00 -1.760e+00 1.563e-02 7.900e-05 2.066e-02
116 1 -1.762e+00 -3.539e+00 1.775e+00 5.001e-03 -5.570e-03 2.338e-02
117 1 1.775e+00 3.537e+00 -1.761e+00 9.954e-03 9.918e-03 2.878e-02
118 1 -3.528e+00 1.767e+00 1.779e+00 5.476e-03 4.374e-03 1.791e-02
119 1 1.778e+00 -1.769e+00 -3.528e+00 5.625e-03 1.444e-03 2.048e-02
120 1 1.777e+00 1.767e+00 -3.529e+00 4.216e-03 -2.560e-03 1.866e-02
121 1 -3.529e+00 -1.770e+00 1.776e+00 7.999e-03 1.130e-02 2.135e-02
122 1 -3.523e+00 4.395e-04 3.330e-04 -1.208e-02 1.209e-03 1.911e-02
123 1 -9.412e-04 -4.476e-04 -3.521e+00 2.176e-02 4.733e-03 1.477e-03
124 1 -1.759e+00 -3.549e+00 -1.761e+00 8.792e-03 1.517e-02 2.123e-02
125 1 -1.761e+00 3.548e+00 -1.760e+00 3.102e-03 -1.200e-02 2.165e-02
126 1 7.898e-03 3.538e+00 7.595e-03 1.845e-02 6.564e-03 2.277e-02
127 1 7.789e-03 -3.538e+00 6.790e-03 2.808e-03 -3.888e-03 1.495e-02
128 1 9.270e-03 -1.026e-03 3.548e+00 7.679e-03 5.944e-03 2.408e-02
129 1 3.549e+00 1.491e-03 1.218e-02 5.436e-03 8.877e-03 1.459e-02
130 1 -1.165e-04 1.371e-04 -9.656e-05 -1.736e+00 -1.277e-03 -1.735e+00
131 1 -1.761e+00 1.761e+00 1.338e-03 2.280e-02 -2.501e-03 2.495e-02
132 1 -1.222e-03 -1.760e+00 -1.762e+00 4.240e-02 -9.551e-03 1.263e-02
133 1 -1.652e-03 1.761e+00 -1.761e+00 2.265e-02 4.119e-03 1.956e-02
134 1 -1.761e+00 -1.759e+00 8.192e-04 1.410e-02 -8.071e-03 1.490e-02
135 1 -1.760e+00 -1.372e-04 1.789e+00 1.389e-03 4.400e-03 4.394e-03
136 1 1.787e+00 1.907e-04 -1.761e+00 2.823e-03 -1.283e-02 2.132e-02
137 1 6.730e-03 1.769e+00 1.776e+00 3.365e-03 -2.238e-05 1.405e-02
138 1 1.777e+00 -1.767e+00 8.320e-03 2.579e-03 4.130e-03 8.517e-03
139 1 7.584e-03 -1.769e+00 1.776e+00 5.490e-03 6.230e-03 1.665e-02
140 1 1.778e+00 1.766e+00 8.729e-03 2.580e-03 -1.999e-03 1.285e-02
141 1 1.776e+00 -2.084e-04 1.774e+00 2.081e-03 1.263e-04 9.702e-03
ITEM: TIMESTEP
0
ITEM: NUMBER OF ATOMS
47
ITEM: BOX BOUNDS xy xz yz pp pp pp
                     0.00000000000000e+00 1.06200000000000e+01 0.00000000000000e+00
0.00000000000000e+00	1.06200000000000e+01	0.00000000000000e+00
0.00000000000000e+00	1.06200000000000e+01	0.00000000000000e+00
ITEM: ATOMS id type x y z DisplacementX DisplacementY DisplacementZ
142 1 5.240e-04 -3.521e+00 -3.521e+00 3.480e-03 5.865e-03 1.026e-02
143 1 -1.773e+00 -1.761e+00 3.549e+00 6.483e-03 8.930e-03 1.802e-02
144 1 1.772e+00 3.550e+00 -1.763e+00 5.118e-03 8.516e-03 1.380e-02
145 1 -1.771e+00 3.549e+00 -1.761e+00 5.389e-03 4.115e-03 1.775e-02
146 1 1.772e+00 -1.761e+00 3.549e+00 5.365e-03 5.709e-03 1.660e-02
147 1 -3.537e+00 -3.528e+00 9.072e-03 6.387e-03 1.239e-02 1.525e-02
148 1 3.538e+00 6.766e-03 -3.528e+00 6.662e-03 1.117e-02 1.702e-02
149 1 -3.538e+00 6.140e-03 -3.529e+00 8.940e-03 1.857e-02 1.931e-02
150 1 3.537e+00 -3.527e+00 7.653e-03 5.932e-03 1.380e-02 1.275e-02
151 1 1.769e+00 3.549e+00 1.779e+00 4.469e-03 9.747e-03 1.079e-02
152 1 -1.769e+00 3.549e+00 1.778e+00 7.619e-03 1.729e-02 1.586e-02
153 1 1.769e+00 1.778e+00 3.550e+00 4.582e-03 9.900e-03 1.105e-02
154 1 -1.770e+00 1.780e+00 3.548e+00 4.984e-03 1.696e-02 1.514e-02
155 1 3.540e+00 1.776e+00 1.777e+00 5.389e-03 1.616e-02 9.287e-03
156 1 -3.538e+00 1.778e+00 1.778e+00 6.324e-03 1.308e-02 1.456e-02
157 1 1.761e+00 -1.759e+00 -3.522e+00 1.628e-02 1.168e-02 5.149e-04
158 1 -1.760e+00 -1.761e+00 -3.523e+00 4.674e-03 1.595e-02 7.073e-03
159 1 1.762e+00 -3.523e+00 -1.760e+00 1.526e-02 -4.504e-03 3.498e-03
160 1 -1.760e+00 -3.519e+00 -1.760e+00 -1.236e-03 -1.880e-04 1.969e-02
161 1 -3.538e+00 -1.760e+00 1.776e+00 5.758e-03 1.938e-02 8.230e-03
162 1 3.536e+00 1.778e+00 -1.760e+00 5.088e-03 1.189e-02 1.132e-02
163 1 3.539e+00 -1.761e+00 1.778e+00 6.143e-03 1.397e-02 1.333e-02
164 1 -3.535e+00 1.776e+00 -1.761e+00 7.472e-03 1.577e-02 1.645e-02
165 1 -1.769e+00 -3.527e+00 1.779e+00 5.414e-03 1.255e-02 1.192e-02
166 1 1.769e+00 1.777e+00 -3.530e+00 6.314e-03 1.289e-02 1.466e-02
167 1 -1.768e+00 1.776e+00 -3.529e+00 7.544e-03 1.168e-02 1.958e-02
168 1 1.768e+00 -3.530e+00 1.775e+00 7.462e-03 5.469e-03 2.370e-02
169 1 6.016e-04 -3.522e+00 -6.518e-04 2.956e-03 -1.008e-02 2.187e-02
170 1 -1.028e-04 -6.552e-04 -3.521e+00 3.839e-03 2.232e-02 -1.878e-04
171 1 3.548e+00 -1.762e+00 -1.760e+00 6.204e-03 1.478e-02 1.295e-02
172 1 -3.549e+00 -1.761e+00 -1.759e+00 8.218e-03 1.738e-02 1.777e-02
173 1 -3.537e+00 8.890e-03 8.106e-03 5.320e-03 1.425e-02 1.041e-02
174 1 3.538e+00 8.589e-03 8.456e-03 1.150e-02 1.688e-02 1.531e-02
175 1 8.610e-05 9.581e-03 3.548e+00 8.395e-03 1.456e-02 2.035e-02
176 1 9.467e-04 3.549e+00 9.468e-03 7.535e-03 2.242e-02 1.195e-02
177 1 1.406e-03 -1.521e-04 -1.510e-03 -9.776e-04 -1.734e+00 -1.733e+00
178 1 -1.762e+00 -1.762e+00 -1.460e-04 1.447e-03 1.975e-02 1.862e-02
179 1 1.760e+00 1.674e-03 -1.760e+00 -5.623e-04 2.776e-02 2.600e-02
180 1 -1.763e+00 1.513e-03 -1.759e+00 -1.330e-02 2.745e-02 1.678e-02
181 1 1.760e+00 -1.760e+00 2.218e-04 1.058e-02 9.650e-03 9.218e-03
182 1 1.878e-03 -1.760e+00 1.789e+00 2.347e-03 1.966e-02 -3.237e-03
183 1 4.234e-04 1.788e+00 -1.759e+00 4.460e-03 -5.241e-03 2.136e-02
184 1 -1.768e+00 7.999e-03 1.777e+00 4.105e-03 8.681e-03 1.034e-02
185 1 1.768e+00 1.778e+00 6.578e-03 5.294e-03 1.012e-02 1.325e-02
186 1 1.770e+00 7.187e-03 1.776e+00 4.477e-03 1.385e-02 7.912e-03
187 1 -1.769e+00 1.777e+00 5.730e-03 6.535e-03 1.075e-02 1.690e-02
188 1 -1.576e-03 1.776e+00 1.777e+00 2.538e-03 5.972e-03 7.078e-03
ITEM: TIMESTEP
0
ITEM: NUMBER OF ATOMS
47
ITEM: BOX BOUNDS xy xz yz pp pp pp
                     0.00000000000000e+00 1.06200000000000e+01 0.00000000000000e+00
0.00000000000000e+00	1.06200000000000e+01	0.00000000000000e+00
0.00000000000000e+00	1.06200000000000e+01	0.00000000000000e+00
ITEM: ATOMS id type x y z DisplacementX DisplacementY DisplacementZ
189 1 3.521e+00 9.944e-04 3.521e+00 -1.570e-02 9.140e-03 -2.688e-03
190 1 -3.549e+00 1.771e+00 1.763e+00 -8.765e-03 -9.506e-03 -1.931e-02
191 1 1.763e+00 -1.772e+00 -3.550e+00 -6.941e-03 4.444e-03 -2.316e-02
192 1 1.760e+00 1.771e+00 -3.548e+00 -2.239e-03 2.001e-03 -5.894e-03
193 1 -3.551e+00 -1.772e+00 1.761e+00 -5.250e-03 8.108e-03 -2.016e-02
194 1 -6.210e-03 3.537e+00 3.528e+00 -5.963e-03 2.910e-03 -1.884e-02
195 1 3.530e+00 -3.539e+00 -6.352e-03 -6.847e-03 7.394e-03 -2.493e-02
196 1 3.528e+00 3.537e+00 -9.159e-03 -8.993e-03 -6.574e-03 -2.214e-02
197 1 -7.176e-03 -3.536e+00 3.527e+00 -7.924e-03 -5.516e-03 -1.936e-02
198 1 -1.778e+00 -1.770e+00 -3.549e+00 -6.705e-03 -2.557e-03 -1.742e-02
199 1 -1.777e+00 1.770e+00 -3.550e+00 -6.896e-03 -2.228e-03 -1.829e-02
200 1 -3.548e+00 -1.768e+00 -1.780e+00 -4.456e-03 3.176e-03 -1.405e-02
201 1 -3.549e+00 1.770e+00 -1.778e+00 -4.663e-03 -2.908e-03 -1.043e-02
202 1 -1.778e+00 -3.539e+00 -1.778e+00 -6.432e-03 2.669e-03 -2.022e-02
203 1 -1.779e+00 3.538e+00 -1.778e+00 -8.200e-03 -3.062e-03 -2.201e-02
204 1 3.521e+00 -1.761e+00 1.761e+00 -1.089e-02 -6.780e-03 -1.455e-02
205 1 3.521e+00 1.762e+00 1.761e+00 -6.015e-03 3.933e-03 -1.622e-02
206 1 1.760e+00 -1.760e+00 3.522e+00 -1.297e-02 -1.130e-02 -1.067e-02
207 1 1.760e+00 1.759e+00 3.522e+00 -1.378e-02 9.049e-03 -6.158e-03
208 1 -1.776e+00 3.537e+00 1.762e+00 -5.974e-03 -3.271e-05 -1.680e-02
209 1 1.761e+00 -3.537e+00 -1.775e+00 -8.269e-03 4.942e-04 -2.475e-02
210 1 -1.774e+00 -3.537e+00 1.758e+00 -8.569e-03 -7.564e-03 -2.004e-02
211 1 1.761e+00 3.536e+00 -1.775e+00 -9.238e-03 -8.344e-04 -2.701e-02
212 1 -1.776e+00 1.769e+00 3.528e+00 -3.663e-03 1.477e-03 -1.027e-02
213 1 3.527e+00 -1.770e+00 -1.777e+00 -7.915e-03 -2.165e-03 -2.170e-02
214 1 3.530e+00 1.768e+00 -1.777e+00 -6.568e-03 4.877e-03 -2.223e-02
215 1 -1.777e+00 -1.769e+00 3.528e+00 -8.398e-03 -5.276e-03 -2.109e-02
216 1 1.268e-03 4.119e-04 3.522e+00 -1.385e-02 -8.764e-03 6.359e-03
217 1 3.520e+00 -2.224e-03 -3.367e-05 -4.213e-03 2.110e-03 -1.284e-02
218 1 1.762e+00 -3.549e+00 1.764e+00 -5.641e-03 -2.045e-03 -1.427e-02
219 1 1.760e+00 3.551e+00 1.761e+00 -7.829e-03 -8.984e-03 -1.661e-02
220 1 -8.036e-03 3.538e+00 -9.086e-03 -6.386e-03 8.985e-03 -2.453e-02
221 1 -8.570e-03 -3.538e+00 -8.145e-03 -9.001e-03 -1.518e-02 -1.608e-02
222 1 -3.549e+00 5.063e-04 -1.188e-02 -8.557e-03 -5.778e-03 -2.133e-02
223 1 -1.025e-02 4.408e-04 -3.547e+00 -8.597e-03 -3.788e-03 -2.280e-02
224 1 1.078e-03 -6.622e-04 -2.205e-04 1.732e+00 5.768e-04 1.732e+00
225 1 -1.883e-03 1.761e+00 1.759e+00 -2.583e-03 -1.637e-02 -1.291e-02
226 1 1.761e+00 -1.761e+00 -9.846e-05 -1.136e-02 -2.556e-03 -3.282e-02
227 1 1.762e+00 1.761e+00 -1.343e-04 -1.345e-02 6.018e-04 -2.609e-02
228 1 -3.778e-04 -1.758e+00 1.760e+00 -9.749e-03 -1.244e-02 -2.017e-02
229 1 -1.788e+00 6.854e-04 1.759e+00 -6.067e-03 8.365e-03 -2.304e-02
230 1 1.760e+00 5.535e-04 -1.788e+00 -3.414e-03 7.689e-05 -8.414e-03
231 1 -1.777e+00 1.767e+00 -6.598e-03 -7.502e-03 -1.172e-02 -1.357e-02
232 1 -7.876e-03 -1.768e+00 -1.778e+00 -5.225e-03 7.789e-04 -1.489e-02
233 1 -1.776e+00 -1.769e+00 -8.327e-03 -2.946e-03 1.321e-02 -1.616e-02
234 1 -7.949e-03 1.767e+00 -1.778e+00 -5.382e-03 -8.960e-03 -8.525e-03
235 1 -1.776e+00 -1.022e-03 -1.776e+00 1.388e-04 -1.146e-03 -1.482e-02
ITEM: TIMESTEP
0
ITEM: NUMBER OF ATOMS
47
ITEM: BOX BOUNDS xy xz yz pp pp pp
                     0.00000000000000e+00 1.06200000000000e+01 0.00000000000000e+00
0.00000000000000e+00	1.06200000000000e+01	0.00000000000000e+00
0.00000000000000e+00	1.06200000000000e+01	0.00000000000000e+00
ITEM: ATOMS id type x y z DisplacementX DisplacementY DisplacementZ
236 1 3.522e+00 3.521e+00 7.613e-04 -1.639e-02 -9.674e-03 -4.353e-03
237 1 -3.548e+00 1.761e+00 1.771e+00 -6.253e-03 -1.611e-02 -6.342e-03
238 1 1.759e+00 -3.550e+00 -1.772e+00 -1.248e-03 -1.540e-02 9.690e-03
239 1 1.760e+00 -3.550e+00 1.772e+00 -6.832e-03 -1.436e-02 -9.495e-03
240 1 -3.551e+00 1.761e+00 -1.771e+00 -3.524e-03 -4.370e-03 -5.634e-03
241 1 -7.591e-03 3.530e+00 3.538e+00 -4.973e-03 -2.032e-02 8.586e-04
242 1 3.529e+00 -7.585e-03 -3.536e+00 -5.181e-03 -1.799e-02 -1.475e-03
243 1 3.530e+00 -8.567e-03 3.536e+00 -7.192e-03 -2.039e-02 -6.431e-03
244 1 -7.812e-03 3.529e+00 -3.538e+00 -3.619e-03 -3.413e-03 -6.623e-03
245 1 -1.779e+00 -3.551e+00 -1.769e+00 -4.302e-03 -9.185e-03 -4.796e-03
246 1 -1.781e+00 -3.549e+00 1.769e+00 -6.187e-03 -1.519e-02 -6.777e-03
247 1 -3.548e+00 -1.778e+00 -1.771e+00 -4.573e-03 -1.268e-02 -3.223e-03
248 1 -3.551e+00 -1.780e+00 1.769e+00 -4.494e-03 -1.181e-02 -3.573e-03
249 1 -1.778e+00 -1.778e+00 -3.540e+00 -4.911e-03 -1.064e-02 -5.781e-03
250 1 -1.780e+00 -1.777e+00 3.538e+00 -3.957e-03 -8.752e-03 -3.964e-03
251 1 3.521e+00 1.759e+00 -1.759e+00 -1.616e-02 -1.493e-02 -4.305e-04
252 1 3.523e+00 1.762e+00 1.762e+00 -4.828e-03 -1.857e-02 8.958e-03
253 1 1.761e+00 3.521e+00 -1.761e+00 -6.959e-03 -1.406e-02 -1.013e-02
254 1 1.760e+00 3.521e+00 1.761e+00 -2.190e-03 -1.472e-02 1.194e-02
255 1 -1.776e+00 1.760e+00 3.538e+00 -5.464e-03 -2.209e-02 4.940e-04
256 1 1.762e+00 -1.775e+00 -3.538e+00 -5.197e-03 -1.519e-02 -3.507e-03
257 1 -1.774e+00 1.759e+00 -3.537e+00 -8.708e-03 -1.959e-02 -1.199e-02
258 1 1.760e+00 -1.776e+00 3.536e+00 -3.013e-03 -2.066e-03 -5.575e-03
259 1 -1.776e+00 3.529e+00 1.769e+00 -1.459e-02 -2.047e-02 -5.373e-03
260 1 3.530e+00 -1.775e+00 -1.768e+00 -8.334e-03 -1.905e-02 -1.114e-02
261 1 3.530e+00 -1.776e+00 1.769e+00 -4.531e-03 -1.988e-02 2.008e-03
262 1 -1.777e+00 3.529e+00 -1.770e+00 -6.951e-03 -1.858e-02 -6.902e-03
263 1 -5.792e-04 3.521e+00 2.227e-03 -1.291e-02 6.671e-04 9.517e-03
264 1 3.522e+00 1.362e-03 -1.678e-03 3.002e-03 -2.796e-02 4.332e-03
265 1 1.760e+00 1.760e+00 -3.550e+00 -2.158e-03 -1.823e-02 8.686e-03
266 1 1.760e+00 1.761e+00 3.549e+00 -8.577e-03 -1.269e-02 -1.644e-02
267 1 -9.500e-03 -8.639e-03 3.536e+00 -3.268e-03 -2.124e-02 7.149e-03
268 1 -7.441e-03 -7.259e-03 -3.536e+00 -8.951e-03 -1.799e-02 -1.393e-02
269 1 -3.550e+00 -1.271e-02 2.158e-03 -6.402e-03 -1.552e-02 -7.251e-03
270 1 -1.092e-02 -3.548e+00 1.893e-03 -6.534e-03 -1.635e-02 -7.104e-03
271 1 -1.896e-03 -7.595e-04 1.287e-04 1.736e+00 1.736e+00 -2.598e-03
272 1 -3.444e-04 1.760e+00 1.761e+00 -2.151e-02 -2.534e-02 2.104e-03
273 1 1.760e+00 5.127e-04 -1.762e+00 -7.322e-03 -2.884e-02 -8.676e-04
274 1 1.761e+00 1.566e-03 1.762e+00 -2.160e-02 -2.212e-02 5.173e-03
275 1 1.545e-03 1.760e+00 -1.761e+00 -2.104e-02 -3.033e-02 -9.200e-04
276 1 -1.788e+00 1.761e+00 -4.521e-04 -6.397e-03 -2.396e-02 -1.265e-03
277 1 1.760e+00 -1.789e+00 -1.180e-03 -5.082e-03 -5.726e-03 -9.821e-03
278 1 -1.776e+00 -6.518e-03 1.768e+00 -5.627e-03 -1.946e-02 -1.905e-03
279 1 -7.707e-03 -1.778e+00 -1.769e+00 -2.182e-03 -1.089e-02 3.415e-03
280 1 -1.776e+00 -6.090e-03 -1.769e+00 -5.018e-03 -2.135e-02 1.440e-03
281 1 -7.239e-03 -1.778e+00 1.769e+00 -7.964e-03 -1.266e-02 -1.444e-02
282 1 -1.777e+00 -1.776e+00 1.037e-04 -4.142e-03 -1.101e-02 -2.975e-03
ITEM: TIMESTEP
0
ITEM: NUMBER OF ATOMS
47
ITEM: BOX BOUNDS xy xz yz pp pp pp
                     0.00000000000000e+00 1.06200000000000e+01 0.00000000000000e+00
0.00000000000000e+00	1.06200000000000e+01	0.00000000000000e+00
0.00000000000000e+00	1.06200000000000e+01	0.00000000000000e+00
ITEM: ATOMS id type x y z DisplacementX DisplacementY DisplacementZ
283 1 1.390e-03 3.522e+00 3.523e+00 -1.144e-03 -3.566e-03 4.688e-03
284 1 1.771e+00 -3.550e+00 1.762e+00 -8.375e-03 -1.150e-02 -1.662e-02
285 1 -1.771e+00 1.760e+00 -3.548e+00 -7.180e-03 -1.230e-02 -1.210e-02
286 1 1.770e+00 1.761e+00 -3.550e+00 -6.409e-03 -4.938e-03 -1.476e-02
287 1 -1.772e+00 -3.550e+00 1.761e+00 -8.241e-03 -1.340e-02 -1.483e-02
288 1 3.539e+00 -7.257e-03 3.528e+00 -8.312e-03 -1.185e-02 -1.616e-02
289 1 -3.538e+00 3.528e+00 -8.307e-03 -7.690e-03 -1.093e-02 -1.475e-02
290 1 3.536e+00 3.530e+00 -7.237e-03 -6.067e-03 -9.420e-03 -1.046e-02
291 1 -3.537e+00 -7.621e-03 3.530e+00 -6.412e-03 -1.240e-02 -9.489e-03
292 1 -1.769e+00 -1.777e+00 -3.550e+00 -7.158e-03 -1.335e-02 -1.129e-02
293 1 1.769e+00 -1.778e+00 -3.549e+00 -8.131e-03 -1.351e-02 -1.439e-02
294 1 -1.769e+00 -3.549e+00 -1.778e+00 -1.077e-02 -1.746e-02 -2.030e-02
295 1 1.769e+00 -3.551e+00 -1.779e+00 -6.231e-03 -7.474e-03 -1.238e-02
296 1 -3.540e+00 -1.779e+00 -1.778e+00 -5.750e-03 -7.776e-03 -1.058e-02
297 1 3.538e+00 -1.781e+00 -1.777e+00 -7.216e-03 -5.534e-03 -1.701e-02
298 1 -1.760e+00 3.521e+00 1.759e+00 -3.124e-04 -1.202e-02 -1.041e-02
299 1 1.760e+00 3.521e+00 1.761e+00 2.454e-03 -1.027e-02 -1.941e-02
300 1 -1.759e+00 1.761e+00 3.521e+00 -8.428e-03 -2.008e-02 -6.368e-03
301 1 1.761e+00 1.762e+00 3.522e+00 -6.700e-03 -1.653e-02 -6.042e-03
302 1 3.538e+00 -1.776e+00 1.762e+00 -2.862e-03 -2.177e-02 -1.529e-02
303 1 -3.536e+00 1.762e+00 -1.776e+00 -8.903e-03 -1.546e-02 -1.556e-02
304 1 -3.537e+00 -1.777e+00 1.761e+00 -5.859e-03 -1.538e-02 -9.794e-03
305 1 3.537e+00 1.761e+00 -1.777e+00 -9.745e-03 -1.522e-02 -1.851e-02
306 1 1.766e+00 -1.779e+00 3.531e+00 -7.739e-03 -1.115e-02 -1.476e-02
307 1 -1.768e+00 3.528e+00 -1.778e+00 -8.874e-03 -1.773e-02 -1.386e-02
308 1 1.766e+00 3.528e+00 -1.778e+00 -9.308e-03 -1.488e-02 -1.730e-02
309 1 -1.768e+00 -1.776e+00 3.529e+00 -8.938e-03 -1.606e-02 -1.525e-02
310 1 1.064e-03 -1.422e-03 3.522e+00 -1.999e-03 -1.776e-02 1.433e-02
311 1 -1.985e-03 3.523e+00 -7.969e-04 -6.858e-03 2.418e-03 -1.910e-02
312 1 -3.550e+00 1.760e+00 1.762e+00 -1.736e-03 -1.278e-03 -1.085e-02
313 1 3.550e+00 1.759e+00 1.762e+00 -9.825e-03 -1.423e-02 -1.947e-02
314 1 3.538e+00 -9.503e-03 -7.382e-03 -9.024e-03 -2.333e-02 -1.039e-02
315 1 -3.539e+00 -8.963e-03 -6.526e-03 -1.062e-02 -1.993e-02 -1.807e-02
316 1 1.014e-03 -3.550e+00 -1.038e-02 -7.942e-03 -1.685e-02 -1.140e-02
317 1 -4.463e-04 -1.212e-02 -3.550e+00 -8.648e-03 -1.058e-02 -1.816e-02
318 1 4.038e-04 5.824e-04 2.992e-04 2.760e-04 1.734e+00 1.736e+00
319 1 1.760e+00 7.769e-04 1.762e+00 -1.060e-02 -1.330e-02 -7.169e-03
320 1 -1.760e+00 1.760e+00 -9.384e-04 -1.150e-02 -2.354e-02 -1.842e-02
321 1 1.763e+00 1.759e+00 -1.499e-04 -1.231e-02 -1.921e-02 -1.381e-02
322 1 -1.761e+00 4.233e-04 1.760e+00 -9.262e-03 -2.719e-02 -2.453e-02
323 1 -2.146e-04 -1.788e+00 1.760e+00 -7.173e-03 -1.039e-03 -2.004e-02
324 1 -7.710e-07 1.761e+00 -1.788e+00 -9.232e-04 -2.277e-02 7.460e-04
325 1 1.770e+00 -1.776e+00 -5.492e-03 -6.484e-03 -3.909e-03 -2.071e-02
326 1 -1.770e+00 -7.821e-03 -1.776e+00 -9.297e-03 -1.353e-02 -1.823e-02
327 1 -1.768e+00 -1.777e+00 -7.023e-03 -1.472e-03 -4.634e-03 -1.464e-02
328 1 1.769e+00 -8.531e-03 -1.775e+00 -7.646e-03 -1.057e-02 -1.486e-02
329 1 -5.735e-04 -1.777e+00 -1.776e+00 -4.018e-03 -2.792e-03 -8.383e-03
ITEM: TIMESTEP
0
ITEM: NUMBER OF ATOMS
47
ITEM: BOX BOUNDS xy xz yz pp pp pp
                     0.00000000000000e+00 1.06200000000000e+01 0.00000000000000e+00
0.00000000000000e+00	1.06200000000000e+01	0.00000000000000e+00
0.00000000000000e+00	1.06200000000000e+01	0.00000000000000e+00
ITEM: ATOMS id type x y z DisplacementX DisplacementY DisplacementZ
330 1 -3.521e+00 6.278e-04 3.522e+00 5.893e-03 -1.495e-03 -1.247e-02
331 1 3.547e+00 1.772e+00 1.760e+00 -4.800e-03 -4.395e-03 -9.831e-03
332 1 -1.759e+00 -1.770e+00 -3.549e+00 5.867e-03 1.986e-04 -7.131e-03
333 1 -1.761e+00 1.772e+00 -3.547e+00 -1.013e-03 3.351e-03 -2.799e-03
334 1 3.547e+00 -1.772e+00 1.761e+00 -9.885e-05 7.040e-03 -2.390e-03
335 1 7.743e-03 3.536e+00 3.531e+00 -5.257e-03 -8.935e-04 -1.382e-02
336 1 -3.529e+00 -3.540e+00 -6.790e-03 -4.927e-03 6.526e-04 -1.382e-02
337 1 -3.529e+00 3.537e+00 -7.493e-03 5.771e-03 -6.103e-03 -1.328e-02
338 1 7.134e-03 -3.537e+00 3.529e+00 1.677e-04 3.018e-03 -7.705e-03
339 1 1.780e+00 -1.770e+00 -3.550e+00 -3.042e-03 -1.739e-03 -5.903e-03
340 1 1.777e+00 1.770e+00 -3.548e+00 -4.462e-04 1.135e-02 -6.586e-03
341 1 3.549e+00 -1.768e+00 -1.778e+00 -3.436e-03 2.355e-03 -1.010e-02
342 1 3.550e+00 1.769e+00 -1.778e+00 -4.099e-03 -9.257e-03 -4.076e-03
343 1 1.776e+00 -3.540e+00 -1.779e+00 -1.999e-03 7.837e-03 -9.229e-03
344 1 1.777e+00 3.540e+00 -1.779e+00 -1.744e-03 1.262e-03 -3.738e-03
345 1 -3.523e+00 -1.759e+00 1.760e+00 -1.046e-02 1.340e-03 -2.409e-02
346 1 -3.521e+00 1.761e+00 1.759e+00 1.276e-02 7.007e-03 -1.206e-02
347 1 -1.760e+00 -1.764e+00 3.521e+00 6.917e-03 -4.759e-03 2.501e-04
348 1 -1.759e+00 1.762e+00 3.520e+00 5.258e-03 1.501e-02 -3.204e-03
349 1 1.776e+00 3.540e+00 1.760e+00 -2.699e-03 2.634e-03 -7.864e-03
350 1 -1.760e+00 -3.535e+00 -1.777e+00 -5.011e-03 -2.952e-03 -1.155e-02
351 1 1.776e+00 -3.538e+00 1.759e+00 -2.823e-03 9.501e-03 -1.313e-02
352 1 -1.761e+00 3.538e+00 -1.775e+00 -2.988e-03 6.458e-03 -1.152e-02
353 1 1.775e+00 1.768e+00 3.531e+00 -1.094e-03 5.804e-03 -4.802e-03
354 1 -3.528e+00 -1.769e+00 -1.777e+00 -4.840e-03 4.117e-03 -1.598e-02
355 1 -3.527e+00 1.767e+00 -1.778e+00 -3.250e-03 -3.106e-03 -5.623e-03
356 1 1.776e+00 -1.769e+00 3.527e+00 -3.606e-03 1.213e-04 -9.082e-03
357 1 4.314e-04 -1.222e-04 3.523e+00 2.126e-02 6.950e-03 1.191e-02
358 1 -3.521e+00 9.511e-04 -1.755e-03 -7.613e-03 5.123e-04 -2.260e-02
359 1 -1.762e+00 -3.550e+00 1.760e+00 4.938e-03 1.105e-02 -1.186e-02
360 1 -1.761e+00 3.548e+00 1.762e+00 -3.747e-03 -9.920e-03 -2.444e-03
361 1 7.125e-03 3.536e+00 -7.590e-03 -1.280e-03 1.320e-02 -1.065e-02
362 1 8.362e-03 -3.539e+00 -6.370e-03 -4.983e-03 -5.688e-03 -9.520e-03
363 1 3.550e+00 -6.790e-05 -1.137e-02 -3.706e-04 5.945e-03 -2.512e-03
364 1 1.280e-02 -7.074e-05 -3.548e+00 -6.382e-03 3.282e-03 -2.049e-02
365 1 2.008e-03 2.631e-04 -8.114e-04 -1.735e+00 -4.362e-04 1.738e+00
366 1 8.410e-04 1.761e+00 1.761e+00 2.373e-02 5.533e-03 -3.201e-02
367 1 -1.761e+00 -1.760e+00 -1.213e-03 -3.238e-03 4.528e-03 -1.098e-02
368 1 -1.762e+00 1.760e+00 6.834e-04 -5.075e-03 4.246e-03 -1.685e-02
369 1 8.645e-04 -1.759e+00 1.760e+00 1.398e-02 1.127e-02 -1.335e-02
370 1 1.789e+00 -2.266e-04 1.761e+00 -7.004e-03 -2.279e-03 -1.861e-02
371 1 -1.762e+00 5.147e-04 -1.788e+00 1.036e-03 3.507e-03 3.860e-03
372 1 1.777e+00 1.768e+00 -5.964e-03 2.985e-03 -4.164e-03 -1.031e-02
373 1 7.881e-03 -1.768e+00 -1.778e+00 7.932e-03 3.635e-03 5.732e-03
374 1 1.778e+00 -1.768e+00 -8.175e-03 7.550e-03 9.635e-03 -1.660e-02
375 1 7.186e-03 1.768e+00 -1.778e+00 -3.613e-03 -4.944e-03 -5.523e-03
376 1 1.775e+00 7.714e-04 -1.776e+00 1.157e-03 1.754e-02 -5.670e-03
ITEM: TIMESTEP
0
ITEM: NUMBER OF ATOMS
47
ITEM: BOX BOUNDS xy xz yz pp pp pp
                     0.00000000000000e+00 1.06200000000000e+01 0.00000000000000e+00
0.00000000000000e+00	1.06200000000000e+01	0.00000000000000e+00
0.00000000000000e+00	1.06200000000000e+01	0.00000000000000e+00
ITEM: ATOMS id type x y z DisplacementX DisplacementY DisplacementZ
377 1 -3.520e+00 3.523e+00 7.699e-05 -6.630e-03 -1.415e-04 -5.203e-03
378 1 3.550e+00 1.761e+00 -1.772e+00 3.218e-04 -6.560e-03 8.621e-03
379 1 -1.761e+00 -3.549e+00 1.771e+00 8.863e-03 -5.023e-03 1.823e-03
380 1 -1.761e+00 -3.550e+00 -1.772e+00 3.908e-03 -6.466e-03 1.109e-02
381 1 3.550e+00 1.760e+00 1.771e+00 -2.787e-03 -1.092e-02 1.432e-03
382 1 6.128e-03 3.528e+00 -3.538e+00 -4.709e-04 -1.150e-02 9.494e-03
383 1 -3.529e+00 -5.078e-03 3.538e+00 -1.920e-03 -9.310e-03 3.159e-03
384 1 -3.528e+00 -8.623e-03 -3.537e+00 -8.236e-04 -1.440e-02 1.038e-02
385 1 6.633e-03 3.529e+00 3.539e+00 -1.444e-03 -9.262e-03 4.700e-03
386 1 1.780e+00 -3.551e+00 1.770e+00 -1.489e-03 -8.622e-03 4.098e-03
387 1 1.776e+00 -3.549e+00 -1.771e+00 1.816e-02 -5.647e-03 -7.604e-04
388 1 3.550e+00 -1.780e+00 1.771e+00 -2.153e-03 -9.076e-03 2.226e-03
389 1 3.548e+00 -1.778e+00 -1.769e+00 7.938e-03 -1.108e-02 -1.787e-03