ITEM: TIMESTEP
0
ITEM: NUMBER OF ATOMS
107
ITEM: BOX BOUNDS xy xz yz pp pp pp
                     0.00000000000000e+00 1.06000000000000e+01 0.00000000000000e+00
0.00000000000000e+00	1.06000000000000e+01	0.00000000000000e+00
0.00000000000000e+00	1.06000000000000e+01	0.00000000000000e+00
ITEM: ATOMS id type x y z DisplacementX DisplacementY DisplacementZ
1 1 3.541e-01 3.523e-01 3.542e-01 1.132e-02 -3.158e-02 -9.399e-02
2 1 2.122e+00 2.123e+00 3.545e-01 1.030e-02 -3.134e-02 -9.389e-02
3 1 2.123e+00 3.521e-01 2.126e+00 1.008e-02 -3.221e-02 -9.335e-02
4 1 3.533e-01 2.122e+00 2.124e+00 1.173e-02 -2.994e-02 -9.410e-02
5 1 3.895e+00 3.540e-01 3.553e-01 1.084e-02 -3.130e-02 -9.424e-02
6 1 5.664e+00 2.124e+00 3.542e-01 1.088e-02 -3.115e-02 -9.499e-02
7 1 5.667e+00 3.516e-01 2.127e+00 1.169e-02 -3.047e-02 -9.537e-02
8 1 3.897e+00 2.123e+00 2.125e+00 1.036e-02 -3.153e-02 -9.465e-02
9 1 7.434e+00 3.492e-01 3.561e-01 1.619e-02 -2.938e-02 -9.642e-02
10 1 9.203e+00 2.124e+00 3.555e-01 1.146e-02 -3.034e-02 -9.460e-02
11 1 9.202e+00 3.526e-01 2.127e+00 1.364e-02 -3.051e-02 -9.502e-02
12 1 7.433e+00 2.122e+00 2.121e+00 8.118e-03 -3.562e-02 -9.301e-02
13 1 3.511e-01 3.894e+00 3.547e-01 1.044e-02 -3.018e-02 -9.389e-02
14 1 2.122e+00 3.895e+00 2.125e+00 9.058e-03 -3.135e-02 -9.297e-02
15 1 3.894e+00 3.894e+00 3.543e-01 9.619e-03 -3.101e-02 -9.328e-02
16 1 5.666e+00 3.897e+00 2.127e+00 1.126e-02 -3.025e-02 -9.464e-02
17 1 7.433e+00 3.898e+00 3.564e-01 1.089e-02 -2.608e-02 -9.296e-02
18 1 9.200e+00 3.898e+00 2.127e+00 1.245e-02 -2.798e-02 -9.525e-02
19 1 3.504e-01 3.505e-01 3.894e+00 9.279e-03 -3.533e-02 -9.509e-02
20 1 2.124e+00 2.125e+00 3.894e+00 1.015e-02 -3.123e-02 -9.440e-02
21 1 3.898e+00 3.512e-01 3.893e+00 1.358e-02 -2.706e-02 -9.458e-02
22 1 5.662e+00 2.125e+00 3.894e+00 8.945e-03 -3.654e-02 -9.363e-02
23 1 7.435e+00 3.619e-01 3.896e+00 5.669e-03 -2.967e-02 -8.654e-02
24 1 9.206e+00 2.124e+00 3.893e+00 1.313e-02 -2.617e-02 -9.117e-02
25 1 3.513e-01 3.898e+00 3.896e+00 8.817e-03 -3.351e-02 -9.416e-02
26 1 3.897e+00 3.898e+00 3.896e+00 9.332e-03 -2.972e-02 -9.071e-02
27 1 7.433e+00 3.883e+00 3.893e+00 2.228e-02 -2.799e-02 -1.051e-01
28 1 2.124e+00 3.538e-01 5.664e+00 9.184e-03 -3.164e-02 -9.321e-02
29 1 3.527e-01 2.124e+00 5.662e+00 1.094e-02 -3.090e-02 -9.375e-02
30 1 5.665e+00 3.518e-01 5.663e+00 1.263e-02 -2.942e-02 -9.547e-02
31 1 3.896e+00 2.125e+00 5.662e+00 1.122e-02 -3.087e-02 -9.449e-02
32 1 9.202e+00 3.521e-01 5.661e+00 1.137e-02 -2.966e-02 -9.425e-02
33 1 7.435e+00 2.124e+00 5.666e+00 1.371e-02 -2.730e-02 -9.391e-02
34 1 2.125e+00 3.897e+00 5.664e+00 1.005e-02 -3.234e-02 -9.329e-02
35 1 5.665e+00 3.898e+00 5.661e+00 1.316e-02 -2.947e-02 -9.441e-02
36 1 9.201e+00 3.896e+00 5.664e+00 1.071e-02 -3.372e-02 -9.448e-02
37 1 3.522e-01 3.519e-01 7.432e+00 9.341e-03 -3.172e-02 -9.353e-02
38 1 2.125e+00 2.124e+00 7.435e+00 1.050e-02 -3.119e-02 -9.382e-02
39 1 2.124e+00 3.524e-01 9.205e+00 1.027e-02 -3.138e-02 -9.378e-02
40 1 3.538e-01 2.126e+00 9.204e+00 1.075e-02 -3.093e-02 -9.385e-02
41 1 3.896e+00 3.531e-01 7.432e+00 1.087e-02 -3.032e-02 -9.431e-02
42 1 5.665e+00 2.123e+00 7.434e+00 1.202e-02 -2.998e-02 -9.473e-02
43 1 5.665e+00 3.517e-01 9.204e+00 1.116e-02 -3.069e-02 -9.477e-02
44 1 3.896e+00 2.123e+00 9.204e+00 1.054e-02 -3.124e-02 -9.410e-02
45 1 7.434e+00 3.515e-01 7.429e+00 9.969e-03 -3.063e-02 -9.595e-02
46 1 9.203e+00 2.124e+00 7.432e+00 1.148e-02 -3.075e-02 -9.439e-02
47 1 9.204e+00 3.544e-01 9.205e+00 1.078e-02 -3.112e-02 -9.403e-02
48 1 7.433e+00 2.124e+00 9.205e+00 1.166e-02 -3.006e-02 -9.499e-02
49 1 3.517e-01 3.895e+00 7.433e+00 1.052e-02 -3.232e-02 -9.403e-02
50 1 2.125e+00 3.893e+00 9.203e+00 1.025e-02 -3.135e-02 -9.368e-02
51 1 3.895e+00 3.892e+00 7.433e+00 1.057e-02 -3.148e-02 -9.337e-02
52 1 5.662e+00 3.895e+00 9.204e+00 1.039e-02 -3.098e-02 -9.356e-02
53 1 7.434e+00 3.896e+00 7.431e+00 9.912e-03 -3.478e-02 -9.319e-02
54 1 9.203e+00 3.894e+00 9.205e+00 1.130e-02 -3.054e-02 -9.432e-02
55 1 2.125e+00 5.664e+00 3.551e-01 8.691e-03 -3.176e-02 -9.288e-02
56 1 3.510e-01 5.665e+00 2.125e+00 7.141e-03 -3.163e-02 -9.256e-02
57 1 5.667e+00 5.666e+00 3.545e-01 8.829e-03 -2.985e-02 -9.195e-02
58 1 3.897e+00 5.666e+00 2.126e+00 8.158e-03 -3.043e-02 -8.972e-02
59 1 9.202e+00 5.664e+00 3.561e-01 1.234e-02 -2.874e-02 -9.322e-02
60 1 7.433e+00 5.674e+00 2.136e+00 1.636e-01 -7.820e-03 9.333e-02
61 1 3.493e-01 7.433e+00 3.567e-01 1.161e-02 -3.130e-02 -9.429e-02
62 1 2.124e+00 9.203e+00 3.555e-01 9.548e-03 -3.252e-02 -9.314e-02
63 1 2.122e+00 7.434e+00 2.123e+00 7.574e-03 -3.577e-02 -9.261e-02
64 1 3.506e-01 9.203e+00 2.126e+00 9.162e-03 -3.546e-02 -9.312e-02
65 1 3.899e+00 7.433e+00 3.572e-01 1.074e-02 -2.748e-02 -9.106e-02
66 1 5.666e+00 9.201e+00 3.566e-01 1.285e-02 -3.045e-02 -9.443e-02
67 1 5.673e+00 7.434e+00 2.133e+00 4.439e-01 4.546e-01 -3.744e-02
68 1 3.896e+00 9.202e+00 2.124e+00 1.067e-02 -3.100e-02 -9.161e-02
69 1 7.434e+00 7.434e+00 3.460e-01 -2.812e-03 -4.810e-02 -9.407e-02
70 1 9.201e+00 9.203e+00 3.564e-01 1.302e-02 -3.030e-02 -9.450e-02
71 1 9.195e+00 7.435e+00 2.134e+00 -5.053e-02 -3.461e-02 -1.737e-01
72 1 7.436e+00 9.196e+00 2.133e+00 4.332e-02 2.509e-01 -1.162e-01
73 1 2.123e+00 5.661e+00 3.893e+00 1.217e-02 -3.164e-02 -9.393e-02
74 1 5.672e+00 5.673e+00 3.894e+00 1.584e-01 2.850e-01 5.548e-02
75 1 9.195e+00 5.673e+00 3.893e+00 -2.221e-01 -3.174e-01 1.406e-02
76 1 3.631e-01 7.434e+00 3.895e+00 1.481e-02 -1.307e-02 -8.050e-02
77 1 2.125e+00 9.205e+00 3.894e+00 8.296e-03 -3.242e-02 -9.019e-02
78 1 3.885e+00 7.434e+00 3.894e+00 -1.196e-03 -5.488e-02 -9.750e-02
79 1 5.673e+00 9.193e+00 3.895e+00 1.219e-01 9.961e-02 -4.154e-03
80 1 9.196e+00 9.195e+00 3.893e+00 5.531e-02 -9.592e-02 -3.708e-01
81 1 3.512e-01 5.664e+00 5.662e+00 9.823e-03 -3.451e-02 -9.275e-02
82 1 3.897e+00 5.665e+00 5.663e+00 8.421e-03 -3.375e-02 -9.096e-02
83 1 7.435e+00 5.674e+00 5.653e+00 -4.344e-01 -1.556e-01 6.026e-03
84 1 2.125e+00 7.435e+00 5.666e+00 1.293e-02 -2.714e-02 -9.147e-02
85 1 3.515e-01 9.203e+00 5.662e+00 4.886e-03 -3.542e-02 -9.280e-02
86 1 5.674e+00 7.434e+00 5.654e+00 -7.789e-02 -4.614e-02 -5.438e-03
87 1 3.896e+00 9.202e+00 5.662e+00 1.070e-02 -2.868e-02 -9.141e-02
88 1 9.195e+00 7.434e+00 5.654e+00 -8.570e-02 -2.253e-01 -2.749e-01
89 1 7.433e+00 9.194e+00 5.655e+00 -9.501e-02 -4.709e-01 -2.376e-01
90 1 2.124e+00 5.667e+00 7.434e+00 9.906e-03 -3.216e-02 -9.285e-02
91 1 3.533e-01 5.664e+00 9.202e+00 1.053e-02 -3.085e-02 -9.348e-02
92 1 5.665e+00 5.666e+00 7.432e+00 1.063e-02 -3.238e-02 -9.259e-02
93 1 3.894e+00 5.664e+00 9.206e+00 9.700e-03 -3.175e-02 -9.328e-02
94 1 9.202e+00 5.666e+00 7.430e+00 9.605e-03 -3.278e-02 -9.472e-02
95 1 7.434e+00 5.663e+00 9.205e+00 1.307e-02 -3.098e-02 -9.562e-02
96 1 3.515e-01 7.434e+00 7.431e+00 5.081e-03 -3.875e-02 -9.400e-02
97 1 2.124e+00 9.204e+00 7.434e+00 9.253e-03 -3.146e-02 -9.283e-02
98 1 2.124e+00 7.434e+00 9.204e+00 9.258e-03 -3.195e-02 -9.358e-02
99 1 3.531e-01 9.203e+00 9.203e+00 1.065e-02 -3.090e-02 -9.321e-02
100 1 3.897e+00 7.433e+00 7.430e+00 9.993e-03 -3.035e-02 -9.219e-02
101 1 5.666e+00 9.202e+00 7.431e+00 1.037e-02 -2.980e-02 -9.545e-02
102 1 5.662e+00 7.435e+00 9.206e+00 9.152e-03 -3.656e-02 -9.489e-02
103 1 3.893e+00 9.204e+00 9.205e+00 1.019e-02 -3.175e-02 -9.471e-02
104 1 7.434e+00 7.434e+00 7.443e+00 2.510e-02 -1.226e-02 -9.334e-02
105 1 9.202e+00 9.203e+00 7.432e+00 8.643e-03 -3.283e-02 -9.346e-02
106 1 9.207e+00 7.434e+00 9.205e+00 1.232e-02 -2.583e-02 -9.055e-02
107 1 7.433e+00 9.206e+00 9.205e+00 8.196e-03 -3.189e-02 -9.048e-02
ITEM: TIMESTEP
0
ITEM: NUMBER OF ATOMS
107
ITEM: BOX BOUNDS xy xz yz pp pp pp
                     0.00000000000000e+00 1.06000000000000e+01 0.00000000000000e+00
0.00000000000000e+00	1.06000000000000e+01	0.00000000000000e+00
0.00000000000000e+00	1.06000000000000e+01	0.00000000000000e+00
ITEM: ATOMS id type x y z DisplacementX DisplacementY DisplacementZ
1 1 3.541e-01 3.523e-01 3.542e-01 1.872e-01 -3.619e-02 1.876e-01
2 1 2.122e+00 2.123e+00 3.545e-01 1.880e-01 -3.627e-02 1.869e-01
3 1 2.123e+00 3.521e-01 2.126e+00 1.874e-01 -3.619e-02 1.871e-01
4 1 3.533e-01 2.122e+00 2.124e+00 1.887e-01 -3.669e-02 1.872e-01
5 1 3.895e+00 3.540e-01 3.553e-01 1.882e-01 -3.639e-02 1.863e-01
6 1 5.664e+00 2.124e+00 3.542e-01 1.885e-01 -3.636e-02 1.869e-01
7 1 5.667e+00 3.516e-01 2.127e+00 1.895e-01 -3.626e-02 1.872e-01
8 1 3.897e+00 2.123e+00 2.125e+00 1.880e-01 -3.601e-02 1.872e-01
9 1 7.434e+00 3.492e-01 3.561e-01 1.880e-01 -3.658e-02 1.870e-01
10 1 9.203e+00 2.124e+00 3.555e-01 1.883e-01 -3.626e-02 1.873e-01
11 1 9.202e+00 3.526e-01 2.127e+00 1.886e-01 -3.650e-02 1.890e-01
12 1 7.433e+00 2.122e+00 2.121e+00 1.877e-01 -3.511e-02 1.893e-01
13 1 3.511e-01 3.894e+00 3.547e-01 1.882e-01 -3.542e-02 1.865e-01
14 1 2.122e+00 3.895e+00 2.125e+00 1.882e-01 -3.630e-02 1.870e-01
15 1 3.894e+00 3.894e+00 3.543e-01 1.883e-01 -3.698e-02 1.869e-01
16 1 5.666e+00 3.897e+00 2.127e+00 1.893e-01 -3.761e-02 1.872e-01
17 1 7.433e+00 3.898e+00 3.564e-01 1.894e-01 -3.579e-02 1.855e-01
18 1 9.200e+00 3.898e+00 2.127e+00 1.883e-01 -3.468e-02 1.872e-01
19 1 3.504e-01 3.505e-01 3.894e+00 1.838e-01 -3.456e-02 1.896e-01
20 1 2.124e+00 2.125e+00 3.894e+00 1.882e-01 -3.663e-02 1.867e-01
21 1 3.898e+00 3.512e-01 3.893e+00 1.924e-01 -3.924e-02 1.859e-01
22 1 5.662e+00 2.125e+00 3.894e+00 1.822e-01 -3.012e-02 1.897e-01
23 1 7.435e+00 3.619e-01 3.896e+00 1.891e-01 -3.104e-02 1.876e-01
24 1 9.206e+00 2.124e+00 3.893e+00 1.938e-01 -4.116e-02 1.866e-01
25 1 3.513e-01 3.898e+00 3.896e+00 1.856e-01 -3.095e-02 1.868e-01
26 1 3.897e+00 3.898e+00 3.896e+00 1.907e-01 -4.042e-02 1.871e-01
27 1 7.433e+00 3.883e+00 3.893e+00 1.913e-01 -4.027e-02 1.909e-01
28 1 2.124e+00 3.538e-01 5.664e+00 1.877e-01 -3.613e-02 1.870e-01
29 1 3.527e-01 2.124e+00 5.662e+00 1.887e-01 -3.698e-02 1.870e-01
30 1 5.665e+00 3.518e-01 5.663e+00 1.898e-01 -3.645e-02 1.875e-01
31 1 3.896e+00 2.125e+00 5.662e+00 1.882e-01 -3.575e-02 1.872e-01
32 1 9.202e+00 3.521e-01 5.661e+00 1.897e-01 -3.731e-02 1.872e-01
33 1 7.435e+00 2.124e+00 5.666e+00 1.888e-01 -3.499e-02 1.870e-01
34 1 2.125e+00 3.897e+00 5.664e+00 1.877e-01 -3.672e-02 1.869e-01
35 1 5.665e+00 3.898e+00 5.661e+00 1.892e-01 -3.579e-02 1.878e-01
36 1 9.201e+00 3.896e+00 5.664e+00 1.875e-01 -3.511e-02 1.879e-01
37 1 3.522e-01 3.519e-01 7.432e+00 1.875e-01 -3.635e-02 1.871e-01
38 1 2.125e+00 2.124e+00 7.435e+00 1.880e-01 -3.631e-02 1.868e-01
39 1 2.124e+00 3.524e-01 9.205e+00 1.878e-01 -3.621e-02 1.868e-01
40 1 3.538e-01 2.126e+00 9.204e+00 1.881e-01 -3.647e-02 1.868e-01
41 1 3.896e+00 3.531e-01 7.432e+00 1.887e-01 -3.612e-02 1.866e-01
42 1 5.665e+00 2.123e+00 7.434e+00 1.887e-01 -3.619e-02 1.869e-01
43 1 5.665e+00 3.517e-01 9.204e+00 1.882e-01 -3.586e-02 1.861e-01
44 1 3.896e+00 2.123e+00 9.204e+00 1.879e-01 -3.615e-02 1.868e-01
45 1 7.434e+00 3.515e-01 7.429e+00 1.893e-01 -3.633e-02 1.875e-01
46 1 9.203e+00 2.124e+00 7.432e+00 1.887e-01 -3.662e-02 1.867e-01
47 1 9.204e+00 3.544e-01 9.205e+00 1.870e-01 -3.613e-02 1.872e-01
48 1 7.433e+00 2.124e+00 9.205e+00 1.884e-01 -3.675e-02 1.864e-01
49 1 3.517e-01 3.895e+00 7.433e+00 1.877e-01 -3.607e-02 1.867e-01
50 1 2.125e+00 3.893e+00 9.203e+00 1.879e-01 -3.632e-02 1.868e-01
51 1 3.895e+00 3.892e+00 7.433e+00 1.878e-01 -3.664e-02 1.871e-01
52 1 5.662e+00 3.895e+00 9.204e+00 1.879e-01 -3.664e-02 1.870e-01
53 1 7.434e+00 3.896e+00 7.431e+00 1.869e-01 -3.576e-02 1.880e-01
54 1 9.203e+00 3.894e+00 9.205e+00 1.884e-01 -3.596e-02 1.864e-01
55 1 2.125e+00 5.664e+00 3.551e-01 1.877e-01 -3.606e-02 1.869e-01
56 1 3.510e-01 5.665e+00 2.125e+00 1.868e-01 -3.290e-02 1.869e-01
57 1 5.667e+00 5.666e+00 3.545e-01 1.878e-01 -3.686e-02 1.866e-01
58 1 3.897e+00 5.666e+00 2.126e+00 1.894e-01 -3.855e-02 1.877e-01
59 1 9.202e+00 5.664e+00 3.561e-01 1.885e-01 -3.439e-02 1.863e-01
60 1 7.433e+00 5.674e+00 2.136e+00 7.064e-02 3.912e-02 9.651e-02
61 1 3.493e-01 7.433e+00 3.567e-01 1.842e-01 -3.125e-02 1.874e-01
62 1 2.124e+00 9.203e+00 3.555e-01 1.870e-01 -3.618e-02 1.872e-01
63 1 2.122e+00 7.434e+00 2.123e+00 1.865e-01 -3.591e-02 1.890e-01
64 1 3.506e-01 9.203e+00 2.126e+00 1.839e-01 -3.457e-02 1.889e-01
65 1 3.899e+00 7.433e+00 3.572e-01 1.912e-01 -4.060e-02 1.848e-01
66 1 5.666e+00 9.201e+00 3.566e-01 1.883e-01 -3.645e-02 1.852e-01
67 1 5.673e+00 7.434e+00 2.133e+00 4.546e-01 -3.402e-01 4.315e-02
68 1 3.896e+00 9.202e+00 2.124e+00 1.888e-01 -3.772e-02 1.866e-01
69 1 7.434e+00 7.434e+00 3.460e-01 1.842e-01 -3.441e-02 1.934e-01
70 1 9.201e+00 9.203e+00 3.564e-01 1.864e-01 -3.563e-02 1.873e-01
71 1 9.195e+00 7.435e+00 2.134e+00 -8.172e-02 1.619e-01 1.724e-01
72 1 7.436e+00 9.196e+00 2.133e+00 3.005e-01 -1.434e-01 7.987e-02
73 1 2.123e+00 5.661e+00 3.893e+00 1.874e-01 -3.667e-02 1.888e-01
74 1 5.672e+00 5.673e+00 3.894e+00 4.460e-01 -2.456e-01 -6.683e-02
75 1 9.195e+00 5.673e+00 3.893e+00 -1.962e-01 2.879e-01 3.250e-01
76 1 3.631e-01 7.434e+00 3.895e+00 2.106e-01 -6.228e-02 1.822e-01
77 1 2.125e+00 9.205e+00 3.894e+00 1.883e-01 -3.494e-02 1.871e-01
78 1 3.885e+00 7.434e+00 3.894e+00 1.617e-01 -9.468e-03 1.947e-01
79 1 5.673e+00 9.193e+00 3.895e+00 4.010e-01 -5.025e-01 1.528e-01
80 1 9.196e+00 9.195e+00 3.893e+00 3.485e-02 2.959e-01 1.752e-01
81 1 3.512e-01 5.664e+00 5.662e+00 1.869e-01 -3.459e-02 1.872e-01
82 1 3.897e+00 5.665e+00 5.663e+00 1.869e-01 -3.804e-02 1.875e-01
83 1 7.435e+00 5.674e+00 5.653e+00 1.494e-01 1.166e-01 1.864e-01
84 1 2.125e+00 7.435e+00 5.666e+00 1.883e-01 -3.477e-02 1.872e-01
85 1 3.515e-01 9.203e+00 5.662e+00 1.849e-01 -3.484e-02 1.875e-01
86 1 5.674e+00 7.434e+00 5.654e+00 4.066e-01 -3.935e-01 1.594e-01
87 1 3.896e+00 9.202e+00 5.662e+00 1.897e-01 -3.748e-02 1.871e-01
88 1 9.195e+00 7.434e+00 5.654e+00 1.755e-02 3.989e-01 3.477e-01
89 1 7.433e+00 9.194e+00 5.655e+00 7.797e-02 -9.855e-02 3.059e-01
90 1 2.124e+00 5.667e+00 7.434e+00 1.874e-01 -3.633e-02 1.868e-01
91 1 3.533e-01 5.664e+00 9.202e+00 1.880e-01 -3.638e-02 1.864e-01
92 1 5.665e+00 5.666e+00 7.432e+00 1.873e-01 -3.718e-02 1.879e-01
93 1 3.894e+00 5.664e+00 9.206e+00 1.872e-01 -3.606e-02 1.869e-01
94 1 9.202e+00 5.666e+00 7.430e+00 1.864e-01 -3.492e-02 1.863e-01
95 1 7.434e+00 5.663e+00 9.205e+00 1.883e-01 -3.505e-02 1.885e-01
96 1 3.515e-01 7.434e+00 7.431e+00 1.829e-01 -3.317e-02 1.882e-01
97 1 2.124e+00 9.204e+00 7.434e+00 1.874e-01 -3.622e-02 1.868e-01
98 1 2.124e+00 7.434e+00 9.204e+00 1.873e-01 -3.650e-02 1.862e-01
99 1 3.531e-01 9.203e+00 9.203e+00 1.876e-01 -3.663e-02 1.871e-01
100 1 3.897e+00 7.433e+00 7.430e+00 1.905e-01 -3.911e-02 1.868e-01
101 1 5.666e+00 9.202e+00 7.431e+00 1.894e-01 -3.452e-02 1.860e-01
102 1 5.662e+00 7.435e+00 9.206e+00 1.815e-01 -2.901e-02 1.894e-01
103 1 3.893e+00 9.204e+00 9.205e+00 1.876e-01 -3.538e-02 1.860e-01
104 1 7.434e+00 7.434e+00 7.443e+00 1.901e-01 -3.474e-02 1.812e-01
105 1 9.202e+00 9.203e+00 7.432e+00 1.863e-01 -3.536e-02 1.883e-01
106 1 9.207e+00 7.434e+00 9.205e+00 1.940e-01 -4.162e-02 1.863e-01
107 1 7.433e+00 9.206e+00 9.205e+00 1.869e-01 -3.468e-02 1.877e-01
ITEM: TIMESTEP
0
ITEM: NUMBER OF ATOMS
107
ITEM: BOX BOUNDS xy xz yz pp pp pp
                     0.00000000000000e+00 1.06000000000000e+01 0.00000000000000e+00
0.00000000000000e+00	1.06000000000000e+01	0.00000000000000e+00
0.00000000000000e+00	1.06000000000000e+01	0.00000000000000e+00
ITEM: ATOMS id type x y z DisplacementX DisplacementY DisplacementZ
1 1 3.541e-01 3.523e-01 3.542e-01 -2.893e-02 1.094e-01 -2.400e-03
2 1 2.122e+00 2.123e+00 3.545e-01 -2.935e-02 1.091e-01 -1.968e-03
3 1 2.123e+00 3.521e-01 2.126e+00 -2.910e-02 1.085e-01 -1.938e-03
4 1 3.533e-01 2.122e+00 2.124e+00 -2.964e-02 1.099e-01 -6.551e-04
5 1 3.895e+00 3.540e-01 3.553e-01 -2.886e-02 1.084e-01 -1.925e-03
6 1 5.664e+00 2.124e+00 3.542e-01 -2.933e-02 1.095e-01 -1.439e-03
7 1 5.667e+00 3.516e-01 2.127e+00 -2.835e-02 1.096e-01 -7.937e-04
8 1 3.897e+00 2.123e+00 2.125e+00 -2.942e-02 1.092e-01 -1.853e-03
9 1 7.434e+00 3.492e-01 3.561e-01 -2.689e-02 1.087e-01 -2.737e-03
10 1 9.203e+00 2.124e+00 3.555e-01 -2.958e-02 1.100e-01 -1.253e-03
11 1 9.202e+00 3.526e-01 2.127e+00 -2.821e-02 1.106e-01 -2.002e-03
12 1 7.433e+00 2.122e+00 2.121e+00 -3.142e-02 1.106e-01 -2.333e-03
13 1 3.511e-01 3.894e+00 3.547e-01 -2.970e-02 1.097e-01 -2.201e-03
14 1 2.122e+00 3.895e+00 2.125e+00 -2.910e-02 1.089e-01 -2.008e-03
15 1 3.894e+00 3.894e+00 3.543e-01 -2.912e-02 1.087e-01 -1.779e-03
16 1 5.666e+00 3.897e+00 2.127e+00 -3.011e-02 1.089e-01 6.281e-06
17 1 7.433e+00 3.898e+00 3.564e-01 -2.969e-02 1.100e-01 -1.058e-03
18 1 9.200e+00 3.898e+00 2.127e+00 -3.130e-02 1.114e-01 1.948e-04
19 1 3.504e-01 3.505e-01 3.894e+00 -3.021e-02 1.106e-01 -4.776e-03
20 1 2.124e+00 2.125e+00 3.894e+00 -2.953e-02 1.092e-01 -1.202e-03
21 1 3.898e+00 3.512e-01 3.893e+00 -2.838e-02 1.083e-01 9.793e-04
22 1 5.662e+00 2.125e+00 3.894e+00 -3.159e-02 1.100e-01 -6.508e-03
23 1 7.435e+00 3.619e-01 3.896e+00 -3.191e-02 1.117e-01 4.827e-03
24 1 9.206e+00 2.124e+00 3.893e+00 -2.753e-02 1.088e-01 2.105e-03
25 1 3.513e-01 3.898e+00 3.896e+00 -3.134e-02 1.091e-01 -3.113e-03
26 1 3.897e+00 3.898e+00 3.896e+00 -2.843e-02 1.089e-01 1.336e-03
27 1 7.433e+00 3.883e+00 3.893e+00 -2.861e-02 1.117e-01 -2.435e-03
28 1 2.124e+00 3.538e-01 5.664e+00 -2.998e-02 1.087e-01 -2.222e-03
29 1 3.527e-01 2.124e+00 5.662e+00 -2.966e-02 1.092e-01 -8.632e-04
30 1 5.665e+00 3.518e-01 5.663e+00 -2.986e-02 1.112e-01 -1.012e-03
31 1 3.896e+00 2.125e+00 5.662e+00 -2.967e-02 1.101e-01 -1.508e-03
32 1 9.202e+00 3.521e-01 5.661e+00 -3.061e-02 1.106e-01 7.912e-04
33 1 7.435e+00 2.124e+00 5.666e+00 -2.822e-02 1.086e-01 -2.828e-03
34 1 2.125e+00 3.897e+00 5.664e+00 -2.889e-02 1.086e-01 -2.042e-03
35 1 5.665e+00 3.898e+00 5.661e+00 -2.982e-02 1.118e-01 1.026e-04
36 1 9.201e+00 3.896e+00 5.664e+00 -3.053e-02 1.082e-01 -2.065e-03
37 1 3.522e-01 3.519e-01 7.432e+00 -2.999e-02 1.093e-01 -2.241e-03
38 1 2.125e+00 2.124e+00 7.435e+00 -2.938e-02 1.091e-01 -1.979e-03
39 1 2.124e+00 3.524e-01 9.205e+00 -2.933e-02 1.090e-01 -2.224e-03
40 1 3.538e-01 2.126e+00 9.204e+00 -2.935e-02 1.092e-01 -1.852e-03
41 1 3.896e+00 3.531e-01 7.432e+00 -2.974e-02 1.093e-01 -1.958e-03
42 1 5.665e+00 2.123e+00 7.434e+00 -2.957e-02 1.102e-01 -1.385e-03
43 1 5.665e+00 3.517e-01 9.204e+00 -2.950e-02 1.087e-01 -2.347e-03
44 1 3.896e+00 2.123e+00 9.204e+00 -2.929e-02 1.092e-01 -2.158e-03
45 1 7.434e+00 3.515e-01 7.429e+00 -3.204e-02 1.113e-01 -1.684e-03
46 1 9.203e+00 2.124e+00 7.432e+00 -2.968e-02 1.093e-01 -1.238e-03
47 1 9.204e+00 3.544e-01 9.205e+00 -2.954e-02 1.095e-01 -2.469e-03
48 1 7.433e+00 2.124e+00 9.205e+00 -2.920e-02 1.097e-01 -1.286e-03
49 1 3.517e-01 3.895e+00 7.433e+00 -2.928e-02 1.084e-01 -2.143e-03
50 1 2.125e+00 3.893e+00 9.203e+00 -2.914e-02 1.090e-01 -2.247e-03
51 1 3.895e+00 3.892e+00 7.433e+00 -2.883e-02 1.097e-01 -2.003e-03
52 1 5.662e+00 3.895e+00 9.204e+00 -2.857e-02 1.094e-01 -2.553e-03
53 1 7.434e+00 3.896e+00 7.431e+00 -2.912e-02 1.097e-01 -1.420e-03
54 1 9.203e+00 3.894e+00 9.205e+00 -2.918e-02 1.094e-01 -2.473e-03
55 1 2.125e+00 5.664e+00 3.551e-01 -2.935e-02 1.086e-01 -2.496e-03
56 1 3.510e-01 5.665e+00 2.125e+00 -2.864e-02 1.090e-01 -3.930e-03
57 1 5.667e+00 5.666e+00 3.545e-01 -2.774e-02 1.086e-01 -2.841e-03
58 1 3.897e+00 5.666e+00 2.126e+00 -2.994e-02 1.080e-01 -6.578e-04
59 1 9.202e+00 5.664e+00 3.561e-01 -3.015e-02 1.102e-01 -4.423e-03
60 1 7.433e+00 5.674e+00 2.136e+00 1.667e-01 5.905e-02 2.857e-02
61 1 3.493e-01 7.433e+00 3.567e-01 -2.891e-02 1.107e-01 -6.542e-03
62 1 2.124e+00 9.203e+00 3.555e-01 -2.888e-02 1.085e-01 -2.561e-03
63 1 2.122e+00 7.434e+00 2.123e+00 -3.212e-02 1.098e-01 -3.091e-03
64 1 3.506e-01 9.203e+00 2.126e+00 -2.804e-02 1.086e-01 -4.738e-03
65 1 3.899e+00 7.433e+00 3.572e-01 -2.643e-02 1.052e-01 3.643e-04
66 1 5.666e+00 9.201e+00 3.566e-01 -2.857e-02 1.069e-01 -2.972e-03
67 1 5.673e+00 7.434e+00 2.133e+00 1.351e-01 1.665e-01 1.190e-01
68 1 3.896e+00 9.202e+00 2.124e+00 -2.822e-02 1.069e-01 -7.200e-04
69 1 7.434e+00 7.434e+00 3.460e-01 -3.762e-02 1.128e-01 -4.927e-03
70 1 9.201e+00 9.203e+00 3.564e-01 -2.894e-02 1.099e-01 -3.526e-03
71 1 9.195e+00 7.435e+00 2.134e+00 -3.910e-02 -9.900e-03 -8.324e-02
72 1 7.436e+00 9.196e+00 2.133e+00 -3.072e-02 3.208e-02 -2.550e-02
73 1 2.123e+00 5.661e+00 3.893e+00 -2.881e-02 1.097e-01 -3.301e-03
74 1 5.672e+00 5.673e+00 3.894e+00 -2.170e-03 1.570e-03 2.750e-01
75 1 9.195e+00 5.673e+00 3.893e+00 -9.112e-02 2.482e-01 -2.254e-01
76 1 3.631e-01 7.434e+00 3.895e+00 -2.023e-02 1.009e-01 1.554e-02
77 1 2.125e+00 9.205e+00 3.894e+00 -2.975e-02 1.079e-01 -1.783e-03
78 1 3.885e+00 7.434e+00 3.894e+00 -3.789e-02 1.136e-01 -2.199e-02
79 1 5.673e+00 9.193e+00 3.895e+00 1.272e-01 5.252e-02 1.402e-01
80 1 9.196e+00 9.195e+00 3.893e+00 -8.642e-02 7.005e-02 -2.557e-01
81 1 3.512e-01 5.664e+00 5.662e+00 -2.960e-02 1.072e-01 -2.908e-03
82 1 3.897e+00 5.665e+00 5.663e+00 -2.779e-02 1.082e-01 -2.628e-03
83 1 7.435e+00 5.674e+00 5.653e+00 -2.587e-01 1.431e-01 3.032e-02
84 1 2.125e+00 7.435e+00 5.666e+00 -2.790e-02 1.085e-01 -2.715e-03
85 1 3.515e-01 9.203e+00 5.662e+00 -3.089e-02 1.086e-01 -5.039e-03
86 1 5.674e+00 7.434e+00 5.654e+00 -1.157e-01 -1.393e-02 3.448e-01
87 1 3.896e+00 9.202e+00 5.662e+00 -3.030e-02 1.087e-01 -4.956e-04
88 1 9.195e+00 7.434e+00 5.654e+00 -1.766e-01 3.309e-01 -1.586e-01
89 1 7.433e+00 9.194e+00 5.655e+00 9.023e-02 1.306e-02 -1.438e-01
90 1 2.124e+00 5.667e+00 7.434e+00 -2.885e-02 1.083e-01 -2.646e-03
91 1 3.533e-01 5.664e+00 9.202e+00 -2.918e-02 1.090e-01 -2.575e-03
92 1 5.665e+00 5.666e+00 7.432e+00 -2.856e-02 1.099e-01 -3.157e-03
93 1 3.894e+00 5.664e+00 9.206e+00 -2.854e-02 1.090e-01 -2.989e-03
94 1 9.202e+00 5.666e+00 7.430e+00 -2.872e-02 1.083e-01 -2.629e-03
95 1 7.434e+00 5.663e+00 9.205e+00 -2.985e-02 1.098e-01 -4.266e-03
96 1 3.515e-01 7.434e+00 7.431e+00 -3.172e-02 1.081e-01 -5.280e-03
97 1 2.124e+00 9.204e+00 7.434e+00 -2.962e-02 1.086e-01 -2.666e-03
98 1 2.124e+00 7.434e+00 9.204e+00 -2.861e-02 1.083e-01 -2.801e-03
99 1 3.531e-01 9.203e+00 9.203e+00 -2.935e-02 1.090e-01 -2.334e-03
100 1 3.897e+00 7.433e+00 7.430e+00 -2.865e-02 1.095e-01 -1.174e-03
101 1 5.666e+00 9.202e+00 7.431e+00 -2.996e-02 1.096e-01 -3.472e-03
102 1 5.662e+00 7.435e+00 9.206e+00 -3.202e-02 1.111e-01 -7.598e-03
103 1 3.893e+00 9.204e+00 9.205e+00 -2.917e-02 1.086e-01 -3.363e-03
104 1 7.434e+00 7.434e+00 7.443e+00 -2.102e-02 1.058e-01 -5.569e-03
105 1 9.202e+00 9.203e+00 7.432e+00 -3.047e-02 1.095e-01 -4.100e-03
106 1 9.207e+00 7.434e+00 9.205e+00 -2.769e-02 1.076e-01 1.651e-03
107 1 7.433e+00 9.206e+00 9.205e+00 -2.968e-02 1.090e-01 -2.343e-03
ITEM: TIMESTEP
0
ITEM: NUMBER OF ATOMS
107
ITEM: BOX BOUNDS xy xz yz pp pp pp
                     0.00000000000000e+00 1.06000000000000e+01 0.00000000000000e+00
0.00000000000000e+00	1.06000000000000e+01	0.00000000000000e+00
0.00000000000000e+00	1.06000000000000e+01	0.00000000000000e+00
ITEM: ATOMS id type x y z DisplacementX DisplacementY DisplacementZ
1 1 3.541e-01 3.523e-01 3.542e-01 -1.484e-01 -5.896e-02 -1.617e-02
2 1 2.122e+00 2.123e+00 3.545e-01 -1.483e-01 -5.881e-02 -1.611e-02
3 1 2.123e+00 3.521e-01 2.126e+00 -1.489e-01 -5.808e-02 -1.585e-02
4 1 3.533e-01 2.122e+00 2.124e+00 -1.478e-01 -5.993e-02 -1.652e-02
5 1 3.895e+00 3.540e-01 3.553e-01 -1.478e-01 -5.976e-02 -1.626e-02
6 1 5.664e+00 2.124e+00 3.542e-01 -1.467e-01 -5.999e-02 -1.677e-02
7 1 5.667e+00 3.516e-01 2.127e+00 -1.440e-01 -6.030e-02 -1.622e-02
8 1 3.897e+00 2.123e+00 2.125e+00 -1.473e-01 -5.886e-02 -1.594e-02
9 1 7.434e+00 3.492e-01 3.561e-01 -1.459e-01 -6.230e-02 -1.667e-02
10 1 9.203e+00 2.124e+00 3.555e-01 -1.472e-01 -6.018e-02 -1.688e-02
11 1 9.202e+00 3.526e-01 2.127e+00 -1.462e-01 -6.048e-02 -1.538e-02
12 1 7.433e+00 2.122e+00 2.121e+00 -1.452e-01 -5.563e-02 -1.589e-02
13 1 3.511e-01 3.894e+00 3.547e-01 -1.488e-01 -5.943e-02 -1.619e-02
14 1 2.122e+00 3.895e+00 2.125e+00 -1.493e-01 -5.739e-02 -1.528e-02
15 1 3.894e+00 3.894e+00 3.543e-01 -1.491e-01 -5.911e-02 -1.608e-02
16 1 5.666e+00 3.897e+00 2.127e+00 -1.481e-01 -6.186e-02 -1.691e-02
17 1 7.433e+00 3.898e+00 3.564e-01 -1.514e-01 -6.494e-02 -1.688e-02
18 1 9.200e+00 3.898e+00 2.127e+00 -1.471e-01 -6.174e-02 -1.848e-02
19 1 3.504e-01 3.505e-01 3.894e+00 -1.466e-01 -5.285e-02 -1.512e-02
20 1 2.124e+00 2.125e+00 3.894e+00 -1.482e-01 -5.765e-02 -1.590e-02
21 1 3.898e+00 3.512e-01 3.893e+00 -1.461e-01 -5.954e-02 -1.726e-02
22 1 5.662e+00 2.125e+00 3.894e+00 -1.486e-01 -5.602e-02 -1.341e-02
23 1 7.435e+00 3.619e-01 3.896e+00 -1.568e-01 -7.477e-02 -1.294e-02
24 1 9.206e+00 2.124e+00 3.893e+00 -1.479e-01 -6.384e-02 -1.740e-02
25 1 3.513e-01 3.898e+00 3.896e+00 -1.498e-01 -5.808e-02 -1.360e-02
26 1 3.897e+00 3.898e+00 3.896e+00 -1.506e-01 -6.139e-02 -1.620e-02
27 1 7.433e+00 3.883e+00 3.893e+00 -1.296e-01 -4.970e-02 -2.047e-02
28 1 2.124e+00 3.538e-01 5.664e+00 -1.495e-01 -5.731e-02 -1.578e-02
29 1 3.527e-01 2.124e+00 5.662e+00 -1.478e-01 -5.938e-02 -1.600e-02
30 1 5.665e+00 3.518e-01 5.663e+00 -1.459e-01 -5.866e-02 -1.599e-02
31 1 3.896e+00 2.125e+00 5.662e+00 -1.473e-01 -5.871e-02 -1.607e-02
32 1 9.202e+00 3.521e-01 5.661e+00 -1.453e-01 -5.926e-02 -1.633e-02
33 1 7.435e+00 2.124e+00 5.666e+00 -1.497e-01 -6.403e-02 -1.576e-02
34 1 2.125e+00 3.897e+00 5.664e+00 -1.488e-01 -5.751e-02 -1.500e-02
35 1 5.665e+00 3.898e+00 5.661e+00 -1.455e-01 -6.116e-02 -1.735e-02
36 1 9.201e+00 3.896e+00 5.664e+00 -1.471e-01 -6.004e-02 -1.560e-02
37 1 3.522e-01 3.519e-01 7.432e+00 -1.484e-01 -5.813e-02 -1.640e-02
38 1 2.125e+00 2.124e+00 7.435e+00 -1.485e-01 -5.885e-02 -1.598e-02
39 1 2.124e+00 3.524e-01 9.205e+00 -1.487e-01 -5.896e-02 -1.620e-02
40 1 3.538e-01 2.126e+00 9.204e+00 -1.483e-01 -5.948e-02 -1.632e-02
41 1 3.896e+00 3.531e-01 7.432e+00 -1.483e-01 -5.873e-02 -1.631e-02
42 1 5.665e+00 2.123e+00 7.434e+00 -1.472e-01 -5.996e-02 -1.647e-02
43 1 5.665e+00 3.517e-01 9.204e+00 -1.480e-01 -6.067e-02 -1.689e-02
44 1 3.896e+00 2.123e+00 9.204e+00 -1.482e-01 -5.916e-02 -1.621e-02
45 1 7.434e+00 3.515e-01 7.429e+00 -1.441e-01 -5.637e-02 -1.812e-02
46 1 9.203e+00 2.124e+00 7.432e+00 -1.473e-01 -6.018e-02 -1.642e-02
47 1 9.204e+00 3.544e-01 9.205e+00 -1.485e-01 -6.014e-02 -1.720e-02
48 1 7.433e+00 2.124e+00 9.205e+00 -1.472e-01 -6.074e-02 -1.716e-02
49 1 3.517e-01 3.895e+00 7.433e+00 -1.482e-01 -5.907e-02 -1.540e-02
50 1 2.125e+00 3.893e+00 9.203e+00 -1.486e-01 -5.883e-02 -1.596e-02
51 1 3.895e+00 3.892e+00 7.433e+00 -1.483e-01 -5.907e-02 -1.620e-02
52 1 5.662e+00 3.895e+00 9.204e+00 -1.482e-01 -5.977e-02 -1.646e-02
53 1 7.434e+00 3.896e+00 7.431e+00 -1.468e-01 -6.043e-02 -1.592e-02
54 1 9.203e+00 3.894e+00 9.205e+00 -1.479e-01 -6.045e-02 -1.607e-02
55 1 2.125e+00 5.664e+00 3.551e-01 -1.498e-01 -5.736e-02 -1.553e-02
56 1 3.510e-01 5.665e+00 2.125e+00 -1.517e-01 -5.536e-02 -1.281e-02
57 1 5.667e+00 5.666e+00 3.545e-01 -1.506e-01 -6.036e-02 -1.516e-02
58 1 3.897e+00 5.666e+00 2.126e+00 -1.513e-01 -5.861e-02 -1.634e-02
59 1 9.202e+00 5.664e+00 3.561e-01 -1.491e-01 -6.308e-02 -1.682e-02
60 1 7.433e+00 5.674e+00 2.136e+00 -4.430e-01 -2.603e-01 1.089e-01
61 1 3.493e-01 7.433e+00 3.567e-01 -1.511e-01 -5.834e-02 -1.460e-02
62 1 2.124e+00 9.203e+00 3.555e-01 -1.490e-01 -5.786e-02 -1.575e-02
63 1 2.122e+00 7.434e+00 2.123e+00 -1.472e-01 -5.465e-02 -1.528e-02
64 1 3.506e-01 9.203e+00 2.126e+00 -1.494e-01 -5.490e-02 -1.505e-02
65 1 3.899e+00 7.433e+00 3.572e-01 -1.515e-01 -6.349e-02 -1.653e-02
66 1 5.666e+00 9.201e+00 3.566e-01 -1.490e-01 -6.270e-02 -1.676e-02
67 1 5.673e+00 7.434e+00 2.133e+00 -2.715e-01 -5.227e-01 -9.936e-02
68 1 3.896e+00 9.202e+00 2.124e+00 -1.500e-01 -5.916e-02 -1.489e-02
69 1 7.434e+00 7.434e+00 3.460e-01 -1.367e-01 -4.490e-02 -1.884e-02
70 1 9.201e+00 9.203e+00 3.564e-01 -1.489e-01 -6.055e-02 -1.653e-02
71 1 9.195e+00 7.435e+00 2.134e+00 -2.435e-01 -1.218e-01 1.112e-01
72 1 7.436e+00 9.196e+00 2.133e+00 -1.855e-01 -1.323e-02 -2.526e-02
73 1 2.123e+00 5.661e+00 3.893e+00 -1.458e-01 -5.620e-02 -1.654e-02
74 1 5.672e+00 5.673e+00 3.894e+00 -3.369e-01 -5.418e-01 -1.634e-01
75 1 9.195e+00 5.673e+00 3.893e+00 -2.595e-01 3.916e-03 2.610e-02
76 1 3.631e-01 7.434e+00 3.895e+00 -1.547e-01 -7.175e-02 -2.097e-02
77 1 2.125e+00 9.205e+00 3.894e+00 -1.518e-01 -6.203e-02 -1.418e-02
78 1 3.885e+00 7.434e+00 3.894e+00 -1.514e-01 -3.571e-02 -4.844e-03
79 1 5.673e+00 9.193e+00 3.895e+00 -4.928e-02 -1.047e-01 -9.879e-02
80 1 9.196e+00 9.195e+00 3.893e+00 1.266e-01 1.542e-01 6.342e-02
81 1 3.512e-01 5.664e+00 5.662e+00 -1.487e-01 -5.705e-02 -1.392e-02
82 1 3.897e+00 5.665e+00 5.663e+00 -1.513e-01 -5.610e-02 -1.344e-02
83 1 7.435e+00 5.674e+00 5.653e+00 -2.789e-01 1.780e-01 -7.837e-02
84 1 2.125e+00 7.435e+00 5.666e+00 -1.518e-01 -6.285e-02 -1.466e-02
85 1 3.515e-01 9.203e+00 5.662e+00 -1.502e-01 -5.222e-02 -1.431e-02
86 1 5.674e+00 7.434e+00 5.654e+00 -1.668e-02 -9.230e-02 -1.578e-01
87 1 3.896e+00 9.202e+00 5.662e+00 -1.509e-01 -5.770e-02 -1.626e-02
88 1 9.195e+00 7.434e+00 5.654e+00 1.557e-01 3.427e-01 -6.588e-04
89 1 7.433e+00 9.194e+00 5.655e+00 1.597e-01 4.044e-01 8.769e-02
90 1 2.124e+00 5.667e+00 7.434e+00 -1.496e-01 -5.804e-02 -1.484e-02
91 1 3.533e-01 5.664e+00 9.202e+00 -1.489e-01 -6.002e-02 -1.623e-02
92 1 5.665e+00 5.666e+00 7.432e+00 -1.479e-01 -6.111e-02 -1.822e-02
93 1 3.894e+00 5.664e+00 9.206e+00 -1.489e-01 -5.895e-02 -1.615e-02
94 1 9.202e+00 5.666e+00 7.430e+00 -1.482e-01 -5.956e-02 -1.519e-02
95 1 7.434e+00 5.663e+00 9.205e+00 -1.451e-01 -5.747e-02 -1.638e-02
96 1 3.515e-01 7.434e+00 7.431e+00 -1.481e-01 -5.328e-02 -1.439e-02
97 1 2.124e+00 9.204e+00 7.434e+00 -1.502e-01 -5.718e-02 -1.555e-02
98 1 2.124e+00 7.434e+00 9.204e+00 -1.496e-01 -5.812e-02 -1.608e-02
99 1 3.531e-01 9.203e+00 9.203e+00 -1.491e-01 -5.988e-02 -1.689e-02
100 1 3.897e+00 7.433e+00 7.430e+00 -1.485e-01 -5.818e-02 -1.738e-02
101 1 5.666e+00 9.202e+00 7.431e+00 -1.466e-01 -6.007e-02 -1.736e-02
102 1 5.662e+00 7.435e+00 9.206e+00 -1.484e-01 -5.562e-02 -1.344e-02
103 1 3.893e+00 9.204e+00 9.205e+00 -1.483e-01 -5.918e-02 -1.624e-02
104 1 7.434e+00 7.434e+00 7.443e+00 -1.603e-01 -8.108e-02 -1.599e-02
105 1 9.202e+00 9.203e+00 7.432e+00 -1.481e-01 -5.935e-02 -1.779e-02
106 1 9.207e+00 7.434e+00 9.205e+00 -1.488e-01 -6.409e-02 -1.814e-02