ITEM: TIMESTEP
0
ITEM: NUMBER OF ATOMS
107
ITEM: BOX BOUNDS xy xz yz pp pp pp
                     0.00000000000000e+00 1.06000000000000e+01 0.00000000000000e+00
0.00000000000000e+00	1.06000000000000e+01	0.00000000000000e+00
0.00000000000000e+00	1.06000000000000e+01	0.00000000000000e+00
ITEM: ATOMS id type x y z DisplacementX DisplacementY DisplacementZ
1 1 3.526e-01 3.519e-01 3.551e-01 3.602e-03 -3.292e-03 -3.996e-03
2 1 2.123e+00 2.125e+00 3.544e-01 3.561e-03 -3.208e-03 -4.344e-03
3 1 2.122e+00 3.548e-01 2.125e+00 3.850e-03 1.104e-04 -1.300e-03
4 1 3.559e-01 2.121e+00 2.125e+00 4.467e-03 -5.852e-03 -6.530e-03
5 1 3.895e+00 3.517e-01 3.539e-01 3.149e-03 -1.316e-03 -2.542e-03
6 1 5.665e+00 2.123e+00 3.560e-01 4.022e-03 -5.039e-03 -6.282e-03
7 1 5.666e+00 3.536e-01 2.126e+00 4.361e-03 -2.908e-03 -4.289e-03
8 1 3.894e+00 2.125e+00 2.123e+00 3.907e-03 -3.135e-03 -4.743e-03
9 1 7.434e+00 3.484e-01 3.573e-01 2.746e-03 -3.061e-03 -2.870e-03
10 1 9.204e+00 2.125e+00 3.544e-01 4.142e-03 -7.397e-03 -7.686e-03
11 1 9.202e+00 3.499e-01 2.127e+00 5.761e-03 -5.870e-03 -5.582e-03
12 1 7.433e+00 2.125e+00 2.123e+00 7.371e-03 -3.515e-03 -6.429e-03
13 1 3.501e-01 3.894e+00 3.549e-01 3.329e-03 -4.592e-03 -5.028e-03
14 1 2.125e+00 3.894e+00 2.124e+00 4.081e-03 -1.640e-03 -2.720e-03
15 1 3.894e+00 3.895e+00 3.552e-01 3.405e-03 -3.644e-03 -5.180e-03
16 1 5.666e+00 3.897e+00 2.125e+00 6.516e-03 -6.264e-03 -9.105e-03
17 1 7.434e+00 3.896e+00 3.555e-01 2.698e-03 -8.235e-03 -8.216e-03
18 1 9.202e+00 3.896e+00 2.127e+00 3.512e-03 -9.906e-03 -1.003e-02
19 1 3.501e-01 3.521e-01 3.893e+00 5.080e-03 -2.884e-03 -3.815e-03
20 1 2.125e+00 2.125e+00 3.895e+00 3.984e-03 -2.355e-03 -3.781e-03
21 1 3.895e+00 3.515e-01 3.893e+00 5.051e-03 -3.166e-03 -4.427e-03
22 1 5.663e+00 2.123e+00 3.893e+00 4.285e-03 -2.343e-03 -2.056e-03
23 1 7.434e+00 3.635e-01 3.895e+00 7.878e-03 4.731e-03 5.860e-04
24 1 9.207e+00 2.123e+00 3.894e+00 6.357e-03 -4.395e-03 -6.939e-03
25 1 3.502e-01 3.898e+00 3.893e+00 4.139e-03 -4.393e-05 -3.975e-04
26 1 3.898e+00 3.896e+00 3.895e+00 5.038e-03 -1.093e-03 -4.235e-03
27 1 7.433e+00 3.886e+00 3.894e+00 9.870e-03 -1.943e-02 -1.802e-02
28 1 2.124e+00 3.522e-01 5.664e+00 3.637e-03 -1.243e-03 -3.230e-03
29 1 3.551e-01 2.124e+00 5.663e+00 4.816e-03 -2.189e-03 -4.513e-03
30 1 5.665e+00 3.507e-01 5.661e+00 8.392e-03 -1.119e-02 -1.163e-02
31 1 3.895e+00 2.125e+00 5.664e+00 4.658e-03 -4.606e-03 -5.462e-03
32 1 9.203e+00 3.526e-01 5.664e+00 5.093e-03 -5.492e-03 -6.991e-03
33 1 7.434e+00 2.125e+00 5.667e+00 3.260e-03 -3.268e-03 -3.125e-03
34 1 2.123e+00 3.895e+00 5.663e+00 4.022e-03 3.183e-05 -1.015e-03
35 1 5.665e+00 3.897e+00 5.663e+00 5.050e-03 -2.540e-03 -3.995e-03
36 1 9.202e+00 3.897e+00 5.662e+00 5.809e-03 2.522e-04 -2.983e-03
37 1 3.534e-01 3.531e-01 7.433e+00 3.767e-03 -3.321e-03 -5.095e-03
38 1 2.123e+00 2.123e+00 7.434e+00 3.616e-03 -2.594e-03 -3.909e-03
39 1 2.125e+00 3.551e-01 9.203e+00 3.257e-03 -2.662e-03 -3.902e-03
40 1 3.545e-01 2.125e+00 9.204e+00 3.520e-03 -3.540e-03 -4.756e-03
41 1 3.895e+00 3.525e-01 7.435e+00 3.326e-03 -4.706e-03 -5.791e-03
42 1 5.664e+00 2.124e+00 7.433e+00 4.774e-03 -5.316e-03 -6.331e-03
43 1 5.665e+00 3.541e-01 9.205e+00 2.008e-03 -3.911e-03 -4.946e-03
44 1 3.893e+00 2.125e+00 9.203e+00 3.366e-03 -3.467e-03 -4.478e-03
45 1 7.434e+00 3.502e-01 7.429e+00 4.422e-03 -1.280e-02 -1.390e-02
46 1 9.202e+00 2.123e+00 7.433e+00 3.950e-03 -2.811e-03 -4.714e-03
47 1 9.204e+00 3.522e-01 9.201e+00 3.142e-03 -4.862e-03 -6.068e-03
48 1 7.433e+00 2.124e+00 9.204e+00 3.023e-03 -6.063e-03 -6.590e-03
49 1 3.524e-01 3.897e+00 7.433e+00 3.452e-03 -6.143e-04 -2.231e-03
50 1 2.122e+00 3.894e+00 9.203e+00 3.316e-03 -2.781e-03 -3.806e-03
51 1 3.896e+00 3.896e+00 7.433e+00 3.842e-03 -2.567e-03 -3.324e-03
52 1 5.665e+00 3.895e+00 9.206e+00 2.964e-03 -5.225e-03 -5.452e-03
53 1 7.433e+00 3.896e+00 7.430e+00 5.048e-03 5.041e-04 -1.488e-03
54 1 9.203e+00 3.895e+00 9.204e+00 3.066e-03 -3.878e-03 -4.573e-03
55 1 2.125e+00 5.663e+00 3.545e-01 3.366e-03 -2.837e-03 -3.805e-03
56 1 3.505e-01 5.665e+00 2.126e+00 3.567e-03 1.197e-03 1.824e-03
57 1 5.667e+00 5.667e+00 3.559e-01 1.641e-03 -2.643e-03 -4.107e-03
58 1 3.896e+00 5.667e+00 2.125e+00 4.489e-03 1.477e-03 -1.237e-03
59 1 9.204e+00 5.665e+00 3.554e-01 2.148e-03 -2.729e-03 -2.404e-03
60 1 7.433e+00 5.675e+00 2.132e+00 -6.036e-02 1.215e+00 1.273e+00
61 1 3.517e-01 7.435e+00 3.594e-01 1.995e-03 -6.438e-04 1.007e-03
62 1 2.123e+00 9.205e+00 3.552e-01 3.128e-03 -1.979e-04 -1.179e-03
63 1 2.124e+00 7.433e+00 2.120e+00 5.374e-03 -4.215e-03 -6.604e-03
64 1 3.513e-01 9.201e+00 2.125e+00 3.239e-03 3.804e-03 2.299e-03
65 1 3.897e+00 7.434e+00 3.571e-01 2.114e-03 1.182e-03 -7.801e-04
66 1 5.665e+00 9.201e+00 3.574e-01 2.205e-03 -1.675e-05 -1.797e-03
67 1 5.674e+00 7.434e+00 2.132e+00 -2.513e-02 -6.140e-02 -4.443e-02
68 1 3.898e+00 9.202e+00 2.126e+00 4.307e-03 3.395e-03 3.311e-03
69 1 7.435e+00 7.434e+00 3.454e-01 6.122e-03 -1.161e-02 -1.486e-02
70 1 9.203e+00 9.202e+00 3.565e-01 1.988e-03 -3.819e-03 -3.368e-03
71 1 9.193e+00 7.435e+00 2.133e+00 2.663e-02 -1.884e-02 -6.685e-02
72 1 7.433e+00 9.196e+00 2.134e+00 -1.046e-02 -3.839e-04 2.650e-03
73 1 2.122e+00 5.663e+00 3.894e+00 5.519e-03 -2.938e-03 -3.374e-03
74 1 5.674e+00 5.673e+00 3.894e+00 3.296e-02 5.243e-02 2.178e-02
75 1 9.195e+00 5.673e+00 3.894e+00 -1.435e-02 6.182e-02 8.467e-02
76 1 3.630e-01 7.432e+00 3.895e+00 5.244e-03 5.734e-03 -3.010e-05
77 1 2.124e+00 9.207e+00 3.896e+00 4.725e-03 1.003e-03 -9.913e-04
78 1 3.885e+00 7.433e+00 3.894e+00 3.973e-03 1.245e-02 1.609e-02
79 1 5.673e+00 9.194e+00 3.895e+00 -1.736e-02 -1.425e-01 -1.575e-01
80 1 9.195e+00 9.195e+00 3.895e+00 -8.356e-02 -2.056e-01 -1.330e-01
81 1 3.512e-01 5.667e+00 5.663e+00 3.238e-03 4.929e-03 5.139e-03
82 1 3.898e+00 5.666e+00 5.663e+00 5.558e-03 3.898e-03 1.030e-03
83 1 7.435e+00 5.673e+00 5.654e+00 -2.059e-02 -1.213e-01 -9.532e-02
84 1 2.124e+00 7.437e+00 5.666e+00 3.761e-03 1.261e-03 4.975e-04
85 1 3.513e-01 9.203e+00 5.662e+00 4.322e-03 -1.491e-03 -2.721e-03
86 1 5.673e+00 7.435e+00 5.655e+00 2.050e-01 -1.842e-01 -3.818e-01
87 1 3.898e+00 9.201e+00 5.664e+00 3.983e-03 -2.856e-04 -3.087e-03
88 1 9.196e+00 7.434e+00 5.653e+00 3.379e-03 -1.554e-01 -1.351e-01
89 1 7.435e+00 9.195e+00 5.654e+00 3.962e-02 1.335e-01 8.935e-02
90 1 2.124e+00 5.665e+00 7.432e+00 3.231e-03 1.562e-03 3.015e-04
91 1 3.539e-01 5.666e+00 9.204e+00 2.640e-03 -2.542e-03 -3.643e-03
92 1 5.667e+00 5.666e+00 7.431e+00 4.225e-03 -7.145e-03 -6.231e-03
93 1 3.894e+00 5.666e+00 9.205e+00 2.663e-03 -2.804e-03 -3.089e-03
94 1 9.202e+00 5.666e+00 7.431e+00 2.155e-03 -4.406e-03 -4.949e-03
95 1 7.435e+00 5.661e+00 9.203e+00 3.504e-03 -5.088e-03 -6.190e-03
96 1 3.496e-01 7.436e+00 7.433e+00 4.104e-03 2.906e-04 -1.792e-03
97 1 2.123e+00 9.205e+00 7.434e+00 3.243e-03 -1.002e-03 -2.662e-03
98 1 2.124e+00 7.433e+00 9.203e+00 2.141e-03 -1.143e-03 -1.866e-03
99 1 3.521e-01 9.203e+00 9.205e+00 2.848e-03 -3.212e-03 -4.488e-03
100 1 3.897e+00 7.434e+00 7.432e+00 2.517e-03 -3.108e-03 -4.340e-03
101 1 5.664e+00 9.203e+00 7.431e+00 -8.681e-04 -8.683e-03 -6.640e-03
102 1 5.661e+00 7.434e+00 9.204e+00 5.558e-03 -8.982e-04 -1.489e-03
103 1 3.893e+00 9.202e+00 9.203e+00 1.935e-03 -2.953e-03 -3.559e-03
104 1 7.434e+00 7.434e+00 7.443e+00 -7.073e-03 -2.187e-03 4.194e-03
105 1 9.203e+00 9.201e+00 7.432e+00 2.497e-03 -5.436e-03 -7.440e-03
106 1 9.206e+00 7.435e+00 9.205e+00 2.738e-03 -2.871e-03 -5.217e-03
107 1 7.433e+00 9.205e+00 9.203e+00 4.681e-03 -6.507e-04 -2.572e-03
ITEM: TIMESTEP
0
ITEM: NUMBER OF ATOMS
107
ITEM: BOX BOUNDS xy xz yz pp pp pp
                     0.00000000000000e+00 1.06000000000000e+01 0.00000000000000e+00
0.00000000000000e+00	1.06000000000000e+01	0.00000000000000e+00
0.00000000000000e+00	1.06000000000000e+01	0.00000000000000e+00
ITEM: ATOMS id type x y z DisplacementX DisplacementY DisplacementZ
1 1 3.526e-01 3.519e-01 3.551e-01 1.438e-03 1.731e-03 2.312e-03
2 1 2.123e+00 2.125e+00 3.544e-01 3.863e-04 2.103e-03 1.869e-03
3 1 2.122e+00 3.548e-01 2.125e+00 8.363e-04 2.053e-03 1.377e-03
4 1 3.559e-01 2.121e+00 2.125e+00 1.721e-03 8.087e-04 4.634e-03
5 1 3.895e+00 3.517e-01 3.539e-01 -1.080e-04 2.767e-03 1.294e-03
6 1 5.665e+00 2.123e+00 3.560e-01 -1.340e-03 2.386e-03 3.259e-03
7 1 5.666e+00 3.536e-01 2.126e+00 -3.822e-03 1.240e-03 4.308e-03
8 1 3.894e+00 2.125e+00 2.123e+00 -1.831e-03 1.939e-03 3.453e-03
9 1 7.434e+00 3.484e-01 3.573e-01 1.062e-03 1.099e-03 4.878e-03
10 1 9.204e+00 2.125e+00 3.544e-01 7.877e-04 1.772e-03 3.848e-03
11 1 9.202e+00 3.499e-01 2.127e+00 9.016e-04 -2.221e-03 4.297e-03
12 1 7.433e+00 2.125e+00 2.123e+00 -2.465e-03 8.638e-04 -2.510e-03
13 1 3.501e-01 3.894e+00 3.549e-01 1.706e-03 2.292e-03 2.096e-03
14 1 2.125e+00 3.894e+00 2.124e+00 2.525e-04 9.787e-04 6.661e-04
15 1 3.894e+00 3.895e+00 3.552e-01 -2.738e-04 2.613e-03 1.947e-03
16 1 5.666e+00 3.897e+00 2.125e+00 -5.006e-04 1.609e-03 5.833e-03
17 1 7.434e+00 3.896e+00 3.555e-01 3.067e-03 5.563e-03 7.023e-03
18 1 9.202e+00 3.896e+00 2.127e+00 2.331e-03 2.214e-03 9.376e-03
19 1 3.501e-01 3.521e-01 3.893e+00 -5.100e-03 -3.063e-03 1.217e-03
20 1 2.125e+00 2.125e+00 3.895e+00 -1.326e-05 1.231e-03 3.177e-03
21 1 3.895e+00 3.515e-01 3.893e+00 1.477e-03 1.497e-03 1.694e-03
22 1 5.663e+00 2.123e+00 3.893e+00 -3.587e-03 7.571e-04 9.424e-04
23 1 7.434e+00 3.635e-01 3.895e+00 7.673e-03 1.136e-02 1.725e-02
24 1 9.207e+00 2.123e+00 3.894e+00 4.696e-03 2.029e-03 4.594e-03
25 1 3.502e-01 3.898e+00 3.893e+00 -8.082e-05 3.517e-03 2.680e-03
26 1 3.898e+00 3.896e+00 3.895e+00 3.689e-03 1.235e-03 6.514e-03
27 1 7.433e+00 3.886e+00 3.894e+00 -1.096e-02 -1.373e-02 7.352e-04
28 1 2.124e+00 3.522e-01 5.664e+00 4.029e-04 1.751e-03 1.949e-03
29 1 3.551e-01 2.124e+00 5.663e+00 -5.803e-04 1.536e-03 3.316e-03
30 1 5.665e+00 3.507e-01 5.661e+00 6.986e-04 -5.957e-05 3.606e-03
31 1 3.895e+00 2.125e+00 5.664e+00 9.400e-05 1.469e-03 3.420e-03
32 1 9.203e+00 3.526e-01 5.664e+00 -4.980e-03 3.088e-04 3.867e-03
33 1 7.434e+00 2.125e+00 5.667e+00 2.838e-03 1.178e-03 7.872e-03
34 1 2.123e+00 3.895e+00 5.663e+00 4.483e-04 1.112e-03 5.020e-04
35 1 5.665e+00 3.897e+00 5.663e+00 1.775e-03 1.838e-03 6.523e-03
36 1 9.202e+00 3.897e+00 5.662e+00 -1.841e-03 1.743e-03 3.738e-03
37 1 3.534e-01 3.531e-01 7.433e+00 -1.099e-03 2.061e-03 1.608e-03
38 1 2.123e+00 2.123e+00 7.434e+00 4.529e-04 2.180e-03 1.937e-03
39 1 2.125e+00 3.551e-01 9.203e+00 7.413e-04 2.601e-03 1.443e-03
40 1 3.545e-01 2.125e+00 9.204e+00 7.006e-04 2.424e-03 1.952e-03
41 1 3.895e+00 3.525e-01 7.435e+00 1.351e-03 2.475e-03 1.712e-03
42 1 5.664e+00 2.124e+00 7.433e+00 4.291e-04 2.299e-03 3.888e-03
43 1 5.665e+00 3.541e-01 9.205e+00 1.100e-03 3.813e-03 1.402e-03
44 1 3.893e+00 2.125e+00 9.203e+00 1.232e-04 2.611e-03 1.742e-03
45 1 7.434e+00 3.502e-01 7.429e+00 -2.794e-03 1.702e-03 8.589e-05
46 1 9.202e+00 2.123e+00 7.433e+00 -1.143e-03 2.196e-03 3.295e-03
47 1 9.204e+00 3.522e-01 9.201e+00 1.407e-03 3.362e-03 2.483e-03
48 1 7.433e+00 2.124e+00 9.204e+00 -1.368e-05 3.666e-03 2.740e-03
49 1 3.524e-01 3.897e+00 7.433e+00 -1.452e-04 2.593e-03 5.257e-04
50 1 2.122e+00 3.894e+00 9.203e+00 5.540e-04 2.378e-03 1.093e-03
51 1 3.896e+00 3.896e+00 7.433e+00 1.221e-03 2.216e-03 1.748e-03
52 1 5.665e+00 3.895e+00 9.206e+00 1.085e-04 3.544e-03 9.111e-04
53 1 7.433e+00 3.896e+00 7.430e+00 -4.191e-04 3.992e-03 -3.980e-04
54 1 9.203e+00 3.895e+00 9.204e+00 1.027e-03 2.880e-03 2.932e-04
55 1 2.125e+00 5.663e+00 3.545e-01 1.287e-03 2.042e-03 3.312e-04
56 1 3.505e-01 5.665e+00 2.126e+00 9.798e-04 2.620e-03 -2.711e-03
57 1 5.667e+00 5.667e+00 3.559e-01 3.603e-04 7.182e-03 -1.091e-03
58 1 3.896e+00 5.667e+00 2.125e+00 2.423e-03 -1.026e-04 7.315e-04
59 1 9.204e+00 5.665e+00 3.554e-01 3.686e-03 2.744e-03 -2.384e-04
60 1 7.433e+00 5.675e+00 2.132e+00 2.506e-02 -1.120e-02 -3.545e-02
61 1 3.517e-01 7.435e+00 3.594e-01 4.394e-03 1.909e-03 1.809e-03
62 1 2.123e+00 9.205e+00 3.552e-01 1.189e-03 2.318e-03 -1.797e-04
63 1 2.124e+00 7.433e+00 2.120e+00 -6.974e-04 9.004e-04 -1.873e-03
64 1 3.513e-01 9.201e+00 2.125e+00 3.611e-04 1.808e-05 -5.714e-04
65 1 3.897e+00 7.434e+00 3.571e-01 2.591e-03 4.928e-03 9.460e-04
66 1 5.665e+00 9.201e+00 3.574e-01 1.316e-04 4.310e-03 -9.998e-04
67 1 5.674e+00 7.434e+00 2.132e+00 5.315e-01 5.035e-03 5.648e-01
68 1 3.898e+00 9.202e+00 2.126e+00 2.161e-03 1.012e-03 -1.284e-03
69 1 7.435e+00 7.434e+00 3.454e-01 -9.233e-03 3.872e-03 -2.122e-02
70 1 9.203e+00 9.202e+00 3.565e-01 2.897e-03 2.749e-03 3.011e-03
71 1 9.193e+00 7.435e+00 2.133e+00 -3.263e-01 -4.028e-02 2.747e-01
72 1 7.433e+00 9.196e+00 2.134e+00 -8.736e-02 -1.993e-02 -2.110e-02
73 1 2.122e+00 5.663e+00 3.894e+00 -2.950e-03 -1.158e-03 -2.509e-03
74 1 5.674e+00 5.673e+00 3.894e+00 4.547e-01 4.944e-01 -1.482e-02
75 1 9.195e+00 5.673e+00 3.894e+00 -9.993e-02 1.793e-02 -2.288e-02
76 1 3.630e-01 7.432e+00 3.895e+00 1.917e-02 5.328e-03 2.828e-03
77 1 2.124e+00 9.207e+00 3.896e+00 3.412e-03 4.443e-03 4.086e-03
78 1 3.885e+00 7.433e+00 3.894e+00 -1.518e-02 -6.961e-03 -1.145e-02
79 1 5.673e+00 9.194e+00 3.895e+00 -3.473e-03 -1.475e-02 -2.457e-02
80 1 9.195e+00 9.195e+00 3.895e+00 1.640e-02 2.609e-02 -3.898e-02
81 1 3.512e-01 5.667e+00 5.663e+00 -1.029e-03 1.549e-03 -2.101e-03
82 1 3.898e+00 5.666e+00 5.663e+00 4.371e-03 1.963e-04 -6.861e-04
83 1 7.435e+00 5.673e+00 5.654e+00 2.870e-02 4.667e-02 -6.365e-03
84 1 2.124e+00 7.437e+00 5.666e+00 4.222e-03 2.100e-03 4.845e-03
85 1 3.513e-01 9.203e+00 5.662e+00 -3.125e-03 5.743e-04 -1.340e-03
86 1 5.673e+00 7.435e+00 5.655e+00 -5.215e-02 -3.208e-02 -2.818e-02
87 1 3.898e+00 9.201e+00 5.664e+00 3.961e-03 8.850e-04 5.263e-04
88 1 9.196e+00 7.434e+00 5.653e+00 -2.995e-02 -9.417e-02 -5.909e-03
89 1 7.435e+00 9.195e+00 5.654e+00 -9.375e-02 -2.708e-01 -2.879e-01
90 1 2.124e+00 5.665e+00 7.432e+00 1.612e-03 2.098e-03 1.334e-04
91 1 3.539e-01 5.666e+00 9.204e+00 1.946e-03 2.901e-03 -4.846e-04
92 1 5.667e+00 5.666e+00 7.431e+00 3.420e-03 3.387e-03 -1.370e-03
93 1 3.894e+00 5.666e+00 9.205e+00 -2.655e-04 4.062e-03 -5.918e-04
94 1 9.202e+00 5.666e+00 7.431e+00 7.469e-04 5.577e-03 -3.619e-03
95 1 7.435e+00 5.661e+00 9.203e+00 -2.208e-04 -1.989e-03 1.283e-03
96 1 3.496e-01 7.436e+00 7.433e+00 -5.582e-03 2.096e-03 -5.614e-03
97 1 2.123e+00 9.205e+00 7.434e+00 8.815e-04 2.063e-03 6.096e-04
98 1 2.124e+00 7.433e+00 9.203e+00 1.417e-03 3.311e-03 -9.390e-04
99 1 3.521e-01 9.203e+00 9.205e+00 1.793e-03 3.038e-03 9.671e-04
100 1 3.897e+00 7.434e+00 7.432e+00 5.336e-03 2.898e-03 -1.354e-03
101 1 5.664e+00 9.203e+00 7.431e+00 2.138e-03 4.826e-03 -4.769e-04
102 1 5.661e+00 7.434e+00 9.204e+00 -3.374e-03 5.133e-04 -4.640e-04
103 1 3.893e+00 9.202e+00 9.203e+00 6.191e-04 3.676e-03 1.854e-05
104 1 7.434e+00 7.434e+00 7.443e+00 1.715e-02 1.006e-02 1.715e-02
105 1 9.203e+00 9.201e+00 7.432e+00 -3.245e-05 3.194e-03 -2.220e-04
106 1 9.206e+00 7.435e+00 9.205e+00 4.696e-03 3.470e-03 2.046e-03
107 1 7.433e+00 9.205e+00 9.203e+00 3.607e-03 4.448e-03 2.490e-03
ITEM: TIMESTEP
0
ITEM: NUMBER OF ATOMS
107
ITEM: BOX BOUNDS xy xz yz pp pp pp
                     0.00000000000000e+00 1.06000000000000e+01 0.00000000000000e+00
0.00000000000000e+00	1.06000000000000e+01	0.00000000000000e+00
0.00000000000000e+00	1.06000000000000e+01	0.00000000000000e+00
ITEM: ATOMS id type x y z DisplacementX DisplacementY DisplacementZ
1 1 3.526e-01 3.519e-01 3.551e-01 -3.393e-03 -5.864e-03 3.223e-03
2 1 2.123e+00 2.125e+00 3.544e-01 -3.282e-03 -5.242e-03 3.004e-03
3 1 2.122e+00 3.548e-01 2.125e+00 -2.151e-03 -5.469e-03 2.951e-03
4 1 3.559e-01 2.121e+00 2.125e+00 -4.565e-03 -5.036e-03 4.015e-03
5 1 3.895e+00 3.517e-01 3.539e-01 -2.850e-03 -6.393e-03 3.934e-03
6 1 5.665e+00 2.123e+00 3.560e-01 -4.526e-03 -5.559e-03 4.624e-03
7 1 5.666e+00 3.536e-01 2.126e+00 -5.598e-03 -7.589e-03 8.123e-03
8 1 3.894e+00 2.125e+00 2.123e+00 -4.713e-03 -5.292e-03 4.377e-03
9 1 7.434e+00 3.484e-01 3.573e-01 -5.338e-03 -9.634e-03 8.406e-03
10 1 9.204e+00 2.125e+00 3.544e-01 -5.051e-03 -5.217e-03 3.996e-03
11 1 9.202e+00 3.499e-01 2.127e+00 -6.551e-03 -8.003e-03 6.025e-03
12 1 7.433e+00 2.125e+00 2.123e+00 -3.176e-03 -2.678e-03 1.772e-03
13 1 3.501e-01 3.894e+00 3.549e-01 -3.464e-03 -4.686e-03 2.427e-03
14 1 2.125e+00 3.894e+00 2.124e+00 -2.716e-03 -4.306e-03 2.221e-03
15 1 3.894e+00 3.895e+00 3.552e-01 -3.460e-03 -4.343e-03 3.037e-03
16 1 5.666e+00 3.897e+00 2.125e+00 -6.421e-03 -3.520e-03 6.768e-03
17 1 7.434e+00 3.896e+00 3.555e-01 -5.775e-03 -2.414e-03 3.937e-03
18 1 9.202e+00 3.896e+00 2.127e+00 -6.799e-03 -1.049e-03 3.490e-03
19 1 3.501e-01 3.521e-01 3.893e+00 -5.232e-03 -5.936e-03 4.490e-03
20 1 2.125e+00 2.125e+00 3.895e+00 -3.579e-03 -5.796e-03 2.893e-03
21 1 3.895e+00 3.515e-01 3.893e+00 -1.161e-03 -7.303e-03 4.717e-03
22 1 5.663e+00 2.123e+00 3.893e+00 -8.123e-03 -3.210e-03 4.669e-03
23 1 7.434e+00 3.635e-01 3.895e+00 -1.347e-02 5.873e-03 4.129e-03
24 1 9.207e+00 2.123e+00 3.894e+00 -1.447e-03 -4.257e-03 5.903e-03
25 1 3.502e-01 3.898e+00 3.893e+00 -6.396e-03 -3.626e-03 2.762e-03
26 1 3.898e+00 3.896e+00 3.895e+00 -2.898e-03 -2.822e-03 2.698e-03
27 1 7.433e+00 3.886e+00 3.894e+00 -6.642e-03 -1.461e-02 1.503e-02
28 1 2.124e+00 3.522e-01 5.664e+00 -2.638e-03 -4.503e-03 2.242e-03
29 1 3.551e-01 2.124e+00 5.663e+00 -4.126e-03 -5.608e-03 4.294e-03
30 1 5.665e+00 3.507e-01 5.661e+00 -6.367e-03 -4.750e-03 5.998e-03
31 1 3.895e+00 2.125e+00 5.664e+00 -4.850e-03 -5.871e-03 4.323e-03
32 1 9.203e+00 3.526e-01 5.664e+00 -5.883e-03 -1.848e-03 4.878e-03
33 1 7.434e+00 2.125e+00 5.667e+00 -5.600e-03 -3.069e-03 8.482e-03
34 1 2.123e+00 3.895e+00 5.663e+00 -2.187e-03 -5.143e-03 2.278e-03
35 1 5.665e+00 3.897e+00 5.663e+00 -5.087e-03 -7.033e-03 4.859e-03
36 1 9.202e+00 3.897e+00 5.662e+00 -6.555e-03 -7.945e-03 7.030e-03
37 1 3.534e-01 3.531e-01 7.433e+00 -3.455e-03 -5.084e-03 2.980e-03
38 1 2.123e+00 2.123e+00 7.434e+00 -3.267e-03 -5.476e-03 3.106e-03
39 1 2.125e+00 3.551e-01 9.203e+00 -2.939e-03 -5.310e-03 2.735e-03
40 1 3.545e-01 2.125e+00 9.204e+00 -3.281e-03 -5.502e-03 3.153e-03
41 1 3.895e+00 3.525e-01 7.435e+00 -3.102e-03 -4.830e-03 2.289e-03
42 1 5.664e+00 2.124e+00 7.433e+00 -4.845e-03 -6.442e-03 4.450e-03
43 1 5.665e+00 3.541e-01 9.205e+00 -3.661e-03 -5.431e-03 2.785e-03
44 1 3.893e+00 2.125e+00 9.203e+00 -3.527e-03 -5.611e-03 3.088e-03
45 1 7.434e+00 3.502e-01 7.429e+00 -4.224e-03 -4.970e-03 1.624e-03
46 1 9.202e+00 2.123e+00 7.433e+00 -4.574e-03 -5.695e-03 4.455e-03
47 1 9.204e+00 3.522e-01 9.201e+00 -3.504e-03 -5.714e-03 2.907e-03
48 1 7.433e+00 2.124e+00 9.204e+00 -4.452e-03 -7.149e-03 3.314e-03
49 1 3.524e-01 3.897e+00 7.433e+00 -3.020e-03 -5.649e-03 3.199e-03
50 1 2.122e+00 3.894e+00 9.203e+00 -2.916e-03 -5.354e-03 2.708e-03
51 1 3.896e+00 3.896e+00 7.433e+00 -3.097e-03 -6.204e-03 2.699e-03
52 1 5.665e+00 3.895e+00 9.206e+00 -3.805e-03 -6.074e-03 2.974e-03
53 1 7.433e+00 3.896e+00 7.430e+00 -4.094e-03 -6.863e-03 2.725e-03
54 1 9.203e+00 3.895e+00 9.204e+00 -2.964e-03 -5.865e-03 2.905e-03
55 1 2.125e+00 5.663e+00 3.545e-01 -2.522e-03 -3.431e-03 1.323e-03
56 1 3.505e-01 5.665e+00 2.126e+00 -2.788e-03 -4.108e-03 -8.014e-04
57 1 5.667e+00 5.667e+00 3.559e-01 -2.911e-03 -7.010e-03 2.712e-03
58 1 3.896e+00 5.667e+00 2.125e+00 -7.704e-06 -1.327e-03 7.020e-04
59 1 9.204e+00 5.665e+00 3.554e-01 -1.945e-03 -5.935e-03 7.818e-04
60 1 7.433e+00 5.675e+00 2.132e+00 3.051e-02 -5.144e-02 7.087e-02
61 1 3.517e-01 7.435e+00 3.594e-01 -3.321e-03 -5.315e-03 1.419e-03
62 1 2.123e+00 9.205e+00 3.552e-01 -1.495e-03 -5.886e-03 2.056e-03
63 1 2.124e+00 7.433e+00 2.120e+00 -2.957e-03 -2.298e-03 -3.250e-04
64 1 3.513e-01 9.201e+00 2.125e+00 -1.679e-03 -5.829e-03 2.709e-03
65 1 3.897e+00 7.434e+00 3.571e-01 -1.238e-03 -5.572e-03 5.561e-03
66 1 5.665e+00 9.201e+00 3.574e-01 -3.688e-03 -6.822e-03 5.212e-03
67 1 5.674e+00 7.434e+00 2.132e+00 4.152e-02 -5.585e-02 8.624e-03
68 1 3.898e+00 9.202e+00 2.126e+00 -4.546e-04 -6.326e-03 3.747e-03
69 1 7.435e+00 7.434e+00 3.454e-01 1.154e-03 -3.750e-03 -1.396e-02
70 1 9.203e+00 9.202e+00 3.565e-01 -3.706e-03 -4.279e-03 2.641e-03
71 1 9.193e+00 7.435e+00 2.133e+00 -4.461e-01 -4.300e-02 5.572e-01
72 1 7.433e+00 9.196e+00 2.134e+00 8.405e-02 2.219e-02 3.534e-02
73 1 2.122e+00 5.663e+00 3.894e+00 -1.766e-03 -6.680e-03 5.888e-03
74 1 5.674e+00 5.673e+00 3.894e+00 1.418e-01 7.296e-05 -3.837e-02
75 1 9.195e+00 5.673e+00 3.894e+00 -2.141e-01 2.580e-01 -5.930e-03
76 1 3.630e-01 7.432e+00 3.895e+00 1.269e-02 -1.687e-03 -2.934e-03
77 1 2.124e+00 9.207e+00 3.896e+00 -4.440e-03 -5.875e-04 2.609e-03
78 1 3.885e+00 7.433e+00 3.894e+00 -1.225e-02 -3.553e-03 -9.053e-04
79 1 5.673e+00 9.194e+00 3.895e+00 7.735e-02 -4.859e-02 8.917e-03
80 1 9.195e+00 9.195e+00 3.895e+00 -1.511e-02 -8.470e-02 5.942e-02
81 1 3.512e-01 5.667e+00 5.663e+00 -2.408e-03 -4.004e-03 1.703e-03
82 1 3.898e+00 5.666e+00 5.663e+00 1.030e-04 -5.811e-03 9.181e-04
83 1 7.435e+00 5.673e+00 5.654e+00 4.613e-02 4.766e-01 -5.403e-01
84 1 2.124e+00 7.437e+00 5.666e+00 -4.296e-03 -6.141e-03 7.745e-03
85 1 3.513e-01 9.203e+00 5.662e+00 -3.275e-03 -3.149e-03 1.872e-03
86 1 5.673e+00 7.435e+00 5.655e+00 -5.851e-03 -1.862e-02 7.512e-02
87 1 3.898e+00 9.201e+00 5.664e+00 5.320e-06 -2.263e-03 3.500e-05
88 1 9.196e+00 7.434e+00 5.653e+00 -1.809e-01 2.826e-02 -2.476e-01
89 1 7.435e+00 9.195e+00 5.654e+00 1.434e-01 -3.048e-02 -2.241e-02
90 1 2.124e+00 5.665e+00 7.432e+00 -1.830e-03 -6.228e-03 2.092e-03
91 1 3.539e-01 5.666e+00 9.204e+00 -1.498e-03 -5.115e-03 1.768e-03
92 1 5.667e+00 5.666e+00 7.431e+00 -3.095e-03 -4.181e-03 1.702e-03
93 1 3.894e+00 5.666e+00 9.205e+00 -2.892e-03 -5.730e-03 1.959e-03
94 1 9.202e+00 5.666e+00 7.431e+00 -2.416e-03 -3.793e-03 1.526e-03
95 1 7.435e+00 5.661e+00 9.203e+00 -3.986e-03 -5.816e-03 5.731e-03
96 1 3.496e-01 7.436e+00 7.433e+00 -3.252e-03 -4.816e-03 1.067e-03
97 1 2.123e+00 9.205e+00 7.434e+00 -2.239e-03 -4.487e-03 1.920e-03
98 1 2.124e+00 7.433e+00 9.203e+00 -1.499e-03 -5.501e-03 8.155e-04
99 1 3.521e-01 9.203e+00 9.205e+00 -2.250e-03 -5.362e-03 2.160e-03
100 1 3.897e+00 7.434e+00 7.432e+00 1.082e-03 -3.878e-03 -3.193e-03
101 1 5.664e+00 9.203e+00 7.431e+00 -2.836e-03 -3.941e-03 -2.336e-04
102 1 5.661e+00 7.434e+00 9.204e+00 -5.488e-03 -4.747e-03 3.224e-03
103 1 3.893e+00 9.202e+00 9.203e+00 -2.935e-03 -5.525e-03 2.090e-03
104 1 7.434e+00 7.434e+00 7.443e+00 -7.093e-03 -6.371e-03 1.294e-02
105 1 9.203e+00 9.201e+00 7.432e+00 -2.354e-03 -6.794e-03 1.564e-03
106 1 9.206e+00 7.435e+00 9.205e+00 -7.242e-04 -3.412e-03 3.545e-03
107 1 7.433e+00 9.205e+00 9.203e+00 -4.103e-03 -5.255e-04 2.922e-03
ITEM: TIMESTEP
0
ITEM: NUMBER OF ATOMS
107
ITEM: BOX BOUNDS xy xz yz pp pp pp
                     0.00000000000000e+00 1.06000000000000e+01 0.00000000000000e+00
0.00000000000000e+00	1.06000000000000e+01	0.00000000000000e+00
0.00000000000000e+00	1.06000000000000e+01	0.00000000000000e+00
ITEM: ATOMS id type x y z DisplacementX DisplacementY DisplacementZ
1 1 3.526e-01 3.519e-01 3.551e-01 -1.072e-03 4.099e-03 -6.496e-03
2 1 2.123e+00 2.125e+00 3.544e-01 -1.073e-03 2.442e-03 -7.083e-03
3 1 2.122e+00 3.548e-01 2.125e+00 -1.267e-03 2.055e-03 -6.119e-03
4 1 3.559e-01 2.121e+00 2.125e+00 1.256e-03 2.923e-03 -4.432e-03
5 1 3.895e+00 3.517e-01 3.539e-01 -1.577e-03 2.090e-03 -8.918e-03
6 1 5.665e+00 2.123e+00 3.560e-01 -6.658e-04 2.681e-03 -8.572e-03
7 1 5.666e+00 3.536e-01 2.126e+00 2.747e-03 -1.035e-03 -7.827e-03
8 1 3.894e+00 2.125e+00 2.123e+00 2.466e-05 6.845e-04 -7.787e-03
9 1 7.434e+00 3.484e-01 3.573e-01 4.921e-04 4.646e-03 -9.297e-03
10 1 9.204e+00 2.125e+00 3.544e-01 -2.435e-04 3.497e-03 -6.730e-03
11 1 9.202e+00 3.499e-01 2.127e+00 1.683e-03 4.449e-03 -4.057e-03
12 1 7.433e+00 2.125e+00 2.123e+00 -3.603e-03 2.395e-03 -7.945e-03
13 1 3.501e-01 3.894e+00 3.549e-01 -1.117e-03 2.422e-03 -6.351e-03
14 1 2.125e+00 3.894e+00 2.124e+00 -1.117e-03 7.716e-04 -5.000e-03
15 1 3.894e+00 3.895e+00 3.552e-01 -1.730e-03 2.161e-03 -7.198e-03
16 1 5.666e+00 3.897e+00 2.125e+00 -1.516e-03 3.557e-03 -7.018e-03
17 1 7.434e+00 3.896e+00 3.555e-01 -1.860e-03 4.801e-03 -5.824e-03
18 1 9.202e+00 3.896e+00 2.127e+00 2.996e-03 1.849e-03 -2.722e-03
19 1 3.501e-01 3.521e-01 3.893e+00 -1.316e-03 6.841e-04 -5.112e-03
20 1 2.125e+00 2.125e+00 3.895e+00 1.255e-03 6.825e-04 -5.703e-03
21 1 3.895e+00 3.515e-01 3.893e+00 3.238e-03 -2.339e-03 -3.958e-03
22 1 5.663e+00 2.123e+00 3.893e+00 -4.583e-03 2.330e-03 -7.388e-03
23 1 7.434e+00 3.635e-01 3.895e+00 -1.453e-03 1.392e-02 -6.065e-03
24 1 9.207e+00 2.123e+00 3.894e+00 6.600e-04 3.185e-03 -3.026e-03
25 1 3.502e-01 3.898e+00 3.893e+00 -2.993e-04 4.908e-04 -6.995e-03
26 1 3.898e+00 3.896e+00 3.895e+00 6.721e-04 4.511e-03 -2.907e-03
27 1 7.433e+00 3.886e+00 3.894e+00 7.194e-03 -8.034e-03 -2.289e-03
28 1 2.124e+00 3.522e-01 5.664e+00 -3.563e-04 1.348e-03 -5.356e-03
29 1 3.551e-01 2.124e+00 5.663e+00 6.235e-04 1.203e-03 -6.197e-03
30 1 5.665e+00 3.507e-01 5.661e+00 1.815e-03 8.408e-04 -3.838e-03
31 1 3.895e+00 2.125e+00 5.664e+00 2.059e-05 2.549e-03 -6.187e-03
32 1 9.203e+00 3.526e-01 5.664e+00 -9.021e-04 -3.664e-05 -7.175e-03
33 1 7.434e+00 2.125e+00 5.667e+00 8.695e-05 4.076e-03 -4.054e-03
34 1 2.123e+00 3.895e+00 5.663e+00 -7.949e-04 1.213e-03 -5.865e-03
35 1 5.665e+00 3.897e+00 5.663e+00 1.480e-03 5.081e-03 -6.192e-03
36 1 9.202e+00 3.897e+00 5.662e+00 1.770e-03 2.216e-03 -7.813e-03
37 1 3.534e-01 3.531e-01 7.433e+00 -1.565e-03 1.707e-03 -7.588e-03
38 1 2.123e+00 2.123e+00 7.434e+00 -8.775e-04 2.317e-03 -6.950e-03
39 1 2.125e+00 3.551e-01 9.203e+00 -1.640e-03 2.798e-03 -7.498e-03
40 1 3.545e-01 2.125e+00 9.204e+00 -1.202e-03 3.102e-03 -7.366e-03
41 1 3.895e+00 3.525e-01 7.435e+00 -8.537e-04 2.563e-03 -6.464e-03
42 1 5.664e+00 2.124e+00 7.433e+00 3.523e-04 3.071e-03 -7.160e-03
43 1 5.665e+00 3.541e-01 9.205e+00 -3.132e-03 4.301e-03 -9.937e-03
44 1 3.893e+00 2.125e+00 9.203e+00 -1.469e-03 2.728e-03 -7.991e-03
45 1 7.434e+00 3.502e-01 7.429e+00 -2.091e-03 7.053e-04 -8.655e-03
46 1 9.202e+00 2.123e+00 7.433e+00 -5.659e-05 2.512e-03 -7.853e-03
47 1 9.204e+00 3.522e-01 9.201e+00 -1.743e-03 4.782e-03 -8.482e-03
48 1 7.433e+00 2.124e+00 9.204e+00 -1.095e-03 4.146e-03 -9.760e-03
49 1 3.524e-01 3.897e+00 7.433e+00 -1.531e-03 2.713e-03 -8.275e-03
50 1 2.122e+00 3.894e+00 9.203e+00 -1.651e-03 2.536e-03 -7.507e-03
51 1 3.896e+00 3.896e+00 7.433e+00 -1.251e-03 3.302e-03 -7.569e-03
52 1 5.665e+00 3.895e+00 9.206e+00 -2.682e-03 3.208e-03 -9.513e-03
53 1 7.433e+00 3.896e+00 7.430e+00 -2.939e-03 7.347e-03 -1.239e-02
54 1 9.203e+00 3.895e+00 9.204e+00 -2.526e-03 4.064e-03 -9.035e-03
55 1 2.125e+00 5.663e+00 3.545e-01 -2.190e-03 1.304e-03 -6.167e-03
56 1 3.505e-01 5.665e+00 2.126e+00 -3.718e-03 -4.823e-03 -5.881e-03
57 1 5.667e+00 5.667e+00 3.559e-01 -5.325e-03 1.199e-04 -1.035e-02
58 1 3.896e+00 5.667e+00 2.125e+00 -5.079e-04 9.887e-04 7.564e-04
59 1 9.204e+00 5.665e+00 3.554e-01 -2.037e-03 6.726e-03 -6.269e-03
60 1 7.433e+00 5.675e+00 2.132e+00 -4.414e-02 2.287e-02 -2.475e-02
61 1 3.517e-01 7.435e+00 3.594e-01 -2.618e-03 4.804e-03 -4.970e-03
62 1 2.123e+00 9.205e+00 3.552e-01 -2.444e-03 2.572e-03 -6.888e-03
63 1 2.124e+00 7.433e+00 2.120e+00 -2.351e-03 2.627e-03 -6.996e-03
64 1 3.513e-01 9.201e+00 2.125e+00 -2.507e-03 9.898e-04 -5.059e-03
65 1 3.897e+00 7.434e+00 3.571e-01 -3.947e-03 1.842e-03 -7.637e-03
66 1 5.665e+00 9.201e+00 3.574e-01 -4.628e-03 2.571e-03 -1.492e-02
67 1 5.674e+00 7.434e+00 2.132e+00 5.787e-01 -2.552e-02 5.380e-01
68 1 3.898e+00 9.202e+00 2.126e+00 -2.552e-03 3.100e-03 -4.345e-03
69 1 7.435e+00 7.434e+00 3.454e-01 -1.378e-02 9.093e-03 -2.665e-02
70 1 9.203e+00 9.202e+00 3.565e-01 -2.727e-03 9.092e-03 -7.589e-03
71 1 9.193e+00 7.435e+00 2.133e+00 -6.306e-02 -2.228e-02 -5.450e-03
72 1 7.433e+00 9.196e+00 2.134e+00 1.099e-01 -5.303e-01 4.623e-01
73 1 2.122e+00 5.663e+00 3.894e+00 -3.056e-03 1.059e-03 -5.315e-03
74 1 5.674e+00 5.673e+00 3.894e+00 -4.987e-03 2.739e-03 -6.711e-02
75 1 9.195e+00 5.673e+00 3.894e+00 -4.746e-01 5.448e-01 -1.140e-01
76 1 3.630e-01 7.432e+00 3.895e+00 5.431e-03 -3.233e-03 9.453e-03
77 1 2.124e+00 9.207e+00 3.896e+00 -2.880e-03 5.525e-03 -5.589e-03
78 1 3.885e+00 7.433e+00 3.894e+00 -1.081e-02 -8.232e-04 -7.491e-03
79 1 5.673e+00 9.194e+00 3.895e+00 -1.243e-01 -1.387e-02 2.129e-02
80 1 9.195e+00 9.195e+00 3.895e+00 -4.111e-02 -6.423e-03 -2.310e-02
81 1 3.512e-01 5.667e+00 5.663e+00 -2.481e-03 3.015e-03 -7.081e-03
82 1 3.898e+00 5.666e+00 5.663e+00 -6.952e-04 -4.584e-04 -3.307e-03
83 1 7.435e+00 5.673e+00 5.654e+00 -8.590e-02 -5.761e-02 2.597e-02
84 1 2.124e+00 7.437e+00 5.666e+00 -2.494e-03 3.873e-03 -2.822e-03
85 1 3.513e-01 9.203e+00 5.662e+00 -3.287e-03 1.344e-04 -4.693e-03
86 1 5.673e+00 7.435e+00 5.655e+00 4.517e-02 4.334e-02 -8.191e-02
87 1 3.898e+00 9.201e+00 5.664e+00 9.824e-04 -7.567e-04 -1.543e-03
88 1 9.196e+00 7.434e+00 5.653e+00 -1.335e-02 7.633e-02 -3.470e-02
89 1 7.435e+00 9.195e+00 5.654e+00 3.147e-02 -4.356e-02 -4.855e-02
90 1 2.124e+00 5.665e+00 7.432e+00 -1.558e-03 1.813e-03 -6.423e-03
91 1 3.539e-01 5.666e+00 9.204e+00 -2.899e-03 4.241e-03 -8.008e-03
92 1 5.667e+00 5.666e+00 7.431e+00 -6.553e-03 8.990e-03 -1.036e-02
93 1 3.894e+00 5.666e+00 9.205e+00 -3.775e-03 3.001e-03 -9.999e-03
94 1 9.202e+00 5.666e+00 7.431e+00 -6.403e-03 2.891e-03 -1.355e-02
95 1 7.435e+00 5.661e+00 9.203e+00 -1.159e-03 1.184e-03 -6.994e-03
96 1 3.496e-01 7.436e+00 7.433e+00 -5.870e-03 1.486e-03 -1.197e-02
97 1 2.123e+00 9.205e+00 7.434e+00 -1.499e-03 1.391e-03 -5.930e-03
98 1 2.124e+00 7.433e+00 9.203e+00 -2.978e-03 2.437e-03 -8.568e-03
99 1 3.521e-01 9.203e+00 9.205e+00 -2.481e-03 4.403e-03 -8.132e-03
100 1 3.897e+00 7.434e+00 7.432e+00 -1.569e-03 3.261e-03 -6.234e-03
101 1 5.664e+00 9.203e+00 7.431e+00 -4.618e-03 5.980e-03 -9.802e-03
102 1 5.661e+00 7.434e+00 9.204e+00 -3.498e-03 4.846e-03 -7.897e-03
103 1 3.893e+00 9.202e+00 9.203e+00 -3.428e-03 3.445e-03 -1.006e-02
104 1 7.434e+00 7.434e+00 7.443e+00 -4.388e-03 9.943e-03 -3.609e-03
105 1 9.203e+00 9.201e+00 7.432e+00 -4.013e-03 3.897e-03 -1.082e-02
106 1 9.206e+00 7.435e+00 9.205e+00 -2.338e-03 3.640e-03 -5.545e-03
107 1 7.433e+00 9.205e+00 9.203e+00 -4.389e-03 6.512e-03 -5.709e-03
ITEM: TIMESTEP
0
ITEM: NUMBER OF ATOMS
107