ITEM: TIMESTEP
0
ITEM: NUMBER OF ATOMS
47
ITEM: BOX BOUNDS xy xz yz pp pp pp
                     0.00000000000000e+00 1.06200000000000e+01 0.00000000000000e+00
0.00000000000000e+00	1.06200000000000e+01	0.00000000000000e+00
0.00000000000000e+00	1.06200000000000e+01	0.00000000000000e+00
ITEM: ATOMS id type x y z DisplacementX DisplacementY DisplacementZ
1 1 3.521e+00 1.023e-04 -3.524e+00 -1.033e-02 9.397e-05 1.025e-02
2 1 1.761e+00 1.772e+00 3.549e+00 -1.994e-02 -4.054e-03 1.372e-02
3 1 -3.549e+00 -1.771e+00 -1.760e+00 -1.463e-02 2.576e-03 1.893e-02
4 1 -3.550e+00 1.771e+00 -1.762e+00 -1.368e-02 -3.935e-03 1.861e-02
5 1 1.759e+00 -1.771e+00 3.548e+00 -1.907e-02 2.799e-03 1.707e-02
6 1 3.529e+00 3.538e+00 6.206e-03 -1.887e-02 -5.957e-04 1.649e-02
7 1 -7.100e-03 -3.539e+00 -3.529e+00 -2.020e-02 8.370e-04 1.975e-02
8 1 -6.414e-03 3.536e+00 -3.530e+00 -1.888e-02 -8.980e-04 1.722e-02
9 1 3.530e+00 -3.539e+00 7.951e-03 -1.966e-02 1.893e-03 1.822e-02
10 1 -3.549e+00 -1.770e+00 1.777e+00 -1.652e-02 2.082e-03 1.722e-02
11 1 -3.548e+00 1.769e+00 1.778e+00 -1.447e-02 -1.369e-03 1.640e-02
12 1 -1.778e+00 -1.767e+00 3.550e+00 -1.764e-02 9.435e-04 1.513e-02
13 1 -1.777e+00 1.769e+00 3.547e+00 -1.614e-02 -2.085e-03 1.380e-02
14 1 -1.778e+00 -3.540e+00 1.780e+00 -1.538e-02 6.059e-04 1.673e-02
15 1 -1.779e+00 3.539e+00 1.777e+00 -1.509e-02 -9.860e-04 1.683e-02
16 1 1.761e+00 -1.761e+00 -3.522e+00 -1.739e-02 -8.527e-03 9.485e-03
17 1 1.761e+00 1.762e+00 -3.522e+00 -1.827e-02 6.964e-03 9.116e-03
18 1 3.521e+00 -1.761e+00 -1.761e+00 -9.533e-03 -6.696e-03 1.744e-02
19 1 3.521e+00 1.761e+00 -1.760e+00 -1.124e-02 5.868e-03 1.804e-02
20 1 1.762e+00 3.535e+00 1.776e+00 -1.834e-02 1.498e-04 1.995e-02
21 1 -1.776e+00 -3.537e+00 -1.760e+00 -1.767e-02 -7.544e-04 1.801e-02
22 1 1.761e+00 -3.535e+00 1.776e+00 -1.956e-02 9.073e-04 1.944e-02
23 1 -1.776e+00 3.537e+00 -1.759e+00 -1.865e-02 1.118e-03 1.823e-02
24 1 3.529e+00 1.767e+00 1.776e+00 -1.794e-02 6.664e-04 1.804e-02
25 1 -1.776e+00 -1.769e+00 -3.529e+00 -1.760e-02 -1.558e-03 1.570e-02
26 1 -1.774e+00 1.768e+00 -3.531e+00 -1.712e-02 3.796e-04 1.655e-02
27 1 3.530e+00 -1.769e+00 1.777e+00 -1.565e-02 -2.751e-04 1.674e-02
28 1 3.523e+00 -1.565e-03 -1.560e-04 -4.466e-04 -1.166e-03 2.494e-02
29 1 -3.849e-04 1.106e-03 -3.521e+00 -2.617e-02 6.470e-04 -1.903e-03
30 1 1.761e+00 -3.551e+00 -1.761e+00 -1.779e-02 1.031e-02 1.820e-02
31 1 1.759e+00 3.550e+00 -1.761e+00 -2.014e-02 -1.216e-02 1.883e-02
32 1 -7.722e-03 3.537e+00 7.737e-03 -1.824e-02 1.148e-02 1.849e-02
33 1 -6.615e-03 -3.537e+00 6.723e-03 -1.869e-02 -1.181e-02 1.780e-02
34 1 -1.145e-02 -6.826e-04 3.550e+00 -1.670e-02 -7.522e-04 2.593e-02
35 1 -3.549e+00 1.040e-04 1.144e-02 -2.602e-02 4.249e-04 1.576e-02
36 1 1.201e-03 -1.375e-03 9.198e-04 1.733e+00 -8.592e-04 -1.734e+00
37 1 1.760e+00 1.760e+00 1.727e-03 -2.502e-02 4.612e-04 2.444e-02
38 1 -9.572e-04 -1.760e+00 -1.762e+00 -2.499e-02 -7.284e-04 2.503e-02
39 1 -9.107e-04 1.761e+00 -1.763e+00 -2.476e-02 -4.108e-04 2.592e-02
40 1 1.761e+00 -1.763e+00 8.590e-04 -2.741e-02 -1.901e-03 2.520e-02
41 1 1.760e+00 -5.924e-04 1.789e+00 -2.615e-02 -5.966e-05 -7.273e-04
42 1 -1.788e+00 -1.811e-04 -1.760e+00 2.804e-03 -6.898e-04 2.575e-02
43 1 -7.949e-03 1.768e+00 1.777e+00 -1.936e-02 -8.630e-03 8.027e-03
44 1 -1.777e+00 -1.768e+00 6.939e-03 -1.050e-02 7.334e-03 1.831e-02
45 1 -7.662e-03 -1.769e+00 1.777e+00 -1.942e-02 7.943e-03 9.556e-03
46 1 -1.778e+00 1.769e+00 8.366e-03 -9.364e-03 -7.374e-03 1.692e-02
47 1 -1.774e+00 8.282e-04 1.775e+00 -1.093e-02 1.453e-04 1.316e-02
ITEM: TIMESTEP
0
ITEM: NUMBER OF ATOMS
47
ITEM: BOX BOUNDS xy xz yz pp pp pp
                     0.00000000000000e+00 1.06200000000000e+01 0.00000000000000e+00
0.00000000000000e+00	1.06200000000000e+01	0.00000000000000e+00
0.00000000000000e+00	1.06200000000000e+01	0.00000000000000e+00
ITEM: ATOMS id type x y z DisplacementX DisplacementY DisplacementZ
48 1 1.304e-03 3.523e+00 -3.522e+00 -9.537e-04 -1.130e-02 9.129e-03
49 1 -1.772e+00 1.760e+00 3.549e+00 3.121e-03 -1.666e-02 1.192e-02
50 1 1.773e+00 -3.550e+00 -1.758e+00 -4.816e-03 -1.331e-02 1.854e-02
51 1 -1.772e+00 -3.549e+00 -1.760e+00 4.101e-03 -1.330e-02 1.841e-02
52 1 1.773e+00 1.761e+00 3.549e+00 -3.014e-03 -1.667e-02 1.573e-02
53 1 -3.539e+00 3.528e+00 7.991e-03 2.432e-03 -1.913e-02 1.811e-02
54 1 3.536e+00 -6.724e-03 -3.531e+00 -1.098e-03 -1.927e-02 1.765e-02
55 1 -3.537e+00 -7.612e-03 -3.527e+00 2.994e-04 -1.880e-02 1.704e-02
56 1 3.539e+00 3.528e+00 7.404e-03 1.860e-04 -1.783e-02 1.770e-02
57 1 1.769e+00 -3.550e+00 1.778e+00 -3.159e-03 -1.572e-02 1.686e-02
58 1 -1.769e+00 -3.549e+00 1.779e+00 1.132e-03 -1.441e-02 1.698e-02
59 1 1.771e+00 -1.779e+00 3.549e+00 -8.011e-04 -1.528e-02 1.453e-02
60 1 -1.769e+00 -1.778e+00 3.550e+00 7.116e-04 -1.569e-02 1.387e-02
61 1 3.539e+00 -1.778e+00 1.779e+00 -2.527e-03 -1.589e-02 1.551e-02
62 1 -3.537e+00 -1.779e+00 1.779e+00 2.142e-03 -1.581e-02 1.458e-02
63 1 1.761e+00 1.760e+00 -3.523e+00 8.309e-03 -1.831e-02 9.754e-03
64 1 -1.760e+00 1.763e+00 -3.522e+00 -9.402e-03 -1.779e-02 9.687e-03
65 1 1.762e+00 3.522e+00 -1.761e+00 5.987e-03 -1.088e-02 1.958e-02
66 1 -1.762e+00 3.520e+00 -1.761e+00 -8.436e-03 -9.984e-03 1.712e-02
67 1 -3.537e+00 1.760e+00 1.776e+00 -1.094e-03 -1.900e-02 1.915e-02
68 1 3.536e+00 -1.776e+00 -1.760e+00 -1.668e-03 -1.715e-02 1.826e-02
69 1 3.538e+00 1.762e+00 1.775e+00 7.414e-04 -1.632e-02 1.941e-02
70 1 -3.536e+00 -1.776e+00 -1.761e+00 5.164e-04 -1.838e-02 1.968e-02
71 1 -1.768e+00 3.528e+00 1.776e+00 5.375e-04 -1.742e-02 1.470e-02
72 1 1.768e+00 -1.776e+00 -3.528e+00 -1.055e-03 -1.656e-02 1.622e-02
73 1 -1.769e+00 -1.777e+00 -3.529e+00 3.796e-04 -1.894e-02 1.430e-02
74 1 1.768e+00 3.528e+00 1.776e+00 3.613e-04 -1.853e-02 1.701e-02
75 1 -3.613e-04 3.521e+00 -4.020e-04 4.943e-04 2.263e-03 2.512e-02
76 1 -1.046e-04 -1.661e-04 -3.523e+00 -8.446e-05 -2.655e-02 -1.968e-03
77 1 3.549e+00 1.760e+00 -1.761e+00 -1.129e-02 -1.786e-02 1.947e-02
78 1 -3.549e+00 1.761e+00 -1.760e+00 1.338e-02 -1.731e-02 1.796e-02
79 1 -3.539e+00 -7.347e-03 7.469e-03 -1.243e-02 -1.865e-02 1.761e-02
80 1 3.538e+00 -6.968e-03 6.567e-03 1.328e-02 -1.896e-02 1.733e-02
81 1 -3.874e-04 -1.083e-02 3.548e+00 -7.948e-04 -1.645e-02 2.465e-02
82 1 -3.998e-04 -3.547e+00 9.811e-03 4.745e-04 -2.517e-02 1.533e-02
83 1 6.156e-04 -1.471e-03 -4.222e-04 3.396e-04 1.735e+00 -1.735e+00
84 1 -1.761e+00 1.762e+00 -9.712e-05 1.046e-03 -2.591e-02 2.459e-02
85 1 1.763e+00 1.225e-03 -1.760e+00 7.188e-04 -2.409e-02 2.497e-02
86 1 -1.762e+00 -1.044e-03 -1.762e+00 6.159e-04 -2.514e-02 2.643e-02
87 1 1.761e+00 1.761e+00 -1.138e-03 -1.264e-03 -2.578e-02 2.425e-02
88 1 1.433e-03 1.761e+00 1.789e+00 2.655e-03 -2.531e-02 5.736e-04
89 1 -8.596e-04 -1.789e+00 -1.760e+00 5.750e-05 1.856e-03 2.470e-02
90 1 -1.769e+00 -6.043e-03 1.778e+00 6.598e-03 -1.620e-02 9.208e-03
91 1 1.766e+00 -1.777e+00 7.311e-03 -8.158e-03 -1.137e-02 1.773e-02
92 1 1.769e+00 -7.284e-03 1.778e+00 -7.318e-03 -1.767e-02 9.993e-03
93 1 -1.769e+00 -1.776e+00 7.208e-03 8.125e-03 -8.544e-03 1.856e-02
94 1 -2.726e-04 -1.775e+00 1.775e+00 7.107e-04 -1.159e-02 9.938e-03
ITEM: TIMESTEP
0
ITEM: NUMBER OF ATOMS
47
ITEM: BOX BOUNDS xy xz yz pp pp pp
                     0.00000000000000e+00 1.06200000000000e+01 0.00000000000000e+00
0.00000000000000e+00	1.06200000000000e+01	0.00000000000000e+00
0.00000000000000e+00	1.06200000000000e+01	0.00000000000000e+00
ITEM: ATOMS id type x y z DisplacementX DisplacementY DisplacementZ
95 1 -3.521e+00 1.263e-03 -3.522e+00 9.754e-03 -1.972e-04 9.646e-03
96 1 -1.762e+00 1.773e+00 3.550e+00 1.736e-02 -4.193e-03 1.342e-02
97 1 3.549e+00 -1.771e+00 -1.761e+00 1.393e-02 3.301e-03 1.766e-02
98 1 3.550e+00 1.773e+00 -1.760e+00 1.458e-02 -5.267e-03 1.854e-02
99 1 -1.759e+00 -1.771e+00 3.548e+00 1.917e-02 1.891e-03 1.666e-02
100 1 -3.529e+00 3.536e+00 7.423e-03 1.853e-02 -2.590e-03 1.721e-02
101 1 7.579e-03 -3.536e+00 -3.530e+00 1.735e-02 -5.075e-04 1.692e-02
102 1 7.213e-03 3.539e+00 -3.528e+00 1.910e-02 -1.017e-03 1.780e-02
103 1 -3.527e+00 -3.536e+00 8.756e-03 1.697e-02 2.045e-04 1.906e-02
104 1 3.549e+00 -1.770e+00 1.780e+00 1.358e-02 3.218e-04 1.506e-02
105 1 3.548e+00 1.769e+00 1.779e+00 1.578e-02 -5.820e-04 1.644e-02
106 1 1.777e+00 -1.771e+00 3.549e+00 1.552e-02 2.097e-03 1.270e-02
107 1 1.779e+00 1.769e+00 3.549e+00 1.433e-02 -7.915e-04 1.471e-02
108 1 1.780e+00 -3.539e+00 1.779e+00 1.544e-02 -4.143e-05 1.586e-02
109 1 1.780e+00 3.539e+00 1.779e+00 1.681e-02 -1.939e-03 1.521e-02
110 1 -1.760e+00 -1.760e+00 -3.523e+00 1.841e-02 -8.641e-03 8.959e-03
111 1 -1.760e+00 1.761e+00 -3.520e+00 1.650e-02 5.327e-03 1.023e-02
112 1 -3.522e+00 -1.761e+00 -1.761e+00 9.255e-03 -7.397e-03 1.769e-02
113 1 -3.521e+00 1.759e+00 -1.763e+00 9.084e-03 6.712e-03 1.783e-02
114 1 -1.759e+00 3.537e+00 1.776e+00 1.689e-02 -1.025e-03 1.693e-02
115 1 1.777e+00 -3.535e+00 -1.761e+00 1.992e-02 -2.432e-03 1.901e-02
116 1 -1.759e+00 -3.536e+00 1.775e+00 1.964e-02 -5.887e-04 1.781e-02
117 1 1.777e+00 3.538e+00 -1.761e+00 1.987e-02 -8.884e-04 1.816e-02
118 1 -3.530e+00 1.766e+00 1.778e+00 1.686e-02 1.221e-03 1.855e-02
119 1 1.776e+00 -1.768e+00 -3.530e+00 1.738e-02 -3.531e-04 1.821e-02
120 1 1.776e+00 1.769e+00 -3.528e+00 1.603e-02 9.867e-04 1.689e-02
121 1 -3.529e+00 -1.767e+00 1.777e+00 1.824e-02 2.906e-05 1.648e-02
122 1 -3.521e+00 3.513e-04 1.442e-03 -8.086e-04 3.379e-04 2.600e-02
123 1 -5.248e-04 -1.224e-03 -3.520e+00 2.569e-02 7.441e-04 -2.557e-03
124 1 -1.761e+00 -3.550e+00 -1.760e+00 1.672e-02 1.093e-02 1.919e-02
125 1 -1.761e+00 3.548e+00 -1.760e+00 1.806e-02 -1.310e-02 1.768e-02
126 1 5.930e-03 3.537e+00 6.507e-03 1.916e-02 1.117e-02 1.726e-02
127 1 7.476e-03 -3.537e+00 8.118e-03 1.724e-02 -1.143e-02 1.843e-02
128 1 1.218e-02 -1.670e-03 3.549e+00 1.651e-02 1.028e-03 2.684e-02
129 1 3.550e+00 3.414e-04 1.069e-02 2.564e-02 -3.221e-04 1.504e-02
130 1 -9.169e-04 1.499e-04 -4.973e-04 -1.735e+00 -8.677e-04 -1.737e+00
131 1 -1.760e+00 1.760e+00 1.517e-04 2.551e-02 2.140e-04 2.714e-02
132 1 -4.594e-05 -1.760e+00 -1.760e+00 2.718e-02 9.530e-04 2.533e-02
133 1 1.806e-03 1.760e+00 -1.759e+00 2.441e-02 -6.989e-05 2.528e-02
134 1 -1.762e+00 -1.761e+00 -1.029e-03 2.433e-02 -9.333e-04 2.550e-02
135 1 -1.760e+00 1.226e-05 1.788e+00 2.499e-02 4.176e-04 9.415e-04
136 1 1.788e+00 1.476e-04 -1.761e+00 -1.378e-03 4.930e-04 2.490e-02
137 1 7.754e-03 1.768e+00 1.776e+00 1.744e-02 -5.773e-03 1.088e-02
138 1 1.776e+00 -1.768e+00 8.274e-03 9.929e-03 8.573e-03 2.033e-02
139 1 7.860e-03 -1.765e+00 1.778e+00 1.791e-02 7.179e-03 1.077e-02
140 1 1.775e+00 1.769e+00 7.074e-03 8.950e-03 -7.753e-03 1.787e-02
141 1 1.775e+00 5.417e-05 1.775e+00 9.946e-03 -1.914e-03 1.009e-02
ITEM: TIMESTEP
0
ITEM: NUMBER OF ATOMS
47
ITEM: BOX BOUNDS xy xz yz pp pp pp
                     0.00000000000000e+00 1.06200000000000e+01 0.00000000000000e+00
0.00000000000000e+00	1.06200000000000e+01	0.00000000000000e+00
0.00000000000000e+00	1.06200000000000e+01	0.00000000000000e+00
ITEM: ATOMS id type x y z DisplacementX DisplacementY DisplacementZ
142 1 3.340e-04 -3.521e+00 -3.520e+00 -6.847e-04 1.085e-02 1.040e-02
143 1 -1.769e+00 -1.761e+00 3.548e+00 4.654e-03 1.549e-02 1.612e-02
144 1 1.772e+00 3.550e+00 -1.761e+00 -2.985e-03 1.477e-02 1.929e-02
145 1 -1.772e+00 3.548e+00 -1.761e+00 3.360e-03 1.231e-02 1.851e-02
146 1 1.772e+00 -1.762e+00 3.549e+00 -3.182e-03 1.785e-02 1.400e-02
147 1 -3.539e+00 -3.527e+00 7.958e-03 -9.439e-04 1.807e-02 1.912e-02
148 1 3.537e+00 7.761e-03 -3.530e+00 -6.140e-04 2.084e-02 1.854e-02
149 1 -3.537e+00 7.080e-03 -3.529e+00 1.645e-03 1.766e-02 1.839e-02
150 1 3.537e+00 -3.529e+00 7.318e-03 -8.595e-04 1.665e-02 1.855e-02
151 1 1.769e+00 3.551e+00 1.779e+00 -1.813e-03 1.326e-02 1.550e-02
152 1 -1.769e+00 3.550e+00 1.779e+00 5.724e-05 1.261e-02 1.524e-02
153 1 1.770e+00 1.779e+00 3.550e+00 -1.640e-03 1.599e-02 1.431e-02
154 1 -1.767e+00 1.779e+00 3.549e+00 9.640e-04 1.367e-02 1.507e-02
155 1 3.539e+00 1.777e+00 1.778e+00 -4.207e-03 1.712e-02 1.663e-02
156 1 -3.538e+00 1.779e+00 1.778e+00 1.753e-03 1.586e-02 1.408e-02
157 1 1.761e+00 -1.760e+00 -3.522e+00 7.773e-03 1.724e-02 1.087e-02
158 1 -1.760e+00 -1.761e+00 -3.522e+00 -9.316e-03 1.717e-02 8.676e-03
159 1 1.761e+00 -3.522e+00 -1.760e+00 6.757e-03 9.037e-03 1.839e-02
160 1 -1.760e+00 -3.522e+00 -1.760e+00 -7.852e-03 9.008e-03 1.791e-02
161 1 -3.536e+00 -1.758e+00 1.775e+00 -1.204e-03 1.923e-02 1.794e-02
162 1 3.537e+00 1.776e+00 -1.760e+00 -1.536e-04 1.903e-02 1.836e-02
163 1 3.536e+00 -1.762e+00 1.776e+00 1.325e-04 1.790e-02 1.726e-02
164 1 -3.537e+00 1.774e+00 -1.761e+00 -7.002e-04 1.977e-02 2.029e-02
165 1 -1.770e+00 -3.529e+00 1.776e+00 8.165e-04 1.779e-02 1.888e-02
166 1 1.766e+00 1.776e+00 -3.530e+00 -9.730e-05 1.832e-02 1.809e-02
167 1 -1.768e+00 1.776e+00 -3.527e+00 -7.966e-04 1.730e-02 1.689e-02
168 1 1.769e+00 -3.528e+00 1.778e+00 1.090e-03 1.666e-02 1.549e-02
169 1 1.866e-03 -3.522e+00 -7.496e-04 -1.337e-03 -2.347e-03 2.591e-02
170 1 1.913e-03 -5.980e-04 -3.520e+00 1.432e-03 2.643e-02 -9.235e-04
171 1 3.549e+00 -1.761e+00 -1.759e+00 -1.038e-02 1.832e-02 1.775e-02
172 1 -3.547e+00 -1.761e+00 -1.761e+00 1.028e-02 2.080e-02 1.742e-02
173 1 -3.537e+00 6.733e-03 9.168e-03 -1.166e-02 1.788e-02 1.837e-02
174 1 3.538e+00 5.801e-03 9.151e-03 9.707e-03 1.798e-02 1.811e-02
175 1 -1.145e-03 1.063e-02 3.547e+00 -2.792e-04 1.550e-02 2.468e-02
176 1 5.213e-04 3.549e+00 1.213e-02 -8.608e-04 2.465e-02 1.542e-02
177 1 -5.109e-04 3.614e-04 -1.029e-03 -4.857e-04 -1.734e+00 -1.735e+00
178 1 -1.761e+00 -1.761e+00 -2.557e-04 -1.109e-03 2.523e-02 2.635e-02
179 1 1.762e+00 4.099e-04 -1.760e+00 -1.719e-03 2.566e-02 2.705e-02
180 1 -1.762e+00 -2.515e-04 -1.760e+00 2.367e-03 2.685e-02 2.514e-02
181 1 1.760e+00 -1.761e+00 5.468e-04 -7.777e-04 2.395e-02 2.393e-02
182 1 -1.890e-04 -1.759e+00 1.787e+00 6.376e-04 2.570e-02 -2.058e-03
183 1 3.899e-04 1.790e+00 -1.761e+00 1.646e-03 -2.162e-03 2.508e-02
184 1 -1.769e+00 8.882e-03 1.777e+00 7.970e-03 1.794e-02 9.348e-03
185 1 1.769e+00 1.777e+00 7.062e-03 -8.027e-03 9.713e-03 1.931e-02
186 1 1.768e+00 6.865e-03 1.776e+00 -6.706e-03 1.566e-02 9.975e-03
187 1 -1.768e+00 1.776e+00 7.841e-03 6.951e-03 1.070e-02 1.983e-02
188 1 -1.742e-03 1.777e+00 1.776e+00 1.223e-04 9.887e-03 1.144e-02
ITEM: TIMESTEP
0
ITEM: NUMBER OF ATOMS
47
ITEM: BOX BOUNDS xy xz yz pp pp pp
                     0.00000000000000e+00 1.06200000000000e+01 0.00000000000000e+00
0.00000000000000e+00	1.06200000000000e+01	0.00000000000000e+00
0.00000000000000e+00	1.06200000000000e+01	0.00000000000000e+00
ITEM: ATOMS id type x y z DisplacementX DisplacementY DisplacementZ
189 1 3.522e+00 3.150e-04 3.522e+00 -1.063e-02 -2.881e-04 -9.022e-03
190 1 -3.549e+00 1.773e+00 1.760e+00 -1.566e-02 -4.567e-03 -1.978e-02
191 1 1.759e+00 -1.770e+00 -3.548e+00 -1.770e-02 3.419e-03 -1.521e-02
192 1 1.761e+00 1.774e+00 -3.551e+00 -1.830e-02 -4.368e-03 -1.363e-02
193 1 -3.548e+00 -1.773e+00 1.759e+00 -1.678e-02 2.518e-03 -1.806e-02
194 1 -8.091e-03 3.539e+00 3.529e+00 -1.810e-02 -1.181e-04 -1.890e-02
195 1 3.529e+00 -3.538e+00 -8.019e-03 -1.833e-02 -1.038e-03 -1.780e-02
196 1 3.530e+00 3.537e+00 -9.000e-03 -1.874e-02 -9.597e-04 -1.872e-02
197 1 -6.909e-03 -3.537e+00 3.528e+00 -1.844e-02 2.563e-03 -1.739e-02
198 1 -1.778e+00 -1.771e+00 -3.550e+00 -1.446e-02 1.586e-03 -1.234e-02
199 1 -1.779e+00 1.771e+00 -3.549e+00 -1.605e-02 -2.705e-03 -1.256e-02
200 1 -3.549e+00 -1.767e+00 -1.779e+00 -1.338e-02 -6.031e-04 -1.447e-02
201 1 -3.549e+00 1.770e+00 -1.779e+00 -1.471e-02 -2.753e-03 -1.475e-02
202 1 -1.779e+00 -3.538e+00 -1.780e+00 -1.344e-02 3.756e-03 -1.373e-02
203 1 -1.779e+00 3.541e+00 -1.777e+00 -1.707e-02 -2.437e-03 -1.557e-02
204 1 3.522e+00 -1.761e+00 1.760e+00 -1.081e-02 -7.039e-03 -1.841e-02
205 1 3.520e+00 1.760e+00 1.762e+00 -1.175e-02 6.975e-03 -1.877e-02
206 1 1.761e+00 -1.759e+00 3.521e+00 -1.894e-02 -6.761e-03 -8.362e-03
207 1 1.761e+00 1.761e+00 3.521e+00 -1.675e-02 7.601e-03 -9.785e-03
208 1 -1.776e+00 3.537e+00 1.761e+00 -1.888e-02 9.684e-04 -1.701e-02
209 1 1.759e+00 -3.537e+00 -1.776e+00 -1.746e-02 -1.030e-03 -1.890e-02
210 1 -1.775e+00 -3.536e+00 1.760e+00 -1.653e-02 1.396e-03 -1.680e-02
211 1 1.761e+00 3.537e+00 -1.776e+00 -1.736e-02 -1.894e-03 -1.797e-02
212 1 -1.776e+00 1.769e+00 3.529e+00 -1.748e-02 1.372e-04 -1.735e-02
213 1 3.529e+00 -1.769e+00 -1.776e+00 -1.835e-02 -1.548e-03 -1.635e-02
214 1 3.529e+00 1.769e+00 -1.777e+00 -1.852e-02 2.325e-03 -1.630e-02
215 1 -1.778e+00 -1.768e+00 3.529e+00 -1.566e-02 -8.849e-04 -1.626e-02
216 1 1.988e-03 -9.870e-04 3.521e+00 -2.680e-02 1.397e-03 2.089e-03
217 1 3.521e+00 -2.365e-05 -5.659e-04 2.621e-03 -1.179e-03 -2.670e-02
218 1 1.761e+00 -3.550e+00 1.762e+00 -1.921e-02 1.168e-02 -1.945e-02
219 1 1.761e+00 3.549e+00 1.759e+00 -1.681e-02 -1.245e-02 -1.684e-02
220 1 -7.686e-03 3.539e+00 -6.982e-03 -1.918e-02 1.070e-02 -1.815e-02
221 1 -7.544e-03 -3.539e+00 -6.196e-03 -1.912e-02 -1.237e-02 -1.797e-02
222 1 -3.549e+00 -1.368e-04 -1.157e-02 -2.532e-02 -1.629e-04 -1.535e-02
223 1 -1.046e-02 2.821e-04 -3.547e+00 -1.467e-02 1.575e-03 -2.566e-02
224 1 9.507e-04 -2.632e-04 5.774e-04 1.735e+00 -1.342e-03 1.733e+00
225 1 5.309e-04 1.760e+00 1.761e+00 -2.647e-02 -1.012e-03 -2.545e-02
226 1 1.760e+00 -1.759e+00 -1.022e-03 -2.664e-02 1.431e-03 -2.606e-02
227 1 1.760e+00 1.759e+00 -6.650e-04 -2.574e-02 -1.930e-03 -2.505e-02
228 1 -1.617e-03 -1.760e+00 1.761e+00 -2.803e-02 -1.252e-03 -2.604e-02
229 1 -1.788e+00 -5.449e-04 1.760e+00 2.200e-03 -2.663e-05 -2.535e-02
230 1 1.761e+00 1.645e-03 -1.788e+00 -2.537e-02 -2.299e-04 1.187e-03
231 1 -1.775e+00 1.769e+00 -6.161e-03 -1.091e-02 -7.922e-03 -1.731e-02
232 1 -6.572e-03 -1.769e+00 -1.777e+00 -1.732e-02 8.837e-03 -1.059e-02
233 1 -1.777e+00 -1.768e+00 -9.001e-03 -1.032e-02 8.059e-03 -1.605e-02
234 1 -6.016e-03 1.769e+00 -1.776e+00 -1.818e-02 -9.119e-03 -1.027e-02
235 1 -1.775e+00 1.536e-03 -1.776e+00 -1.211e-02 -2.275e-03 -1.065e-02
ITEM: TIMESTEP
0
ITEM: NUMBER OF ATOMS
47
ITEM: BOX BOUNDS xy xz yz pp pp pp
                     0.00000000000000e+00 1.06200000000000e+01 0.00000000000000e+00
0.00000000000000e+00	1.06200000000000e+01	0.00000000000000e+00
0.00000000000000e+00	1.06200000000000e+01	0.00000000000000e+00
ITEM: ATOMS id type x y z DisplacementX DisplacementY DisplacementZ
236 1 3.522e+00 3.520e+00 -5.527e-05 -1.054e-02 -1.201e-02 -3.486e-04
237 1 -3.549e+00 1.760e+00 1.772e+00 -1.485e-02 -1.846e-02 -5.177e-03
238 1 1.760e+00 -3.550e+00 -1.773e+00 -1.800e-02 -1.452e-02 2.526e-03
239 1 1.760e+00 -3.549e+00 1.771e+00 -1.722e-02 -1.485e-02 -2.222e-03
240 1 -3.550e+00 1.761e+00 -1.773e+00 -1.404e-02 -1.933e-02 2.266e-03
241 1 -8.834e-03 3.531e+00 3.538e+00 -1.828e-02 -1.740e-02 -1.335e-03
242 1 3.531e+00 -6.890e-03 -3.536e+00 -1.877e-02 -1.796e-02 1.100e-03
243 1 3.530e+00 -5.683e-03 3.536e+00 -1.755e-02 -1.741e-02 -1.565e-03
244 1 -8.430e-03 3.528e+00 -3.536e+00 -1.838e-02 -1.804e-02 9.160e-04
245 1 -1.779e+00 -3.550e+00 -1.769e+00 -1.674e-02 -1.336e-02 1.832e-03
246 1 -1.780e+00 -3.550e+00 1.769e+00 -1.481e-02 -1.381e-02 -3.178e-03
247 1 -3.549e+00 -1.778e+00 -1.769e+00 -1.286e-02 -1.725e-02 3.572e-04
248 1 -3.551e+00 -1.777e+00 1.770e+00 -1.252e-02 -1.621e-02 8.023e-05
249 1 -1.779e+00 -1.777e+00 -3.539e+00 -1.659e-02 -1.422e-02 1.198e-03
250 1 -1.779e+00 -1.778e+00 3.538e+00 -1.551e-02 -1.561e-02 -1.620e-03
251 1 3.522e+00 1.760e+00 -1.762e+00 -1.278e-02 -1.781e-02 -8.944e-03
252 1 3.521e+00 1.760e+00 1.759e+00 -1.007e-02 -1.875e-02 6.899e-03
253 1 1.760e+00 3.522e+00 -1.762e+00 -1.750e-02 -9.733e-03 -7.387e-03
254 1 1.762e+00 3.521e+00 1.761e+00 -1.832e-02 -9.364e-03 8.598e-03
255 1 -1.776e+00 1.761e+00 3.537e+00 -1.910e-02 -1.839e-02 1.056e-03
256 1 1.759e+00 -1.775e+00 -3.538e+00 -1.789e-02 -1.719e-02 -1.540e-03
257 1 -1.777e+00 1.761e+00 -3.535e+00 -1.968e-02 -1.966e-02 2.850e-04
258 1 1.759e+00 -1.776e+00 3.536e+00 -1.742e-02 -1.832e-02 -7.954e-04
259 1 -1.777e+00 3.530e+00 1.769e+00 -1.756e-02 -1.651e-02 1.434e-03
260 1 3.529e+00 -1.774e+00 -1.767e+00 -1.670e-02 -1.749e-02 7.145e-04
261 1 3.528e+00 -1.777e+00 1.769e+00 -1.760e-02 -1.869e-02 -1.776e-03
262 1 -1.777e+00 3.531e+00 -1.768e+00 -1.724e-02 -1.585e-02 -3.291e-04
263 1 2.816e-04 3.521e+00 9.100e-04 -2.510e-02 8.592e-04 7.714e-04
264 1 3.520e+00 -1.632e-03 2.568e-04 3.135e-04 -2.732e-02 -1.625e-04
265 1 1.760e+00 1.762e+00 -3.549e+00 -1.898e-02 -1.775e-02 1.271e-02
266 1 1.761e+00 1.760e+00 3.549e+00 -1.853e-02 -1.847e-02 -1.270e-02
267 1 -6.815e-03 -8.531e-03 3.538e+00 -1.892e-02 -1.966e-02 1.231e-02
268 1 -7.706e-03 -8.285e-03 -3.538e+00 -1.975e-02 -1.861e-02 -1.125e-02
269 1 -3.551e+00 -1.122e-02 1.957e-03 -2.339e-02 -1.556e-02 4.588e-04
270 1 -9.929e-03 -3.547e+00 -6.465e-04 -1.453e-02 -2.570e-02 1.719e-03
271 1 -4.742e-04 -3.677e-04 -3.940e-04 1.735e+00 1.735e+00 -2.232e-04
272 1 7.112e-05 1.761e+00 1.762e+00 -2.606e-02 -2.503e-02 -6.473e-04
273 1 1.761e+00 -9.299e-05 -1.761e+00 -2.663e-02 -2.554e-02 -1.557e-03
274 1 1.761e+00 -1.139e-03 1.760e+00 -2.676e-02 -2.748e-02 -8.696e-04
275 1 5.873e-05 1.760e+00 -1.761e+00 -2.622e-02 -2.385e-02 -1.586e-03
276 1 -1.787e+00 1.763e+00 -1.655e-03 5.408e-04 -2.499e-02 7.021e-04
277 1 1.761e+00 -1.786e+00 -3.202e-04 -2.481e-02 2.209e-03 -1.007e-03
278 1 -1.777e+00 -8.199e-03 1.767e+00 -9.956e-03 -1.781e-02 -8.677e-03
279 1 -7.577e-03 -1.776e+00 -1.768e+00 -1.966e-02 -9.753e-03 8.950e-03
280 1 -1.777e+00 -8.769e-03 -1.768e+00 -9.140e-03 -1.808e-02 8.273e-03
281 1 -7.707e-03 -1.777e+00 1.768e+00 -1.904e-02 -8.921e-03 -7.298e-03
282 1 -1.774e+00 -1.776e+00 -1.591e-04 -9.653e-03 -1.107e-02 -9.049e-04
ITEM: TIMESTEP
0
ITEM: NUMBER OF ATOMS
47
ITEM: BOX BOUNDS xy xz yz pp pp pp
                     0.00000000000000e+00 1.06200000000000e+01 0.00000000000000e+00
0.00000000000000e+00	1.06200000000000e+01	0.00000000000000e+00
0.00000000000000e+00	1.06200000000000e+01	0.00000000000000e+00
ITEM: ATOMS id type x y z DisplacementX DisplacementY DisplacementZ
283 1 8.146e-04 3.522e+00 3.521e+00 -4.089e-04 -1.067e-02 -9.006e-03
284 1 1.773e+00 -3.549e+00 1.760e+00 -2.648e-03 -1.350e-02 -1.785e-02
285 1 -1.772e+00 1.760e+00 -3.548e+00 2.540e-03 -1.829e-02 -1.363e-02
286 1 1.772e+00 1.762e+00 -3.550e+00 -3.381e-03 -1.904e-02 -1.534e-02
287 1 -1.773e+00 -3.550e+00 1.759e+00 3.551e-03 -1.413e-02 -1.825e-02
288 1 3.537e+00 -6.537e-03 3.529e+00 -1.077e-03 -1.945e-02 -1.686e-02
289 1 -3.536e+00 3.531e+00 -7.770e-03 1.487e-04 -1.782e-02 -1.722e-02
290 1 3.536e+00 3.529e+00 -8.172e-03 -2.792e-03 -2.000e-02 -1.834e-02
291 1 -3.539e+00 -6.773e-03 3.528e+00 1.361e-04 -1.981e-02 -1.625e-02
292 1 -1.769e+00 -1.779e+00 -3.549e+00 1.352e-03 -1.589e-02 -1.302e-02
293 1 1.770e+00 -1.779e+00 -3.550e+00 4.335e-04 -1.587e-02 -1.387e-02
294 1 -1.768e+00 -3.549e+00 -1.780e+00 -4.120e-04 -1.422e-02 -1.694e-02
295 1 1.771e+00 -3.548e+00 -1.779e+00 -3.176e-03 -1.462e-02 -1.698e-02
296 1 -3.540e+00 -1.779e+00 -1.778e+00 1.599e-03 -1.803e-02 -1.618e-02
297 1 3.540e+00 -1.780e+00 -1.778e+00 -2.719e-03 -1.634e-02 -1.424e-02
298 1 -1.759e+00 3.522e+00 1.763e+00 -7.591e-03 -1.145e-02 -1.909e-02
299 1 1.761e+00 3.521e+00 1.761e+00 7.306e-03 -1.025e-02 -1.791e-02
300 1 -1.761e+00 1.761e+00 3.522e+00 -7.999e-03 -1.872e-02 -8.049e-03
301 1 1.761e+00 1.760e+00 3.521e+00 5.538e-03 -1.897e-02 -9.590e-03
302 1 3.537e+00 -1.775e+00 1.761e+00 1.042e-04 -1.787e-02 -1.884e-02
303 1 -3.535e+00 1.760e+00 -1.776e+00 -5.402e-04 -1.728e-02 -1.956e-02
304 1 -3.536e+00 -1.776e+00 1.761e+00 -8.334e-04 -1.799e-02 -1.840e-02
305 1 3.535e+00 1.762e+00 -1.777e+00 1.280e-03 -1.700e-02 -1.846e-02
306 1 1.768e+00 -1.778e+00 3.528e+00 -4.588e-04 -1.753e-02 -1.697e-02
307 1 -1.770e+00 3.531e+00 -1.775e+00 -4.223e-04 -1.762e-02 -1.638e-02
308 1 1.768e+00 3.530e+00 -1.776e+00 -7.598e-04 -1.915e-02 -1.825e-02
309 1 -1.767e+00 -1.777e+00 3.529e+00 3.748e-05 -1.710e-02 -1.868e-02
310 1 2.071e-03 1.034e-03 3.520e+00 8.052e-04 -2.794e-02 1.376e-03
311 1 3.504e-04 3.522e+00 -2.719e-04 4.132e-04 -3.147e-04 -2.551e-02
312 1 -3.551e+00 1.761e+00 1.759e+00 1.179e-02 -1.892e-02 -1.874e-02
313 1 3.547e+00 1.760e+00 1.762e+00 -1.188e-02 -1.841e-02 -1.975e-02
314 1 3.538e+00 -6.419e-03 -8.512e-03 1.239e-02 -1.948e-02 -1.652e-02
315 1 -3.539e+00 -6.940e-03 -8.152e-03 -1.016e-02 -1.894e-02 -1.687e-02
316 1 -6.534e-05 -3.549e+00 -1.002e-02 5.137e-04 -2.566e-02 -1.621e-02
317 1 -8.844e-04 -9.912e-03 -3.549e+00 1.339e-03 -1.489e-02 -2.273e-02
318 1 -8.892e-04 2.006e-04 -8.101e-04 -1.796e-03 1.735e+00 1.735e+00
319 1 1.759e+00 7.730e-04 1.760e+00 -4.088e-04 -2.598e-02 -2.597e-02
320 1 -1.760e+00 1.761e+00 1.062e-03 3.779e-04 -2.535e-02 -2.814e-02
321 1 1.763e+00 1.758e+00 6.574e-04 -7.730e-04 -2.677e-02 -2.800e-02
322 1 -1.761e+00 -8.092e-05 1.762e+00 6.587e-04 -2.796e-02 -2.576e-02
323 1 -1.115e-03 -1.788e+00 1.762e+00 5.545e-04 2.004e-03 -2.573e-02
324 1 1.852e-03 1.760e+00 -1.788e+00 4.597e-04 -2.409e-02 1.072e-03
325 1 1.769e+00 -1.777e+00 -8.301e-03 -8.294e-03 -9.937e-03 -1.689e-02
326 1 -1.768e+00 -7.994e-03 -1.778e+00 7.463e-03 -1.766e-02 -1.130e-02
327 1 -1.769e+00 -1.777e+00 -6.413e-03 9.002e-03 -9.316e-03 -1.972e-02
328 1 1.769e+00 -6.830e-03 -1.777e+00 -7.831e-03 -1.857e-02 -1.040e-02
329 1 1.401e-04 -1.776e+00 -1.775e+00 1.805e-03 -1.118e-02 -1.029e-02
ITEM: TIMESTEP
0
ITEM: NUMBER OF ATOMS
47
ITEM: BOX BOUNDS xy xz yz pp pp pp
                     0.00000000000000e+00 1.06200000000000e+01 0.00000000000000e+00
0.00000000000000e+00	1.06200000000000e+01	0.00000000000000e+00
0.00000000000000e+00	1.06200000000000e+01	0.00000000000000e+00
ITEM: ATOMS id type x y z DisplacementX DisplacementY DisplacementZ
330 1 -3.522e+00 -4.383e-05 3.522e+00 1.200e-02 1.791e-05 -9.975e-03
331 1 3.548e+00 1.771e+00 1.761e+00 1.525e-02 -3.188e-03 -1.856e-02
332 1 -1.759e+00 -1.772e+00 -3.549e+00 1.830e-02 2.966e-03 -1.283e-02
333 1 -1.758e+00 1.772e+00 -3.550e+00 2.038e-02 -3.028e-03 -1.418e-02
334 1 3.549e+00 -1.772e+00 1.761e+00 1.496e-02 4.362e-03 -1.943e-02
335 1 6.017e-03 3.538e+00 3.529e+00 1.799e-02 -1.915e-03 -1.878e-02
336 1 -3.528e+00 -3.536e+00 -5.279e-03 1.815e-02 2.743e-04 -1.852e-02
337 1 -3.528e+00 3.537e+00 -7.695e-03 2.001e-02 -4.086e-04 -2.057e-02
338 1 7.128e-03 -3.538e+00 3.530e+00 1.890e-02 6.102e-04 -1.751e-02
339 1 1.778e+00 -1.768e+00 -3.550e+00 1.778e-02 1.767e-03 -1.355e-02
340 1 1.779e+00 1.770e+00 -3.549e+00 1.796e-02 -2.007e-03 -1.547e-02
341 1 3.549e+00 -1.769e+00 -1.780e+00 1.427e-02 1.692e-03 -1.572e-02
342 1 3.549e+00 1.771e+00 -1.779e+00 1.458e-02 -8.438e-04 -1.658e-02
343 1 1.778e+00 -3.539e+00 -1.780e+00 1.501e-02 2.499e-03 -1.589e-02
344 1 1.779e+00 3.539e+00 -1.778e+00 1.609e-02 -1.621e-03 -1.430e-02
345 1 -3.522e+00 -1.760e+00 1.759e+00 8.302e-03 -8.582e-03 -1.734e-02
346 1 -3.521e+00 1.761e+00 1.760e+00 8.143e-03 7.063e-03 -1.652e-02
347 1 -1.762e+00 -1.761e+00 3.522e+00 1.787e-02 -7.824e-03 -9.583e-03
348 1 -1.760e+00 1.760e+00 3.519e+00 1.762e-02 6.536e-03 -1.162e-02
349 1 1.776e+00 3.539e+00 1.763e+00 1.800e-02 1.790e-04 -1.828e-02
350 1 -1.761e+00 -3.537e+00 -1.777e+00 1.818e-02 -1.634e-03 -1.787e-02
351 1 1.775e+00 -3.537e+00 1.762e+00 1.768e-02 -1.589e-03 -1.846e-02
352 1 -1.762e+00 3.536e+00 -1.774e+00 1.655e-02 6.405e-04 -1.693e-02
353 1 1.779e+00 1.769e+00 3.529e+00 1.790e-02 -5.129e-05 -1.729e-02
354 1 -3.529e+00 -1.767e+00 -1.776e+00 1.609e-02 3.872e-04 -1.848e-02
355 1 -3.530e+00 1.768e+00 -1.777e+00 1.663e-02 1.380e-03 -1.778e-02
356 1 1.778e+00 -1.768e+00 3.528e+00 1.755e-02 3.551e-04 -1.786e-02
357 1 6.206e-04 6.208e-04 3.521e+00 2.498e-02 -9.336e-04 8.782e-04
358 1 -3.522e+00 -2.321e-03 1.678e-03 -2.692e-03 -2.482e-04 -2.517e-02
359 1 -1.763e+00 -3.549e+00 1.760e+00 1.844e-02 1.262e-02 -1.894e-02
360 1 -1.762e+00 3.549e+00 1.761e+00 2.002e-02 -1.048e-02 -2.000e-02
361 1 6.153e-03 3.539e+00 -7.478e-03 1.785e-02 1.093e-02 -1.781e-02
362 1 6.832e-03 -3.537e+00 -8.616e-03 1.774e-02 -1.158e-02 -1.840e-02
363 1 3.550e+00 -2.787e-04 -1.054e-02 2.765e-02 -9.267e-05 -1.661e-02
364 1 1.077e-02 -5.257e-05 -3.550e+00 1.429e-02 -6.575e-04 -2.533e-02
365 1 4.756e-04 6.061e-05 -1.661e-03 -1.734e+00 -1.039e-03 1.735e+00
366 1 -9.476e-04 1.761e+00 1.759e+00 2.486e-02 -2.330e-04 -2.511e-02
367 1 -1.760e+00 -1.760e+00 -3.207e-04 2.583e-02 -1.898e-04 -2.440e-02
368 1 -1.762e+00 1.761e+00 4.332e-04 2.470e-02 2.343e-04 -2.618e-02
369 1 2.286e-03 -1.761e+00 1.762e+00 2.688e-02 1.204e-03 -2.634e-02
370 1 1.789e+00 7.261e-04 1.762e+00 -2.045e-03 2.742e-05 -2.486e-02
371 1 -1.759e+00 2.375e-04 -1.790e+00 2.472e-02 -1.244e-03 2.221e-03
372 1 1.777e+00 1.768e+00 -7.386e-03 8.633e-03 -7.441e-03 -1.950e-02
373 1 7.731e-03 -1.770e+00 -1.777e+00 1.842e-02 7.851e-03 -8.971e-03
374 1 1.779e+00 -1.768e+00 -7.797e-03 9.519e-03 8.279e-03 -1.752e-02
375 1 8.245e-03 1.767e+00 -1.777e+00 1.859e-02 -7.401e-03 -8.833e-03
376 1 1.774e+00 -1.362e-05 -1.775e+00 9.617e-03 -1.177e-03 -1.046e-02
ITEM: TIMESTEP
0
ITEM: NUMBER OF ATOMS
47
ITEM: BOX BOUNDS xy xz yz pp pp pp
                     0.00000000000000e+00 1.06200000000000e+01 0.00000000000000e+00
0.00000000000000e+00	1.06200000000000e+01	0.00000000000000e+00
0.00000000000000e+00	1.06200000000000e+01	0.00000000000000e+00
ITEM: ATOMS id type x y z DisplacementX DisplacementY DisplacementZ
377 1 -3.521e+00 3.521e+00 1.023e-04 9.368e-03 -1.028e-02 5.677e-04
378 1 3.550e+00 1.761e+00 -1.771e+00 1.575e-02 -1.695e-02 3.938e-03
379 1 -1.760e+00 -3.551e+00 1.772e+00 1.589e-02 -1.257e-02 -3.502e-03
380 1 -1.761e+00 -3.550e+00 -1.772e+00 1.787e-02 -1.453e-02 3.893e-03
381 1 3.549e+00 1.763e+00 1.773e+00 1.381e-02 -1.925e-02 -3.261e-03
382 1 8.710e-03 3.531e+00 -3.538e+00 1.954e-02 -1.606e-02 1.906e-03
383 1 -3.529e+00 -7.915e-03 3.538e+00 1.615e-02 -1.858e-02 -1.676e-03
384 1 -3.529e+00 -8.215e-03 -3.537e+00 1.768e-02 -1.898e-02 2.385e-03
385 1 7.746e-03 3.529e+00 3.536e+00 1.777e-02 -1.745e-02 5.829e-05
386 1 1.779e+00 -3.550e+00 1.769e+00 1.615e-02 -1.481e-02 -2.150e-03
387 1 1.778e+00 -3.549e+00 -1.768e+00 1.710e-02 -1.576e-02 4.377e-04
388 1 3.549e+00 -1.777e+00 1.770e+00 1.316e-02 -1.708e-02 -2.102e-03
389 1 3.549e+00 -1.777e+00 -1.770e+00 1.547e-02 -1.574e-02 2.910e-03