ITEM: TIMESTEP
0
ITEM: NUMBER OF ATOMS
12
ITEM: BOX BOUNDS xy xz yz pp pp pp
                     -5.00000000000000e-01 5.00000000000000e-01 0.00000000000000e+00
-5.00000000000000e-01	5.00000000000000e-01	0.00000000000000e+00
-5.00000000000000e-01	5.00000000000000e-01	0.00000000000000e+00
ITEM: ATOMS id type x y z DisplacementX DisplacementY DisplacementZ
1 1 -1.000e-01 0.000e+00 0.000e+00 5.633e-05 2.286e-04 -1.122e-03
2 1 2.000e-01 0.000e+00 0.000e+00 1.176e-05 -4.828e-04 1.985e-03
3 1 0.000e+00 1.000e-01 0.000e+00 -1.473e-03 6.168e-05 -7.567e-04
4 1 -1.000e-01 1.000e-01 0.000e+00 -5.319e-04 1.635e-04 7.512e-04
5 1 1.000e-01 0.000e+00 0.000e+00 9.902e-04 7.053e-04 4.680e-04
6 1 0.000e+00 0.000e+00 0.000e+00 -4.318e-04 -1.004e-01 -1.295e-04
7 1 1.000e-01 -1.000e-01 0.000e+00 -1.210e-03 1.083e-03 -1.219e-03
8 1 -2.000e-01 0.000e+00 0.000e+00 9.390e-04 7.012e-04 -2.758e-03
9 1 -1.000e-01 -1.000e-01 0.000e+00 -4.107e-04 -3.188e-04 -1.039e-03
10 1 1.000e-01 1.000e-01 0.000e+00 5.028e-04 4.680e-04 -5.329e-04
11 1 0.000e+00 -2.000e-01 0.000e+00 -7.328e-04 5.603e-04 -1.344e-04
12 1 0.000e+00 2.000e-01 0.000e+00 8.837e-04 -1.565e-03 -1.709e-04
ITEM: TIMESTEP
0
ITEM: NUMBER OF ATOMS
12
ITEM: BOX BOUNDS xy xz yz pp pp pp
                     -5.00000000000000e-01 5.00000000000000e-01 0.00000000000000e+00
-5.00000000000000e-01	5.00000000000000e-01	0.00000000000000e+00
-5.00000000000000e-01	5.00000000000000e-01	0.00000000000000e+00
ITEM: ATOMS id type x y z DisplacementX DisplacementY DisplacementZ
13 1 2.000e-01 0.000e+00 0.000e+00 4.441e-04 1.361e-03 -1.271e-04
14 1 0.000e+00 -1.000e-01 0.000e+00 3.010e-04 -1.505e-04 -1.346e-04
15 1 1.000e-01 1.000e-01 0.000e+00 1.127e-03 3.878e-04 -1.914e-04
16 1 0.000e+00 1.000e-01 0.000e+00 -1.745e-04 4.613e-04 8.638e-04
17 1 -1.000e-01 1.000e-01 0.000e+00 -9.520e-06 -1.228e-03 1.564e-03
18 1 1.000e-01 0.000e+00 0.000e+00 1.236e-03 2.448e-03 7.757e-04
19 1 0.000e+00 0.000e+00 0.000e+00 -1.005e-01 8.504e-04 -1.368e-03
20 1 -2.000e-01 0.000e+00 0.000e+00 -1.292e-03 -5.648e-04 -6.557e-04
21 1 1.000e-01 -1.000e-01 0.000e+00 5.436e-04 -1.478e-03 -7.245e-04
22 1 0.000e+00 2.000e-01 0.000e+00 -1.849e-04 -6.090e-04 1.742e-03
23 1 0.000e+00 -2.000e-01 0.000e+00 -6.536e-04 1.181e-03 -1.129e-03
24 1 -1.000e-01 -1.000e-01 0.000e+00 7.075e-04 7.597e-04 5.784e-04
ITEM: TIMESTEP
0
ITEM: NUMBER OF ATOMS
12
ITEM: BOX BOUNDS xy xz yz pp pp pp
                     -5.00000000000000e-01 5.00000000000000e-01 0.00000000000000e+00
-5.00000000000000e-01	5.00000000000000e-01	0.00000000000000e+00
-5.00000000000000e-01	5.00000000000000e-01	0.00000000000000e+00
ITEM: ATOMS id type x y z DisplacementX DisplacementY DisplacementZ
25 1 -2.000e-01 0.000e+00 0.000e+00 6.968e-04 8.270e-04 -4.325e-04
26 1 0.000e+00 1.000e-01 0.000e+00 -4.505e-04 -3.129e-04 -2.197e-04
27 1 0.000e+00 2.000e-01 0.000e+00 -1.285e-03 -1.380e-03 8.456e-04
28 1 1.000e-01 1.000e-01 0.000e+00 1.493e-04 -1.458e-03 -1.223e-04
29 1 -1.000e-01 -1.000e-01 0.000e+00 6.421e-04 1.209e-03 -2.325e-03
30 1 0.000e+00 -2.000e-01 0.000e+00 -6.658e-04 2.267e-03 -2.149e-03
31 1 2.000e-01 0.000e+00 0.000e+00 -3.255e-04 4.238e-04 1.331e-03
32 1 -1.000e-01 1.000e-01 0.000e+00 -3.829e-04 -1.580e-04 -5.952e-04
33 1 0.000e+00 0.000e+00 0.000e+00 1.001e-01 7.810e-04 4.295e-04
34 1 -1.000e-01 0.000e+00 0.000e+00 -3.564e-04 -3.544e-04 -8.078e-05
35 1 1.000e-01 -1.000e-01 0.000e+00 4.411e-04 1.782e-03 -1.786e-03
36 1 0.000e+00 -1.000e-01 0.000e+00 -2.587e-03 -2.206e-04 1.646e-03
ITEM: TIMESTEP
0
ITEM: NUMBER OF ATOMS
12
ITEM: BOX BOUNDS xy xz yz pp pp pp
                     -5.00000000000000e-01 5.00000000000000e-01 0.00000000000000e+00
-5.00000000000000e-01	5.00000000000000e-01	0.00000000000000e+00
-5.00000000000000e-01	5.00000000000000e-01	0.00000000000000e+00
ITEM: ATOMS id type x y z DisplacementX DisplacementY DisplacementZ
37 1 1.000e-01 0.000e+00 0.000e+00 9.200e-04 1.247e-03 -6.432e-04
38 1 0.000e+00 -1.000e-01 0.000e+00 2.948e-05 -1.674e-03 2.000e-03
39 1 0.000e+00 2.000e-01 0.000e+00 2.446e-04 -4.935e-04 9.874e-04
40 1 -2.000e-01 0.000e+00 0.000e+00 -3.954e-05 -3.197e-04 -5.200e-04
41 1 0.000e+00 -2.000e-01 0.000e+00 -4.240e-04 -1.404e-03 -3.258e-04
42 1 -1.000e-01 -1.000e-01 0.000e+00 -2.244e-04 -8.084e-04 -3.266e-05
43 1 1.000e-01 1.000e-01 0.000e+00 -4.683e-04 1.693e-03 -8.217e-04
44 1 -1.000e-01 1.000e-01 0.000e+00 2.058e-04 -9.818e-04 -1.409e-03
45 1 2.000e-01 0.000e+00 0.000e+00 3.272e-04 9.238e-04 6.438e-04
46 1 1.000e-01 -1.000e-01 0.000e+00 -5.893e-04 8.944e-05 -5.465e-04
47 1 0.000e+00 0.000e+00 0.000e+00 2.204e-04 9.922e-02 -6.197e-04
48 1 -1.000e-01 0.000e+00 0.000e+00 -1.279e-04 -4.531e-04 1.877e-04
ITEM: TIMESTEP
0
ITEM: NUMBER OF ATOMS
12
ITEM: BOX BOUNDS xy xz yz pp pp pp
                     -5.00000000000000e-01 5.00000000000000e-01 0.00000000000000e+00
-5.00000000000000e-01	5.00000000000000e-01	0.00000000000000e+00
-5.00000000000000e-01	5.00000000000000e-01	0.00000000000000e+00
ITEM: ATOMS id type x y z DisplacementX DisplacementY DisplacementZ
49 1 -1.000e-01 0.000e+00 0.000e+00 -8.656e-04 1.513e-04 -3.308e-04
50 1 0.000e+00 0.000e+00 0.000e+00 9.898e-02 -4.991e-04 4.406e-04
51 1 2.000e-01 0.000e+00 0.000e+00 -1.126e-03 -8.482e-04 -5.863e-04
52 1 0.000e+00 -1.000e-01 0.000e+00 1.946e-04 -7.095e-04 4.415e-04
53 1 0.000e+00 -2.000e-01 0.000e+00 -3.392e-04 5.366e-04 -1.694e-04
54 1 1.000e-01 1.000e-01 0.000e+00 -1.913e-03 -1.419e-03 1.691e-03
55 1 0.000e+00 1.000e-01 0.000e+00 5.169e-05 1.385e-03 -3.652e-04
56 1 -2.000e-01 0.000e+00 0.000e+00 2.904e-04 2.271e-04 6.450e-04
57 1 -1.000e-01 1.000e-01 0.000e+00 1.497e-03 2.429e-03 1.067e-03
58 1 0.000e+00 2.000e-01 0.000e+00 2.524e-04 1.108e-03 -8.486e-04
59 1 -1.000e-01 -1.000e-01 0.000e+00 1.371e-03 -1.450e-03 3.266e-04
60 1 1.000e-01 -1.000e-01 0.000e+00 -1.129e-03 -4.920e-04 1.405e-03
ITEM: TIMESTEP
0
ITEM: NUMBER OF ATOMS
12
ITEM: BOX BOUNDS xy xz yz pp pp pp
                     -5.00000000000000e-01 5.00000000000000e-01 0.00000000000000e+00
-5.00000000000000e-01	5.00000000000000e-01	0.00000000000000e+00
-5.00000000000000e-01	5.00000000000000e-01	0.00000000000000e+00
ITEM: ATOMS id type x y z DisplacementX DisplacementY DisplacementZ
61 1 -2.000e-01 0.000e+00 0.000e+00 -1.831e-03 5.189e-05 -8.635e-04
62 1 1.000e-01 0.000e+00 0.000e+00 -2.238e-04 7.578e-04 1.106e-03
63 1 0.000e+00 0.000e+00 0.000e+00 -1.010e-01 -4.415e-05 1.312e-04
64 1 0.000e+00 1.000e-01 0.000e+00 4.344e-04 8.868e-04 -1.008e-03
65 1 0.000e+00 -1.000e-01 0.000e+00 -1.887e-03 -7.604e-04 -1.645e-04
66 1 2.000e-01 0.000e+00 0.000e+00 2.457e-05 3.034e-04 7.703e-04
67 1 0.000e+00 -2.000e-01 0.000e+00 -6.445e-07 -1.086e-04 -6.776e-04
68 1 -1.000e-01 1.000e-01 0.000e+00 1.291e-04 -5.413e-04 1.159e-03
69 1 1.000e-01 -1.000e-01 0.000e+00 -9.110e-04 1.290e-04 -2.157e-04
70 1 1.000e-01 1.000e-01 0.000e+00 -4.431e-04 -9.546e-04 1.107e-03
71 1 -1.000e-01 -1.000e-01 0.000e+00 3.558e-04 -1.332e-05 -2.151e-04
72 1 0.000e+00 2.000e-01 0.000e+00 -4.771e-04 -1.792e-03 4.144e-04
ITEM: TIMESTEP
0
ITEM: NUMBER OF ATOMS
12
ITEM: BOX BOUNDS xy xz yz pp pp pp
                     -5.00000000000000e-01 5.00000000000000e-01 0.00000000000000e+00
-5.00000000000000e-01	5.00000000000000e-01	0.00000000000000e+00
-5.00000000000000e-01	5.00000000000000e-01	0.00000000000000e+00
ITEM: ATOMS id type x y z DisplacementX DisplacementY DisplacementZ
73 1 -1.000e-01 -1.000e-01 0.000e+00 -3.169e-04 -1.257e-04 -4.327e-05
74 1 1.000e-01 -1.000e-01 0.000e+00 -1.685e-04 1.072e-03 1.946e-03
75 1 1.000e-01 0.000e+00 0.000e+00 -2.771e-04 2.305e-04 -8.187e-05
76 1 0.000e+00 2.000e-01 0.000e+00 -4.351e-04 -8.252e-04 1.033e-03
77 1 0.000e+00 0.000e+00 0.000e+00 1.424e-03 -1.002e-01 3.980e-04
78 1 0.000e+00 1.000e-01 0.000e+00 5.250e-04 -2.764e-05 -4.159e-04
79 1 -1.000e-01 0.000e+00 0.000e+00 5.008e-04 -1.786e-03 9.104e-04
80 1 2.000e-01 0.000e+00 0.000e+00 5.834e-04 -7.694e-04 -1.140e-03
81 1 -2.000e-01 0.000e+00 0.000e+00 -1.508e-03 -2.526e-04 -6.502e-04
82 1 -1.000e-01 1.000e-01 0.000e+00 9.462e-04 1.290e-03 2.178e-03
83 1 0.000e+00 -2.000e-01 0.000e+00 -2.301e-03 -4.753e-04 3.047e-05
84 1 1.000e-01 1.000e-01 0.000e+00 9.792e-04 -2.236e-04 -1.120e-03
ITEM: TIMESTEP
0
ITEM: NUMBER OF ATOMS
12
ITEM: BOX BOUNDS xy xz yz pp pp pp
                     -5.00000000000000e-01 5.00000000000000e-01 0.00000000000000e+00
-5.00000000000000e-01	5.00000000000000e-01	0.00000000000000e+00
-5.00000000000000e-01	5.00000000000000e-01	0.00000000000000e+00
ITEM: ATOMS id type x y z DisplacementX DisplacementY DisplacementZ
85 1 0.000e+00 -2.000e-01 0.000e+00 -7.822e-04 5.992e-04 3.466e-04
86 1 -1.000e-01 1.000e-01 0.000e+00 -3.532e-04 7.418e-04 6.484e-04
87 1 1.000e-01 1.000e-01 0.000e+00 -1.423e-04 2.275e-03 3.820e-04
88 1 -1.000e-01 0.000e+00 0.000e+00 6.299e-04 -1.193e-04 -1.025e-03
89 1 -1.000e-01 -1.000e-01 0.000e+00 9.789e-04 -1.485e-03 -9.988e-04
90 1 1.000e-01 0.000e+00 0.000e+00 -7.189e-04 -4.685e-04 -1.094e-03
91 1 1.000e-01 -1.000e-01 0.000e+00 -1.318e-04 8.191e-05 1.109e-03
92 1 0.000e+00 2.000e-01 0.000e+00 5.228e-04 1.455e-03 -1.385e-03
93 1 0.000e+00 -1.000e-01 0.000e+00 -8.073e-04 1.640e-03 1.142e-03
94 1 2.000e-01 0.000e+00 0.000e+00 -3.984e-05 -1.695e-03 -9.719e-04
95 1 -2.000e-01 0.000e+00 0.000e+00 -3.762e-05 -8.018e-04 -3.741e-04
96 1 0.000e+00 0.000e+00 0.000e+00 7.061e-04 9.929e-02 -2.130e-04
ITEM: TIMESTEP
0
ITEM: NUMBER OF ATOMS
12
ITEM: BOX BOUNDS xy xz yz pp pp pp
                     -5.00000000000000e-01 5.00000000000000e-01 0.00000000000000e+00
-5.00000000000000e-01	5.00000000000000e-01	0.00000000000000e+00
-5.00000000000000e-01	5.00000000000000e-01	0.00000000000000e+00
ITEM: ATOMS id type x y z DisplacementX DisplacementY DisplacementZ
97 1 2.000e-01 0.000e+00 0.000e+00 1.335e-03 -1.814e-03 1.015e-03
98 1 0.000e+00 0.000e+00 0.000e+00 -9.722e-02 1.217e-04 1.151e-03
99 1 1.000e-01 -1.000e-01 0.000e+00 -8.350e-04 -2.019e-03 1.650e-04
100 1 0.000e+00 2.000e-01 0.000e+00 -5.567e-04 -1.351e-03 1.594e-05
101 1 0.000e+00 1.000e-01 0.000e+00 -7.704e-04 -4.703e-04 -7.797e-04
102 1 -1.000e-01 -1.000e-01 0.000e+00 -2.268e-04 -1.716e-03 8.933e-04
103 1 -2.000e-01 0.000e+00 0.000e+00 -1.022e-03 3.327e-04 1.322e-04
104 1 1.000e-01 1.000e-01 0.000e+00 5.396e-04 -1.022e-03 1.199e-03
105 1 0.000e+00 -2.000e-01 0.000e+00 -2.746e-04 2.768e-03 -9.983e-04
106 1 1.000e-01 0.000e+00 0.000e+00 -1.203e-03 1.123e-04 5.748e-04
107 1 0.000e+00 -1.000e-01 0.000e+00 -1.860e-03 1.204e-03 -4.433e-05
108 1 -1.000e-01 1.000e-01 0.000e+00 -2.235e-03 -4.127e-04 2.467e-04
ITEM: TIMESTEP
0
ITEM: NUMBER OF ATOMS
12
ITEM: BOX BOUNDS xy xz yz pp pp pp
                     -5.00000000000000e-01 5.00000000000000e-01 0.00000000000000e+00
-5.00000000000000e-01	5.00000000000000e-01	0.00000000000000e+00
-5.00000000000000e-01	5.00000000000000e-01	0.00000000000000e+00
ITEM: ATOMS id type x y z DisplacementX DisplacementY DisplacementZ
109 1 -1.000e-01 -1.000e-01 0.000e+00 5.426e-04 -2.346e-03 1.468e-03
110 1 1.000e-01 1.000e-01 0.000e+00 9.286e-04 -7.293e-04 5.927e-04
111 1 -1.000e-01 0.000e+00 0.000e+00 4.068e-04 4.210e-04 1.214e-05
112 1 -2.000e-01 0.000e+00 0.000e+00 -9.518e-04 1.136e-03 -1.848e-03
113 1 2.000e-01 0.000e+00 0.000e+00 1.203e-03 -2.013e-05 1.376e-03
114 1 0.000e+00 0.000e+00 0.000e+00 1.228e-03 1.005e-01 -1.474e-04
115 1 0.000e+00 -2.000e-01 0.000e+00 6.476e-04 1.133e-03 1.019e-04
116 1 -1.000e-01 1.000e-01 0.000e+00 -1.825e-04 -1.971e-04 1.409e-03
117 1 1.000e-01 -1.000e-01 0.000e+00 1.235e-03 -2.334e-04 -9.400e-04
118 1 1.000e-01 0.000e+00 0.000e+00 1.128e-03 -1.764e-03 -4.468e-04
119 1 0.000e+00 -1.000e-01 0.000e+00 -7.089e-05 8.033e-04 -2.366e-05
120 1 0.000e+00 2.000e-01 0.000e+00 -4.862e-04 -1.681e-05 1.188e-03
ITEM: TIMESTEP
0
ITEM: NUMBER OF ATOMS
12
ITEM: BOX BOUNDS xy xz yz pp pp pp
                     -5.00000000000000e-01 5.00000000000000e-01 0.00000000000000e+00
-5.00000000000000e-01	5.00000000000000e-01	0.00000000000000e+00
-5.00000000000000e-01	5.00000000000000e-01	0.00000000000000e+00
ITEM: ATOMS id type x y z DisplacementX DisplacementY DisplacementZ
121 1 0.000e+00 -2.000e-01 0.000e+00 -4.576e-05 -1.761e-04 -3.516e-04
122 1 -1.000e-01 1.000e-01 0.000e+00 9.099e-04 -1.791e-03 3.617e-04
123 1 2.000e-01 0.000e+00 0.000e+00 1.239e-03 -5.111e-04 3.709e-04
124 1 0.000e+00 -1.000e-01 0.000e+00 -9.106e-04 -1.012e-03 -2.283e-05
125 1 -1.000e-01 -1.000e-01 0.000e+00 1.394e-04 2.219e-03 1.305e-04
126 1 -2.000e-01 0.000e+00 0.000e+00 -1.766e-04 9.508e-04 1.151e-03
127 1 0.000e+00 2.000e-01 0.000e+00 -5.341e-04 5.598e-04 6.485e-04
128 1 1.000e-01 -1.000e-01 0.000e+00 -1.166e-03 -2.095e-03 4.776e-04
129 1 0.000e+00 0.000e+00 0.000e+00 1.018e-01 -1.051e-03 -5.830e-04
130 1 -1.000e-01 0.000e+00 0.000e+00 6.948e-04 2.745e-05 -1.796e-03
131 1 1.000e-01 1.000e-01 0.000e+00 3.508e-04 1.041e-03 7.074e-04
132 1 0.000e+00 1.000e-01 0.000e+00 1.774e-03 6.345e-04 3.754e-04
ITEM: TIMESTEP
0
ITEM: NUMBER OF ATOMS
12
ITEM: BOX BOUNDS xy xz yz pp pp pp
                     -5.00000000000000e-01 5.00000000000000e-01 0.00000000000000e+00
-5.00000000000000e-01	5.00000000000000e-01	0.00000000000000e+00
-5.00000000000000e-01	5.00000000000000e-01	0.00000000000000e+00
ITEM: ATOMS id type x y z DisplacementX DisplacementY DisplacementZ
133 1 -2.000e-01 0.000e+00 0.000e+00 -1.078e-03 -2.614e-04 1.326e-03
134 1 1.000e-01 -1.000e-01 0.000e+00 -8.678e-04 -1.197e-03 -1.735e-03
135 1 0.000e+00 1.000e-01 0.000e+00 1.972e-03 7.998e-04 1.178e-03
136 1 0.000e+00 2.000e-01 0.000e+00 4.388e-04 1.057e-04 -6.577e-05
137 1 1.000e-01 1.000e-01 0.000e+00 4.034e-05 -1.417e-03 4.580e-04
138 1 1.000e-01 0.000e+00 0.000e+00 3.175e-04 8.441e-04 9.680e-04
139 1 -1.000e-01 1.000e-01 0.000e+00 -4.221e-04 8.898e-04 -1.135e-03
140 1 0.000e+00 -2.000e-01 0.000e+00 1.213e-03 6.726e-04 -3.877e-05
141 1 -1.000e-01 -1.000e-01 0.000e+00 1.147e-03 -1.175e-03 1.604e-03
142 1 2.000e-01 0.000e+00 0.000e+00 5.297e-04 6.765e-04 -1.293e-04
143 1 0.000e+00 0.000e+00 0.000e+00 4.159e-06 -1.005e-01 -5.205e-04
144 1 -1.000e-01 0.000e+00 0.000e+00 5.001e-04 2.679e-05 6.760e-04
ITEM: TIMESTEP
0
ITEM: NUMBER OF ATOMS
12
ITEM: BOX BOUNDS xy xz yz pp pp pp
                     -5.00000000000000e-01 5.00000000000000e-01 0.00000000000000e+00
-5.00000000000000e-01	5.00000000000000e-01	0.00000000000000e+00
-5.00000000000000e-01	5.00000000000000e-01	0.00000000000000e+00
ITEM: ATOMS id type x y z DisplacementX DisplacementY DisplacementZ
145 1 1.000e-01 1.000e-01 0.000e+00 -1.415e-04 4.467e-04 -1.405e-03
146 1 0.000e+00 0.000e+00 0.000e+00 -9.845e-02 -1.389e-03 8.375e-04
147 1 2.000e-01 0.000e+00 0.000e+00 6.173e-04 -1.927e-03 5.802e-04
148 1 -1.000e-01 -1.000e-01 0.000e+00 1.674e-03 -6.790e-04 -1.075e-03
149 1 1.000e-01 0.000e+00 0.000e+00 1.020e-04 -2.683e-04 6.352e-04
150 1 0.000e+00 2.000e-01 0.000e+00 5.651e-04 -1.645e-03 -9.194e-04
151 1 0.000e+00 1.000e-01 0.000e+00 2.848e-04 -6.773e-05 5.199e-04
152 1 0.000e+00 -2.000e-01 0.000e+00 -8.900e-04 1.103e-03 6.264e-05
153 1 -2.000e-01 0.000e+00 0.000e+00 2.385e-04 -1.721e-03 -1.011e-03
154 1 -1.000e-01 1.000e-01 0.000e+00 -8.915e-04 -3.826e-04 -1.137e-03
155 1 0.000e+00 -1.000e-01 0.000e+00 -9.251e-04 -1.080e-03 -4.332e-04
156 1 1.000e-01 -1.000e-01 0.000e+00 1.155e-04 7.102e-04 2.673e-04
ITEM: TIMESTEP
0
ITEM: NUMBER OF ATOMS
12
ITEM: BOX BOUNDS xy xz yz pp pp pp
                     -5.00000000000000e-01 5.00000000000000e-01 0.00000000000000e+00
-5.00000000000000e-01	5.00000000000000e-01	0.00000000000000e+00
-5.00000000000000e-01	5.00000000000000e-01	0.00000000000000e+00
ITEM: ATOMS id type x y z DisplacementX DisplacementY DisplacementZ
157 1 1.000e-01 1.000e-01 0.000e+00 -7.749e-04 -1.759e-03 1.588e-04
158 1 0.000e+00 0.000e+00 0.000e+00 8.535e-04 9.949e-02 -4.453e-04
159 1 0.000e+00 -2.000e-01 0.000e+00 5.336e-04 8.690e-05 -9.875e-04
160 1 0.000e+00 -1.000e-01 0.000e+00 -8.830e-04 4.758e-04 9.905e-04
161 1 1.000e-01 -1.000e-01 0.000e+00 8.008e-04 5.086e-04 3.764e-04
162 1 -1.000e-01 -1.000e-01 0.000e+00 1.403e-04 1.057e-03 7.135e-05
163 1 -1.000e-01 1.000e-01 0.000e+00 -4.990e-04 7.033e-04 -7.902e-05
164 1 0.000e+00 2.000e-01 0.000e+00 5.538e-04 1.235e-03 2.553e-03
165 1 1.000e-01 0.000e+00 0.000e+00 -7.996e-05 -1.034e-03 3.286e-04
166 1 2.000e-01 0.000e+00 0.000e+00 -1.668e-03 1.750e-03 -1.088e-03
167 1 -2.000e-01 0.000e+00 0.000e+00 -3.379e-04 -1.163e-03 -1.374e-03
168 1 -1.000e-01 0.000e+00 0.000e+00 -5.256e-04 1.620e-03 -1.295e-03
ITEM: TIMESTEP
0
ITEM: NUMBER OF ATOMS
12
ITEM: BOX BOUNDS xy xz yz pp pp pp
                     -5.00000000000000e-01 5.00000000000000e-01 0.00000000000000e+00
-5.00000000000000e-01	5.00000000000000e-01	0.00000000000000e+00
-5.00000000000000e-01	5.00000000000000e-01	0.00000000000000e+00
ITEM: ATOMS id type x y z DisplacementX DisplacementY DisplacementZ
169 1 2.000e-01 0.000e+00 0.000e+00 -1.654e-03 4.948e-04 2.661e-04
170 1 -1.000e-01 1.000e-01 0.000e+00 1.523e-03 -1.031e-03 2.073e-03
171 1 1.000e-01 -1.000e-01 0.000e+00 1.534e-03 9.027e-04 -1.799e-04
172 1 0.000e+00 1.000e-01 0.000e+00 4.830e-04 -6.932e-05 -5.090e-04
173 1 -1.000e-01 0.000e+00 0.000e+00 -1.247e-03 4.610e-04 1.678e-03
174 1 0.000e+00 2.000e-01 0.000e+00 9.226e-04 -1.975e-04 -1.038e-03
175 1 0.000e+00 -2.000e-01 0.000e+00 4.278e-04 1.356e-04 1.218e-03
176 1 0.000e+00 0.000e+00 0.000e+00 9.943e-02 2.043e-03 5.673e-04
177 1 1.000e-01 1.000e-01 0.000e+00 -6.423e-05 -2.121e-03 -6.565e-04
178 1 -2.000e-01 0.000e+00 0.000e+00 -6.152e-04 6.707e-05 -1.591e-03
179 1 -1.000e-01 -1.000e-01 0.000e+00 -3.044e-04 -1.500e-03 -8.215e-04
180 1 0.000e+00 -1.000e-01 0.000e+00 -7.605e-04 -1.430e-03 3.800e-04
ITEM: TIMESTEP
0
ITEM: NUMBER OF ATOMS
12
ITEM: BOX BOUNDS xy xz yz pp pp pp
                     -5.00000000000000e-01 5.00000000000000e-01 0.00000000000000e+00
-5.00000000000000e-01	5.00000000000000e-01	0.00000000000000e+00
-5.00000000000000e-01	5.00000000000000e-01	0.00000000000000e+00
ITEM: ATOMS id type x y z DisplacementX DisplacementY DisplacementZ
181 1 2.000e-01 0.000e+00 0.000e+00 -4.464e-04 -1.386e-04 8.399e-04
182 1 1.000e-01 -1.000e-01 0.000e+00 1.135e-03 7.597e-04 -6.448e-04
183 1 -2.000e-01 0.000e+00 0.000e+00 -1.085e-03 -1.968e-03 8.657e-04
184 1 0.000e+00 -2.000e-01 0.000e+00 -1.615e-04 -9.789e-04 1.343e-03
185 1 1.000e-01 1.000e-01 0.000e+00 4.839e-04 1.278e-03 1.279e-04
186 1 1.000e-01 0.000e+00 0.000e+00 -1.775e-04 8.314e-04 5.099e-04
187 1 -1.000e-01 0.000e+00 0.000e+00 2.072e-04 2.327e-04 -3.598e-04
188 1 0.000e+00 2.000e-01 0.000e+00 1.272e-03 1.126e-04 1.115e-03
189 1 -1.000e-01 1.000e-01 0.000e+00 -9.129e-05 1.147e-03 8.100e-05
190 1 -1.000e-01 -1.000e-01 0.000e+00 -9.300e-06 -4.500e-04 -5.750e-04
191 1 0.000e+00 0.000e+00 0.000e+00 4.671e-04 -1.003e-01 -6.561e-04
192 1 0.000e+00 1.000e-01 0.000e+00 -5.739e-04 -1.076e-03 7.395e-04
ITEM: TIMESTEP
0
ITEM: NUMBER OF ATOMS
12
ITEM: BOX BOUNDS xy xz yz pp pp pp
                     -5.00000000000000e-01 5.00000000000000e-01 0.00000000000000e+00
-5.00000000000000e-01	5.00000000000000e-01	0.00000000000000e+00
-5.00000000000000e-01	5.00000000000000e-01	0.00000000000000e+00
ITEM: ATOMS id type x y z DisplacementX DisplacementY DisplacementZ
193 1 -2.000e-01 0.000e+00 0.000e+00 -5.646e-04 -1.020e-03 5.141e-06
194 1 0.000e+00 1.000e-01 0.000e+00 1.106e-03 -1.864e-04 6.454e-04
195 1 -1.000e-01 0.000e+00 0.000e+00 3.085e-04 1.321e-03 1.579e-03
196 1 0.000e+00 0.000e+00 0.000e+00 9.999e-02 -2.647e-04 -1.883e-03
197 1 1.000e-01 -1.000e-01 0.000e+00 3.061e-05 -4.153e-04 -5.663e-04
198 1 0.000e+00 2.000e-01 0.000e+00 -1.266e-03 -9.355e-04 -9.881e-04
199 1 0.000e+00 -1.000e-01 0.000e+00 8.132e-04 1.166e-03 3.240e-04
200 1 0.000e+00 -2.000e-01 0.000e+00 -1.003e-03 -1.862e-03 8.660e-04
201 1 -1.000e-01 -1.000e-01 0.000e+00 4.080e-04 5.133e-04 3.429e-04
202 1 2.000e-01 0.000e+00 0.000e+00 2.400e-04 1.693e-04 8.987e-04
203 1 -1.000e-01 1.000e-01 0.000e+00 6.590e-04 -1.330e-03 -1.993e-04
204 1 1.000e-01 1.000e-01 0.000e+00 6.929e-04 -2.445e-04 1.172e-03
ITEM: TIMESTEP
0
ITEM: NUMBER OF ATOMS
12
ITEM: BOX BOUNDS xy xz yz pp pp pp
                     -5.00000000000000e-01 5.00000000000000e-01 0.00000000000000e+00
-5.00000000000000e-01	5.00000000000000e-01	0.00000000000000e+00
-5.00000000000000e-01	5.00000000000000e-01	0.00000000000000e+00
ITEM: ATOMS id type x y z DisplacementX DisplacementY DisplacementZ
205 1 0.000e+00 -1.000e-01 0.000e+00 -7.809e-05 2.549e-03 -2.826e-04
206 1 -1.000e-01 1.000e-01 0.000e+00 -3.461e-04 4.782e-04 8.941e-04
207 1 0.000e+00 0.000e+00 0.000e+00 -3.146e-04 9.976e-02 -1.115e-03
208 1 1.000e-01 0.000e+00 0.000e+00 7.052e-05 -2.355e-03 -1.153e-04
209 1 2.000e-01 0.000e+00 0.000e+00 2.286e-03 -4.600e-04 3.361e-04
210 1 0.000e+00 -2.000e-01 0.000e+00 1.816e-03 1.485e-03 5.443e-04
211 1 -1.000e-01 0.000e+00 0.000e+00 8.753e-04 5.623e-04 -5.602e-04
212 1 -1.000e-01 -1.000e-01 0.000e+00 7.613e-05 -7.616e-05 -1.997e-03
213 1 1.000e-01 -1.000e-01 0.000e+00 6.790e-04 -1.002e-03 -8.074e-04
214 1 -2.000e-01 0.000e+00 0.000e+00 3.361e-04 -2.354e-05 9.307e-04
215 1 1.000e-01 1.000e-01 0.000e+00 1.102e-03 -5.370e-04 1.113e-03
216 1 0.000e+00 2.000e-01 0.000e+00 8.961e-04 4.982e-04 1.571e-04
ITEM: TIMESTEP
0
ITEM: NUMBER OF ATOMS
12
ITEM: BOX BOUNDS xy xz yz pp pp pp
                     -5.00000000000000e-01 5.00000000000000e-01 0.00000000000000e+00
-5.00000000000000e-01	5.00000000000000e-01	0.00000000000000e+00
-5.00000000000000e-01	5.00000000000000e-01	0.00000000000000e+00
ITEM: ATOMS id type x y z DisplacementX DisplacementY DisplacementZ
217 1 0.000e+00 1.000e-01 0.000e+00 -2.436e-04 3.687e-04 1.088e-03
218 1 1.000e-01 0.000e+00 0.000e+00 -1.940e-03 8.015e-04 8.638e-04
219 1 -2.000e-01 0.000e+00 0.000e+00 1.664e-03 -1.689e-03 1.163e-03
220 1 -1.000e-01 -1.000e-01 0.000e+00 -2.664e-04 1.272e-03 1.374e-03
221 1 0.000e+00 -1.000e-01 0.000e+00 4.309e-04 -1.749e-04 4.084e-05
222 1 1.000e-01 -1.000e-01 0.000e+00 -4.167e-04 -2.036e-03 6.094e-04
223 1 1.000e-01 1.000e-01 0.000e+00 2.299e-04 1.205e-03 -1.498e-03
224 1 2.000e-01 0.000e+00 0.000e+00 4.993e-04 -5.735e-04 -7.848e-04
225 1 0.000e+00 -2.000e-01 0.000e+00 7.220e-04 1.498e-03 2.233e-04
226 1 0.000e+00 2.000e-01 0.000e+00 -1.628e-03 8.779e-04 1.370e-03
227 1 0.000e+00 0.000e+00 0.000e+00 -9.988e-02 -2.365e-03 1.454e-03
228 1 -1.000e-01 1.000e-01 0.000e+00 -1.170e-03 1.116e-03 -5.812e-04
ITEM: TIMESTEP
0
ITEM: NUMBER OF ATOMS
12
ITEM: BOX BOUNDS xy xz yz pp pp pp
                     -5.00000000000000e-01 5.00000000000000e-01 0.00000000000000e+00
-5.00000000000000e-01	5.00000000000000e-01	0.00000000000000e+00
-5.00000000000000e-01	5.00000000000000e-01	0.00000000000000e+00
ITEM: ATOMS id type x y z DisplacementX DisplacementY DisplacementZ
229 1 1.000e-01 0.000e+00 0.000e+00 1.256e-04 -2.993e-04 6.308e-04
230 1 -1.000e-01 0.000e+00 0.000e+00 1.881e-03 -1.487e-03 -1.663e-04
231 1 -1.000e-01 -1.000e-01 0.000e+00 -4.490e-04 -4.580e-04 -2.035e-03
232 1 0.000e+00 -2.000e-01 0.000e+00 -2.510e-03 -1.046e-03 4.243e-04
233 1 -1.000e-01 1.000e-01 0.000e+00 1.915e-03 2.316e-04 -7.071e-04
234 1 0.000e+00 1.000e-01 0.000e+00 -3.816e-04 8.556e-04 -5.756e-04
235 1 2.000e-01 0.000e+00 0.000e+00 -4.113e-04 5.578e-04 -5.765e-04
236 1 1.000e-01 1.000e-01 0.000e+00 -1.546e-03 -6.488e-04 8.812e-04
237 1 1.000e-01 -1.000e-01 0.000e+00 1.693e-04 1.048e-03 9.611e-06
238 1 -2.000e-01 0.000e+00 0.000e+00 2.860e-04 -1.302e-03 1.241e-03
239 1 0.000e+00 2.000e-01 0.000e+00 -2.301e-04 9.249e-04 -1.818e-03
240 1 0.000e+00 0.000e+00 0.000e+00 -7.334e-04 -9.867e-02 1.891e-03
