ITEM: TIMESTEP
0
ITEM: NUMBER OF ATOMS
12
ITEM: BOX BOUNDS xy xz yz pp pp pp
                     -5.00000000000000e-01 5.00000000000000e-01 0.00000000000000e+00
-5.00000000000000e-01	5.00000000000000e-01	0.00000000000000e+00
-5.00000000000000e-01	5.00000000000000e-01	0.00000000000000e+00
ITEM: ATOMS id type x y z DisplacementX DisplacementY DisplacementZ
1 1 1.000e-01 1.000e-01 0.000e+00 2.135e-04 1.639e-04 1.913e-04
2 1 1.000e-01 -1.000e-01 0.000e+00 -1.683e-04 -1.678e-04 -4.727e-04
3 1 0.000e+00 2.000e-01 0.000e+00 -1.900e-04 1.041e-03 1.228e-03
4 1 0.000e+00 -2.000e-01 0.000e+00 4.681e-04 -3.706e-04 1.110e-04
5 1 1.000e-01 0.000e+00 0.000e+00 7.371e-04 -2.909e-04 -1.386e-03
6 1 0.000e+00 1.000e-01 0.000e+00 3.580e-04 9.791e-04 5.368e-05
7 1 0.000e+00 0.000e+00 0.000e+00 -9.935e-02 1.496e-05 -5.684e-04
8 1 -1.000e-01 -1.000e-01 0.000e+00 7.351e-04 8.526e-04 -5.796e-04
9 1 -2.000e-01 0.000e+00 0.000e+00 1.205e-04 1.177e-03 -1.271e-03
10 1 2.000e-01 0.000e+00 0.000e+00 7.989e-04 4.134e-04 -2.135e-04
11 1 0.000e+00 -1.000e-01 0.000e+00 -4.821e-04 -4.114e-04 -7.142e-04
12 1 -1.000e-01 1.000e-01 0.000e+00 1.246e-05 -3.047e-04 -1.700e-03
ITEM: TIMESTEP
0
ITEM: NUMBER OF ATOMS
12
ITEM: BOX BOUNDS xy xz yz pp pp pp
                     -5.00000000000000e-01 5.00000000000000e-01 0.00000000000000e+00
-5.00000000000000e-01	5.00000000000000e-01	0.00000000000000e+00
-5.00000000000000e-01	5.00000000000000e-01	0.00000000000000e+00
ITEM: ATOMS id type x y z DisplacementX DisplacementY DisplacementZ
13 1 -1.000e-01 0.000e+00 0.000e+00 -1.210e-03 -3.581e-04 1.942e-04
14 1 2.000e-01 0.000e+00 0.000e+00 6.550e-04 -4.991e-04 5.408e-04
15 1 -1.000e-01 -1.000e-01 0.000e+00 -1.050e-04 1.335e-04 -3.350e-03
16 1 0.000e+00 -2.000e-01 0.000e+00 -9.471e-04 4.209e-04 1.298e-03
17 1 1.000e-01 -1.000e-01 0.000e+00 -5.917e-04 1.043e-03 -7.494e-04
18 1 0.000e+00 -1.000e-01 0.000e+00 3.014e-04 2.700e-03 -5.539e-04
19 1 1.000e-01 1.000e-01 0.000e+00 8.793e-04 -4.139e-04 1.546e-03
20 1 0.000e+00 0.000e+00 0.000e+00 1.227e-03 1.009e-01 -1.725e-03
21 1 -1.000e-01 1.000e-01 0.000e+00 1.268e-03 -2.329e-04 1.981e-05
22 1 -2.000e-01 0.000e+00 0.000e+00 6.601e-04 1.379e-03 -1.165e-03
23 1 1.000e-01 0.000e+00 0.000e+00 7.259e-04 1.073e-03 -3.456e-04
24 1 0.000e+00 2.000e-01 0.000e+00 -4.737e-04 -9.943e-05 -4.718e-04
