ITEM: TIMESTEP
0
ITEM: NUMBER OF ATOMS
24
ITEM: BOX BOUNDS xy xz yz pp pp pp
                     -5.00000000000000e-01 5.00000000000000e-01 0.00000000000000e+00
-5.00000000000000e-01	5.00000000000000e-01	0.00000000000000e+00
-5.00000000000000e-01	5.00000000000000e-01	0.00000000000000e+00
ITEM: ATOMS id type x y DisplacementX DisplacementY
1 1 0.000e+00 0.000e+00 -1.341e-07 -7.078e-08
2 1 2.000e-01 0.000e+00 -1.471e-07 2.682e-07
3 1 4.000e-01 0.000e+00 -1.341e-07 4.470e-07
4 1 6.000e-01 0.000e+00 -1.471e-07 2.682e-07
5 1 8.000e-01 0.000e+00 -1.341e-07 -7.078e-08
6 1 0.000e+00 2.000e-01 -7.823e-08 -3.353e-08
7 1 2.000e-01 2.000e-01 -3.539e-08 1.080e-07
8 1 4.000e-01 2.000e-01 -2.608e-08 -1.863e-07
9 1 6.000e-01 2.000e-01 4.284e-08 -1.080e-07
10 1 8.000e-01 2.000e-01 -1.341e-07 -7.078e-08
11 1 0.000e+00 4.000e-01 -1.509e-07 3.241e-07
12 1 2.000e-01 4.000e-01 4.284e-08 -1.080e-07
13 1 4.000e-01 4.000e-01 -8.009e-08 1.527e-07
14 1 8.000e-01 4.000e-01 -3.333e-01 -3.725e-09
15 1 0.000e+00 6.000e-01 -9.499e-08 -3.353e-08
16 1 2.000e-01 6.000e-01 -1.118e-07 1.006e-07
17 1 4.000e-01 6.000e-01 -1.509e-07 3.241e-07
18 1 6.000e-01 6.000e-01 -1.341e-07 4.470e-07
19 1 8.000e-01 6.000e-01 -3.333e-01 -3.725e-09
20 1 0.000e+00 8.000e-01 9.127e-08 3.688e-07
21 1 2.000e-01 8.000e-01 -8.009e-08 1.527e-07
22 1 4.000e-01 8.000e-01 -1.341e-07 -7.078e-08
23 1 6.000e-01 8.000e-01 -1.118e-07 1.006e-07
24 1 8.000e-01 8.000e-01 -3.333e-01 -3.725e-09
ITEM: TIMESTEP
0
ITEM: NUMBER OF ATOMS
24
ITEM: BOX BOUNDS xy xz yz pp pp pp
                     -5.00000000000000e-01 5.00000000000000e-01 0.00000000000000e+00
-5.00000000000000e-01	5.00000000000000e-01	0.00000000000000e+00
-5.00000000000000e-01	5.00000000000000e-01	0.00000000000000e+00
ITEM: ATOMS id type x y DisplacementX DisplacementY
1 1 0.000e+00 0.000e+00 2.645e-07 -1.490e-08
2 1 2.000e-01 0.000e+00 1.714e-07 -7.451e-08
3 1 4.000e-01 0.000e+00 3.204e-07 -5.000e-01
4 1 6.000e-01 0.000e+00 1.714e-07 -7.451e-08
5 1 8.000e-01 0.000e+00 2.645e-07 -1.490e-08
6 1 0.000e+00 2.000e-01 1.341e-07 -3.874e-07
7 1 2.000e-01 2.000e-01 1.192e-07 -1.118e-07
8 1 4.000e-01 2.000e-01 6.333e-08 1.416e-07
9 1 6.000e-01 2.000e-01 1.751e-07 -2.235e-08
10 1 8.000e-01 2.000e-01 2.645e-07 -1.490e-08
11 1 0.000e+00 4.000e-01 1.155e-07 7.451e-08
12 1 2.000e-01 4.000e-01 1.751e-07 -2.235e-08
13 1 4.000e-01 4.000e-01 -1.192e-07 -4.098e-07
14 1 8.000e-01 4.000e-01 1.900e-07 -1.341e-07
15 1 0.000e+00 6.000e-01 1.118e-07 0.000e+00
16 1 2.000e-01 6.000e-01 1.751e-07 1.565e-07
17 1 4.000e-01 6.000e-01 1.155e-07 7.451e-08
18 1 6.000e-01 6.000e-01 3.204e-07 -5.000e-01
19 1 8.000e-01 6.000e-01 1.900e-07 -1.341e-07
20 1 0.000e+00 8.000e-01 7.823e-08 3.725e-08
21 1 2.000e-01 8.000e-01 -1.192e-07 -4.098e-07
22 1 4.000e-01 8.000e-01 2.645e-07 -1.490e-08
23 1 6.000e-01 8.000e-01 1.751e-07 1.565e-07
24 1 8.000e-01 8.000e-01 1.900e-07 -1.341e-07
ITEM: TIMESTEP
0
ITEM: NUMBER OF ATOMS
24
ITEM: BOX BOUNDS xy xz yz pp pp pp
                     -5.00000000000000e-01 5.00000000000000e-01 0.00000000000000e+00
-5.00000000000000e-01	5.00000000000000e-01	0.00000000000000e+00
-5.00000000000000e-01	5.00000000000000e-01	0.00000000000000e+00
ITEM: ATOMS id type x y DisplacementX DisplacementY
1 1 0.000e+00 0.000e+00 -1.788e-07 1.751e-07
2 1 2.000e-01 0.000e+00 -3.576e-07 7.823e-08
3 1 4.000e-01 0.000e+00 -1.937e-07 -8.196e-08
4 1 6.000e-01 0.000e+00 -3.576e-07 7.823e-08
5 1 8.000e-01 0.000e+00 -1.788e-07 1.751e-07
6 1 0.000e+00 2.000e-01 5.215e-08 1.714e-07
7 1 2.000e-01 2.000e-01 -7.451e-08 -8.941e-08
8 1 4.000e-01 2.000e-01 -5.960e-08 1.676e-07
9 1 6.000e-01 2.000e-01 -3.874e-07 1.863e-07
10 1 8.000e-01 2.000e-01 -1.788e-07 1.751e-07
11 1 0.000e+00 4.000e-01 8.196e-08 -2.347e-07
12 1 2.000e-01 4.000e-01 -3.874e-07 1.863e-07
13 1 4.000e-01 4.000e-01 5.000e-01 2.608e-08
14 1 8.000e-01 4.000e-01 -1.267e-07 5.588e-08
15 1 0.000e+00 6.000e-01 0.000e+00 9.686e-08
16 1 2.000e-01 6.000e-01 -3.725e-08 -1.490e-07
17 1 4.000e-01 6.000e-01 8.196e-08 -2.347e-07
18 1 6.000e-01 6.000e-01 -1.937e-07 -8.196e-08
19 1 8.000e-01 6.000e-01 -1.267e-07 5.588e-08
20 1 0.000e+00 8.000e-01 -2.980e-08 2.123e-07
21 1 2.000e-01 8.000e-01 5.000e-01 2.608e-08
22 1 4.000e-01 8.000e-01 -1.788e-07 1.751e-07
23 1 6.000e-01 8.000e-01 -3.725e-08 -1.490e-07
24 1 8.000e-01 8.000e-01 -1.267e-07 5.588e-08
ITEM: TIMESTEP
0
ITEM: NUMBER OF ATOMS
24
ITEM: BOX BOUNDS xy xz yz pp pp pp
                     -5.00000000000000e-01 5.00000000000000e-01 0.00000000000000e+00
-5.00000000000000e-01	5.00000000000000e-01	0.00000000000000e+00
-5.00000000000000e-01	5.00000000000000e-01	0.00000000000000e+00
ITEM: ATOMS id type x y DisplacementX DisplacementY
1 1 0.000e+00 0.000e+00 -8.941e-08 1.006e-07
2 1 2.000e-01 0.000e+00 -1.658e-07 -2.887e-07
3 1 4.000e-01 0.000e+00 -1.527e-07 2.254e-07
4 1 6.000e-01 0.000e+00 -1.658e-07 -2.887e-07
5 1 8.000e-01 0.000e+00 -8.941e-08 1.006e-07
6 1 0.000e+00 2.000e-01 7.264e-08 1.099e-07
7 1 2.000e-01 2.000e-01 -2.086e-07 -2.068e-07
8 1 4.000e-01 2.000e-01 -7.451e-09 1.155e-07
9 1 6.000e-01 2.000e-01 -1.863e-08 5.000e-01
10 1 8.000e-01 2.000e-01 -8.941e-08 1.006e-07
11 1 0.000e+00 4.000e-01 -4.303e-07 -1.118e-08
12 1 2.000e-01 4.000e-01 -1.863e-08 5.000e-01
13 1 4.000e-01 4.000e-01 -7.823e-08 -3.278e-07
14 1 8.000e-01 4.000e-01 -1.397e-07 -5.774e-08
15 1 0.000e+00 6.000e-01 1.490e-08 3.725e-09
16 1 2.000e-01 6.000e-01 -9.127e-08 3.166e-08
17 1 4.000e-01 6.000e-01 -4.303e-07 -1.118e-08
18 1 6.000e-01 6.000e-01 -1.527e-07 2.254e-07
19 1 8.000e-01 6.000e-01 -1.397e-07 -5.774e-08
20 1 0.000e+00 8.000e-01 1.080e-07 1.583e-07
21 1 2.000e-01 8.000e-01 -7.823e-08 -3.278e-07
22 1 4.000e-01 8.000e-01 -8.941e-08 1.006e-07
23 1 6.000e-01 8.000e-01 -9.127e-08 3.166e-08
24 1 8.000e-01 8.000e-01 -1.397e-07 -5.774e-08
