ITEM: TIMESTEP
0
ITEM: NUMBER OF ATOMS
107
ITEM: BOX BOUNDS xy xz yz pp pp pp
                     0.00000000000000e+00 1.06200000000000e+01 0.00000000000000e+00
0.00000000000000e+00	1.06200000000000e+01	0.00000000000000e+00
0.00000000000000e+00	1.06200000000000e+01	0.00000000000000e+00
ITEM: ATOMS id type x y z DisplacementX DisplacementY DisplacementZ
1 1 3.581e-01 3.547e-01 3.521e-01 -1.951e-03 -7.268e-04 -2.509e-03
2 1 2.124e+00 2.124e+00 3.645e-01 -6.103e-03 -2.993e-04 1.199e-02
3 1 2.123e+00 3.508e-01 2.124e+00 -6.398e-04 -4.615e-03 -2.646e-03
4 1 3.513e-01 2.124e+00 2.122e+00 -1.150e-03 -1.737e-03 -1.167e-03
5 1 3.891e+00 3.571e-01 3.507e-01 -1.300e-03 -1.067e-03 -2.335e-03
6 1 5.661e+00 2.124e+00 3.513e-01 -6.130e-04 -2.159e-03 -3.136e-03
7 1 5.662e+00 3.537e-01 2.124e+00 -1.606e-03 -1.609e-03 -1.291e-03
8 1 3.895e+00 2.123e+00 2.123e+00 -5.458e-04 -1.549e-03 -2.247e-03
9 1 7.434e+00 3.548e-01 3.535e-01 -7.899e-04 -2.775e-03 7.358e-04
10 1 9.208e+00 2.124e+00 3.512e-01 -3.558e-04 -2.450e-03 -1.549e-03
11 1 9.203e+00 3.552e-01 2.125e+00 -1.326e-03 -2.269e-03 -7.805e-04
12 1 7.433e+00 2.123e+00 2.124e+00 -1.180e-03 -2.694e-03 2.926e-04
13 1 3.549e-01 3.892e+00 3.525e-01 -5.160e-04 -1.364e-03 -4.764e-03
14 1 2.124e+00 3.896e+00 2.123e+00 -1.687e-03 8.023e-04 -1.382e-03
15 1 3.892e+00 3.891e+00 3.506e-01 -1.738e-03 -1.840e-03 -3.930e-03
16 1 5.664e+00 3.895e+00 2.123e+00 -1.233e-03 -2.476e-03 -1.240e-03
17 1 7.433e+00 3.892e+00 3.523e-01 -8.609e-04 -3.150e-03 6.430e-04
18 1 9.202e+00 3.895e+00 2.125e+00 -1.185e-03 -1.889e-03 -9.724e-04
19 1 3.556e-01 3.544e-01 3.897e+00 -1.548e-03 -2.253e-03 -1.836e-03
20 1 2.123e+00 2.124e+00 3.885e+00 6.023e-04 9.884e-04 -2.218e-02
21 1 3.893e+00 3.556e-01 3.897e+00 -2.948e-03 -4.143e-04 -1.571e-03
22 1 5.660e+00 2.123e+00 3.899e+00 -2.171e-03 -2.718e-03 3.351e-03
23 1 7.433e+00 3.529e-01 3.895e+00 -1.993e-04 -3.192e-03 5.504e-04
24 1 9.207e+00 2.123e+00 3.897e+00 -9.810e-04 -2.379e-03 1.111e-03
25 1 3.573e-01 3.892e+00 3.896e+00 -2.603e-03 -8.892e-04 -6.801e-04
26 1 3.892e+00 3.891e+00 3.897e+00 -1.578e-03 -2.595e-03 -1.281e-03
27 1 7.433e+00 3.894e+00 3.897e+00 -8.799e-04 -2.880e-03 5.755e-04
28 1 2.124e+00 3.645e-01 5.673e+00 -7.712e-02 2.031e-01 4.776e-01
29 1 3.625e-01 2.124e+00 5.673e+00 -9.290e-03 1.073e-02 2.697e-01
30 1 5.662e+00 3.553e-01 5.665e+00 5.891e-04 -3.947e-03 3.299e-03
31 1 3.886e+00 2.124e+00 5.674e+00 -3.224e-02 9.635e-02 9.007e-02
32 1 9.206e+00 3.571e-01 5.667e+00 2.031e-04 -2.865e-03 1.866e-04
33 1 7.433e+00 2.123e+00 5.662e+00 4.042e-04 -2.164e-03 -4.052e-03
34 1 2.125e+00 3.884e+00 5.673e+00 -1.648e-04 -1.193e-01 1.104e-01
35 1 5.662e+00 3.891e+00 5.667e+00 -1.224e-03 -3.510e-03 3.756e-03
36 1 9.205e+00 3.892e+00 5.667e+00 -5.821e-04 -3.627e-03 1.257e-03
37 1 3.641e-01 3.605e-01 7.434e+00 2.108e-02 2.661e-01 -1.937e-02
38 1 2.123e+00 3.639e-01 9.196e+00 1.301e-01 2.376e-01 -3.083e-01
39 1 3.621e-01 2.125e+00 9.195e+00 1.509e-01 5.275e-02 -4.043e-01
40 1 3.887e+00 3.644e-01 7.434e+00 -6.463e-02 1.850e-01 5.213e-02
41 1 5.674e+00 2.126e+00 7.435e+00 4.021e-03 -4.512e-03 3.484e-03
42 1 5.661e+00 3.562e-01 9.203e+00 1.022e-05 -2.320e-03 1.218e-03
43 1 3.885e+00 2.124e+00 9.195e+00 1.634e-02 5.975e-02 -3.999e-02
44 1 7.433e+00 3.505e-01 7.433e+00 -1.420e-03 -5.195e-03 5.394e-05
45 1 9.193e+00 2.124e+00 7.433e+00 -2.476e-03 -4.387e-03 5.522e-03
46 1 9.207e+00 3.562e-01 9.201e+00 -3.611e-04 -3.243e-03 2.610e-03
47 1 7.435e+00 2.125e+00 9.207e+00 -1.399e-03 -2.869e-03 2.879e-03
48 1 3.615e-01 3.884e+00 7.435e+00 2.577e-02 -1.136e-01 -1.327e-01
49 1 2.123e+00 3.885e+00 9.196e+00 8.301e-02 -1.323e-01 -1.443e-01
50 1 3.886e+00 3.885e+00 7.434e+00 3.144e-03 2.949e-02 -1.865e-02
51 1 5.663e+00 3.891e+00 9.201e+00 3.413e-04 -3.822e-03 4.617e-04
52 1 7.433e+00 3.898e+00 7.434e+00 3.497e-04 1.315e-04 -2.625e-04
53 1 9.205e+00 3.892e+00 9.203e+00 -6.397e-04 -3.484e-03 1.110e-03
54 1 2.124e+00 5.661e+00 3.486e-01 -5.195e-04 -3.857e-03 -6.303e-03
55 1 3.551e-01 5.664e+00 2.126e+00 -1.501e-03 -1.774e-03 -1.504e-03
56 1 5.664e+00 5.663e+00 3.528e-01 -8.138e-04 -3.087e-03 -1.147e-03
57 1 3.894e+00 5.664e+00 2.125e+00 -1.420e-03 -2.195e-03 -1.631e-03
58 1 9.205e+00 5.663e+00 3.546e-01 -8.772e-04 -2.719e-03 -8.900e-04
59 1 7.433e+00 5.663e+00 2.125e+00 -9.809e-04 -2.626e-03 -4.477e-04
60 1 3.557e-01 7.433e+00 3.539e-01 -1.164e-03 -2.653e-03 -1.050e-03
61 1 2.123e+00 9.207e+00 3.503e-01 -1.713e-03 -2.393e-04 -3.154e-03
62 1 2.123e+00 7.433e+00 2.125e+00 -1.379e-03 -2.459e-03 -1.744e-03
63 1 3.550e-01 9.205e+00 2.124e+00 -1.316e-03 -2.430e-03 -1.642e-03
64 1 3.893e+00 7.435e+00 3.522e-01 -1.232e-03 -2.853e-03 -1.149e-03
65 1 5.662e+00 9.203e+00 3.549e-01 -9.999e-04 -2.254e-03 -8.412e-04
66 1 5.664e+00 7.435e+00 2.125e+00 -1.028e-03 -2.623e-03 -8.552e-04
67 1 3.893e+00 9.205e+00 2.124e+00 -1.456e-03 -2.052e-03 -1.768e-03
68 1 7.434e+00 7.435e+00 3.538e-01 -8.855e-04 -2.831e-03 -3.432e-04
69 1 9.204e+00 9.203e+00 3.540e-01 -1.032e-03 -2.667e-03 -1.933e-04
70 1 9.203e+00 7.433e+00 2.124e+00 -9.482e-04 -2.648e-03 -7.149e-04
71 1 7.434e+00 9.204e+00 2.123e+00 -9.211e-04 -2.720e-03 -4.502e-04
72 1 2.124e+00 5.661e+00 3.896e+00 -1.709e-03 -3.937e-03 1.370e-03
73 1 5.663e+00 5.664e+00 3.896e+00 -1.248e-03 -2.922e-03 -1.234e-04
74 1 9.205e+00 5.663e+00 3.894e+00 -8.466e-04 -2.628e-03 -1.799e-04
75 1 3.550e-01 7.434e+00 3.894e+00 -3.856e-04 -2.812e-03 -1.590e-03
76 1 2.122e+00 9.207e+00 3.898e+00 -1.550e-03 -7.287e-04 -8.788e-04
77 1 3.893e+00 7.434e+00 3.895e+00 -1.048e-03 -2.589e-03 -1.541e-03
78 1 5.663e+00 9.205e+00 3.894e+00 -9.314e-04 -2.497e-03 -2.863e-04
79 1 7.434e+00 7.432e+00 3.893e+00 -7.638e-04 -2.845e-03 -4.440e-04
80 1 9.204e+00 9.207e+00 3.895e+00 -5.956e-04 -2.852e-03 -8.011e-04
81 1 3.543e-01 5.661e+00 5.667e+00 5.321e-04 -3.617e-03 -1.121e-03
82 1 3.892e+00 5.661e+00 5.667e+00 -1.408e-03 -4.072e-03 -7.294e-04
83 1 7.435e+00 5.662e+00 5.665e+00 -7.807e-04 -3.043e-03 8.825e-04
84 1 2.123e+00 7.436e+00 5.662e+00 -5.390e-04 -1.920e-03 -6.175e-03
85 1 3.562e-01 9.206e+00 5.665e+00 -1.434e-04 -2.698e-03 -2.094e-03
86 1 5.664e+00 7.434e+00 5.664e+00 -7.715e-04 -3.098e-03 -6.562e-04
87 1 3.893e+00 9.209e+00 5.667e+00 -8.421e-04 -2.071e-03 -6.030e-04
88 1 9.205e+00 7.436e+00 5.665e+00 -2.323e-04 -3.261e-03 -3.969e-04
89 1 7.434e+00 9.203e+00 5.663e+00 -1.252e-04 -3.503e-03 6.020e-04
90 1 2.123e+00 5.672e+00 7.435e+00 -4.550e-04 8.150e-03 -1.049e-04
91 1 3.563e-01 5.664e+00 9.202e+00 -6.570e-04 -3.228e-03 -1.912e-03
92 1 5.661e+00 5.659e+00 7.433e+00 -1.322e-03 -5.825e-03 6.096e-04
93 1 3.893e+00 5.661e+00 9.201e+00 -4.034e-04 -4.079e-03 -3.059e-03
94 1 9.208e+00 5.662e+00 7.433e+00 8.821e-05 -4.500e-03 1.813e-05
95 1 7.434e+00 5.666e+00 9.202e+00 -4.337e-04 -3.168e-03 3.456e-04
96 1 3.530e-01 7.435e+00 7.434e+00 -1.638e-03 -2.810e-03 -2.148e-04
97 1 2.123e+00 9.197e+00 7.434e+00 -6.208e-04 -1.579e-02 -3.634e-03
98 1 2.125e+00 7.434e+00 9.206e+00 -1.268e-03 -2.223e-03 2.585e-03
99 1 3.559e-01 9.209e+00 9.203e+00 -8.288e-04 -2.884e-03 -1.333e-03
100 1 3.895e+00 7.433e+00 7.434e+00 2.289e-04 -2.764e-03 -1.733e-03
101 1 5.660e+00 9.209e+00 7.433e+00 -4.591e-04 -1.335e-03 1.020e-03
102 1 5.664e+00 7.434e+00 9.204e+00 -8.563e-04 -3.097e-03 -1.130e-03
103 1 3.893e+00 9.206e+00 9.203e+00 -1.682e-03 -2.229e-03 -1.429e-03
104 1 7.433e+00 7.434e+00 7.434e+00 -3.957e-04 -3.671e-03 6.302e-04
105 1 9.205e+00 9.209e+00 7.434e+00 4.696e-04 -2.574e-03 4.247e-04
106 1 9.205e+00 7.434e+00 9.202e+00 -7.052e-04 -3.230e-03 -4.493e-04
107 1 7.435e+00 9.205e+00 9.204e+00 -4.448e-04 -3.139e-03 9.752e-04
ITEM: TIMESTEP
0
ITEM: NUMBER OF ATOMS
107
ITEM: BOX BOUNDS xy xz yz pp pp pp
                     0.00000000000000e+00 1.06200000000000e+01 0.00000000000000e+00
0.00000000000000e+00	1.06200000000000e+01	0.00000000000000e+00
0.00000000000000e+00	1.06200000000000e+01	0.00000000000000e+00
ITEM: ATOMS id type x y z DisplacementX DisplacementY DisplacementZ
1 1 3.581e-01 3.547e-01 3.521e-01 -4.827e-03 -1.132e-03 2.089e-03
2 1 2.124e+00 2.124e+00 3.645e-01 -7.077e-03 -1.352e-03 1.415e-02
3 1 2.123e+00 3.508e-01 2.124e+00 -1.961e-03 -2.523e-03 4.810e-04
4 1 3.513e-01 2.124e+00 2.122e+00 -5.310e-03 -1.579e-03 3.437e-03
5 1 3.891e+00 3.571e-01 3.507e-01 -4.004e-03 -2.340e-03 3.260e-03
6 1 5.661e+00 2.124e+00 3.513e-01 -4.176e-03 -1.048e-03 4.872e-04
7 1 5.662e+00 3.537e-01 2.124e+00 -3.789e-03 -1.472e-03 2.227e-03
8 1 3.895e+00 2.123e+00 2.123e+00 -2.826e-04 -1.874e-03 -3.808e-04
9 1 7.434e+00 3.548e-01 3.535e-01 -3.422e-03 -1.505e-03 5.097e-04
10 1 9.208e+00 2.124e+00 3.512e-01 -2.972e-03 -1.553e-03 6.807e-04
11 1 9.203e+00 3.552e-01 2.125e+00 -4.014e-03 -1.257e-03 7.371e-04
12 1 7.433e+00 2.123e+00 2.124e+00 -4.055e-03 -1.361e-03 8.303e-04
13 1 3.549e-01 3.892e+00 3.525e-01 -2.363e-03 -2.983e-05 -1.020e-03
14 1 2.124e+00 3.896e+00 2.123e+00 -4.775e-03 -1.483e-03 9.906e-04
15 1 3.892e+00 3.891e+00 3.506e-01 -3.558e-03 -8.950e-04 1.100e-03
16 1 5.664e+00 3.895e+00 2.123e+00 -3.586e-03 -1.710e-03 1.629e-03
17 1 7.433e+00 3.892e+00 3.523e-01 -3.689e-03 -1.625e-03 8.120e-04
18 1 9.202e+00 3.895e+00 2.125e+00 -3.384e-03 -8.860e-04 5.528e-04
19 1 3.556e-01 3.544e-01 3.897e+00 -3.514e-03 -1.997e-03 4.314e-04
20 1 2.123e+00 2.124e+00 3.885e+00 -3.239e-03 -3.873e-04 -3.699e-03
21 1 3.893e+00 3.556e-01 3.897e+00 -5.112e-03 -4.491e-04 4.257e-03
22 1 5.660e+00 2.123e+00 3.899e+00 -6.731e-03 -1.965e-03 4.230e-03
23 1 7.433e+00 3.529e-01 3.895e+00 -3.120e-03 -1.720e-03 -2.213e-04
24 1 9.207e+00 2.123e+00 3.897e+00 -1.270e-03 -1.838e-03 -8.588e-04
25 1 3.573e-01 3.892e+00 3.896e+00 -3.780e-03 -8.115e-04 4.048e-03
26 1 3.892e+00 3.891e+00 3.897e+00 -4.664e-03 -2.681e-03 3.154e-03
27 1 7.433e+00 3.894e+00 3.897e+00 -3.534e-03 -1.901e-03 1.538e-04
28 1 2.124e+00 3.645e-01 5.673e+00 -8.434e-02 3.812e-03 2.213e-01
29 1 3.625e-01 2.124e+00 5.673e+00 1.019e-01 -1.054e-01 2.041e-01
30 1 5.662e+00 3.553e-01 5.665e+00 -3.689e-03 -2.057e-03 -3.360e-04
31 1 3.886e+00 2.124e+00 5.674e+00 -1.166e-02 9.229e-02 3.661e-02
32 1 9.206e+00 3.571e-01 5.667e+00 -1.744e-03 -1.514e-03 -2.500e-03
33 1 7.433e+00 2.123e+00 5.662e+00 -2.428e-03 -1.193e-03 3.437e-04
34 1 2.125e+00 3.884e+00 5.673e+00 1.146e-01 -8.078e-02 -1.319e-01
35 1 5.662e+00 3.891e+00 5.667e+00 -4.964e-03 -2.035e-03 6.872e-04
36 1 9.205e+00 3.892e+00 5.667e+00 -1.972e-03 -3.655e-03 1.270e-03
37 1 3.641e-01 3.605e-01 7.434e+00 1.800e-01 3.359e-02 5.188e-02
38 1 2.123e+00 3.639e-01 9.196e+00 1.346e-01 1.956e-01 -3.909e-01
39 1 3.621e-01 2.125e+00 9.195e+00 3.727e-01 7.671e-02 -4.518e-01
40 1 3.887e+00 3.644e-01 7.434e+00 -2.269e-01 9.776e-02 2.899e-02
41 1 5.674e+00 2.126e+00 7.435e+00 9.691e-03 -3.434e-03 -8.157e-03
42 1 5.661e+00 3.562e-01 9.203e+00 -3.375e-03 -2.996e-04 -1.798e-03
43 1 3.885e+00 2.124e+00 9.195e+00 -1.455e-01 3.034e-02 2.196e-02
44 1 7.433e+00 3.505e-01 7.433e+00 -3.227e-03 -3.492e-03 3.488e-03
45 1 9.193e+00 2.124e+00 7.433e+00 -1.574e-02 -1.894e-03 8.010e-03
46 1 9.207e+00 3.562e-01 9.201e+00 -3.346e-03 -3.000e-03 3.731e-03
47 1 7.435e+00 2.125e+00 9.207e+00 -3.064e-03 -3.166e-03 8.088e-04
48 1 3.615e-01 3.884e+00 7.435e+00 1.888e-01 -2.342e-02 -6.960e-02
49 1 2.123e+00 3.885e+00 9.196e+00 8.996e-03 -1.950e-02 8.522e-02
50 1 3.886e+00 3.885e+00 7.434e+00 -7.826e-02 2.382e-02 1.521e-01
51 1 5.663e+00 3.891e+00 9.201e+00 -2.905e-03 -1.659e-03 -1.259e-03
52 1 7.433e+00 3.898e+00 7.434e+00 -2.731e-03 -4.666e-04 -8.649e-04
53 1 9.205e+00 3.892e+00 9.203e+00 -3.299e-03 -1.221e-03 1.335e-03
54 1 2.124e+00 5.661e+00 3.486e-01 -1.593e-03 -1.254e-03 -2.618e-03
55 1 3.551e-01 5.664e+00 2.126e+00 -3.394e-03 -1.074e-03 6.826e-04
56 1 5.664e+00 5.663e+00 3.528e-01 -3.092e-03 -1.789e-03 4.759e-05
57 1 3.894e+00 5.664e+00 2.125e+00 -3.578e-03 -1.445e-03 1.138e-03
58 1 9.205e+00 5.663e+00 3.546e-01 -3.067e-03 -1.048e-03 -2.044e-04
59 1 7.433e+00 5.663e+00 2.125e+00 -3.353e-03 -1.497e-03 3.967e-04
60 1 3.557e-01 7.433e+00 3.539e-01 -3.033e-03 -1.314e-03 -2.625e-04
61 1 2.123e+00 9.207e+00 3.503e-01 -4.218e-03 -1.364e-03 7.106e-04
62 1 2.123e+00 7.433e+00 2.125e+00 -3.192e-03 -1.112e-03 7.430e-04
63 1 3.550e-01 9.205e+00 2.124e+00 -3.625e-03 -1.627e-03 6.871e-04
64 1 3.893e+00 7.435e+00 3.522e-01 -3.069e-03 -1.767e-03 7.369e-04
65 1 5.662e+00 9.203e+00 3.549e-01 -3.219e-03 -1.345e-03 7.239e-04
66 1 5.664e+00 7.435e+00 2.125e+00 -3.186e-03 -1.561e-03 6.360e-04
67 1 3.893e+00 9.205e+00 2.124e+00 -3.622e-03 -1.511e-03 1.513e-03
68 1 7.434e+00 7.435e+00 3.538e-01 -3.185e-03 -1.558e-03 2.465e-04
69 1 9.204e+00 9.203e+00 3.540e-01 -3.536e-03 -1.806e-03 4.755e-04
70 1 9.203e+00 7.433e+00 2.124e+00 -3.222e-03 -1.432e-03 1.877e-04
71 1 7.434e+00 9.204e+00 2.123e+00 -3.314e-03 -1.566e-03 4.797e-04
72 1 2.124e+00 5.661e+00 3.896e+00 -3.357e-03 -2.591e-03 4.907e-03
73 1 5.663e+00 5.664e+00 3.896e+00 -3.834e-03 -1.659e-03 1.049e-03
74 1 9.205e+00 5.663e+00 3.894e+00 -2.767e-03 -1.826e-03 4.707e-04
75 1 3.550e-01 7.434e+00 3.894e+00 -2.314e-03 -1.465e-03 -6.169e-04
76 1 2.122e+00 9.207e+00 3.898e+00 -3.500e-03 -3.641e-04 8.188e-04
77 1 3.893e+00 7.434e+00 3.895e+00 -3.098e-03 -1.601e-03 7.342e-04
78 1 5.663e+00 9.205e+00 3.894e+00 -3.453e-03 -1.630e-03 9.788e-04
79 1 7.434e+00 7.432e+00 3.893e+00 -3.113e-03 -1.606e-03 1.185e-04
80 1 9.204e+00 9.207e+00 3.895e+00 -2.792e-03 -1.259e-03 -7.498e-04
81 1 3.543e-01 5.661e+00 5.667e+00 -5.937e-04 -2.353e-03 -9.622e-04
82 1 3.892e+00 5.661e+00 5.667e+00 -3.684e-03 -2.072e-03 3.129e-03
83 1 7.435e+00 5.662e+00 5.665e+00 -3.354e-03 -1.951e-03 -2.684e-04
84 1 2.123e+00 7.436e+00 5.662e+00 -2.380e-03 -1.665e-03 -2.707e-03
85 1 3.562e-01 9.206e+00 5.665e+00 -1.666e-03 -7.563e-04 -1.920e-03
86 1 5.664e+00 7.434e+00 5.664e+00 -2.850e-03 -1.809e-03 7.423e-04
87 1 3.893e+00 9.209e+00 5.667e+00 -3.125e-03 -2.044e-03 4.888e-04
88 1 9.205e+00 7.436e+00 5.665e+00 -2.466e-03 -1.532e-03 -7.845e-04
89 1 7.434e+00 9.203e+00 5.663e+00 -2.714e-03 -1.808e-03 -5.392e-04
90 1 2.123e+00 5.672e+00 7.435e+00 -3.862e-03 2.445e-03 -2.760e-03
91 1 3.563e-01 5.664e+00 9.202e+00 -2.148e-03 -1.230e-03 -4.965e-04
92 1 5.661e+00 5.659e+00 7.433e+00 -5.288e-03 -3.300e-03 1.300e-03
93 1 3.893e+00 5.661e+00 9.201e+00 -2.073e-03 -2.956e-03 -2.430e-03
94 1 9.208e+00 5.662e+00 7.433e+00 -3.844e-04 -2.074e-03 -8.774e-04
95 1 7.434e+00 5.666e+00 9.202e+00 -3.159e-03 -1.338e-03 -9.853e-05
96 1 3.530e-01 7.435e+00 7.434e+00 -6.046e-03 -2.649e-03 3.420e-03
97 1 2.123e+00 9.197e+00 7.434e+00 -5.308e-04 -7.539e-03 2.928e-03
98 1 2.125e+00 7.434e+00 9.206e+00 -3.534e-03 -2.078e-03 4.363e-03
99 1 3.559e-01 9.209e+00 9.203e+00 -2.812e-03 -1.755e-03 -3.079e-03
100 1 3.895e+00 7.433e+00 7.434e+00 4.210e-04 -1.818e-03 -2.355e-03
101 1 5.660e+00 9.209e+00 7.433e+00 -4.101e-03 -7.944e-04 1.102e-03
102 1 5.664e+00 7.434e+00 9.204e+00 -2.551e-03 -1.909e-03 -1.633e-05
103 1 3.893e+00 9.206e+00 9.203e+00 -3.171e-03 -1.401e-03 2.032e-03
104 1 7.433e+00 7.434e+00 7.434e+00 -2.910e-03 -1.648e-03 -7.580e-04
105 1 9.205e+00 9.209e+00 7.434e+00 -1.310e-03 -1.457e-03 -3.331e-03
106 1 9.205e+00 7.434e+00 9.202e+00 -2.960e-03 -1.567e-03 -1.505e-03
107 1 7.435e+00 9.205e+00 9.204e+00 -3.106e-03 -1.748e-03 7.832e-04
ITEM: TIMESTEP
0
ITEM: NUMBER OF ATOMS
107
ITEM: BOX BOUNDS xy xz yz pp pp pp
                     0.00000000000000e+00 1.06200000000000e+01 0.00000000000000e+00
0.00000000000000e+00	1.06200000000000e+01	0.00000000000000e+00
0.00000000000000e+00	1.06200000000000e+01	0.00000000000000e+00
ITEM: ATOMS id type x y z DisplacementX DisplacementY DisplacementZ
1 1 3.581e-01 3.547e-01 3.521e-01 -9.646e-04 -9.254e-04 -4.548e-04
2 1 2.124e+00 2.124e+00 3.645e-01 -1.181e-04 9.082e-03 2.270e-02
3 1 2.123e+00 3.508e-01 2.124e+00 -1.069e-03 9.137e-04 8.468e-04
4 1 3.513e-01 2.124e+00 2.122e+00 -2.125e-03 -8.652e-05 -8.599e-04
5 1 3.891e+00 3.571e-01 3.507e-01 1.827e-03 -7.010e-05 3.323e-04
6 1 5.661e+00 2.124e+00 3.513e-01 -2.005e-03 -9.200e-04 -1.314e-04
7 1 5.662e+00 3.537e-01 2.124e+00 -1.770e-05 3.914e-04 1.146e-03
8 1 3.895e+00 2.123e+00 2.123e+00 3.012e-03 1.961e-03 2.656e-03
9 1 7.434e+00 3.548e-01 3.535e-01 -1.492e-03 6.858e-04 1.471e-03
10 1 9.208e+00 2.124e+00 3.512e-01 4.933e-04 -1.200e-03 -3.955e-03
11 1 9.203e+00 3.552e-01 2.125e+00 -1.632e-03 1.519e-04 1.339e-03
12 1 7.433e+00 2.123e+00 2.124e+00 -1.640e-03 1.419e-04 1.276e-03
13 1 3.549e-01 3.892e+00 3.525e-01 -1.801e-04 -2.434e-04 -6.438e-04
14 1 2.124e+00 3.896e+00 2.123e+00 1.462e-03 1.265e-03 1.897e-03
15 1 3.892e+00 3.891e+00 3.506e-01 -2.076e-03 -4.527e-04 1.202e-03
16 1 5.664e+00 3.895e+00 2.123e+00 -1.008e-03 2.017e-04 1.300e-03
17 1 7.433e+00 3.892e+00 3.523e-01 -1.193e-03 6.949e-04 1.351e-03
18 1 9.202e+00 3.895e+00 2.125e+00 -9.894e-04 2.352e-04 1.051e-03
19 1 3.556e-01 3.544e-01 3.897e+00 -8.995e-04 5.485e-04 2.570e-03
20 1 2.123e+00 2.124e+00 3.885e+00 7.778e-04 -1.103e-02 -2.259e-02
21 1 3.893e+00 3.556e-01 3.897e+00 -8.003e-04 6.428e-04 1.632e-03
22 1 5.660e+00 2.123e+00 3.899e+00 -3.096e-03 4.228e-04 8.479e-05
23 1 7.433e+00 3.529e-01 3.895e+00 -1.460e-03 4.591e-04 8.263e-04
24 1 9.207e+00 2.123e+00 3.897e+00 6.579e-04 3.184e-03 8.193e-03
25 1 3.573e-01 3.892e+00 3.896e+00 3.952e-04 9.124e-04 3.063e-03
26 1 3.892e+00 3.891e+00 3.897e+00 -6.862e-04 8.453e-05 9.573e-04
27 1 7.433e+00 3.894e+00 3.897e+00 -1.220e-03 6.154e-04 8.598e-04
28 1 2.124e+00 3.645e-01 5.673e+00 6.616e-02 1.179e-01 8.825e-02
29 1 3.625e-01 2.124e+00 5.673e+00 1.661e-01 9.583e-02 6.497e-03
30 1 5.662e+00 3.553e-01 5.665e+00 -2.175e-03 4.726e-04 -1.423e-03
31 1 3.886e+00 2.124e+00 5.674e+00 -1.485e-01 1.228e-01 2.867e-01
32 1 9.206e+00 3.571e-01 5.667e+00 -1.349e-03 1.841e-03 4.148e-03
33 1 7.433e+00 2.123e+00 5.662e+00 1.861e-04 -1.229e-03 -4.671e-03
34 1 2.125e+00 3.884e+00 5.673e+00 -6.845e-02 1.431e-01 1.301e-01
35 1 5.662e+00 3.891e+00 5.667e+00 -3.064e-03 4.800e-04 2.982e-04
36 1 9.205e+00 3.892e+00 5.667e+00 1.708e-03 2.015e-03 2.843e-03
37 1 3.641e-01 3.605e-01 7.434e+00 3.630e-01 7.278e-02 4.241e-03
38 1 2.123e+00 3.639e-01 9.196e+00 -5.031e-02 -9.005e-02 -1.282e-01
39 1 3.621e-01 2.125e+00 9.195e+00 1.299e-01 2.668e-02 1.349e-01
40 1 3.887e+00 3.644e-01 7.434e+00 -2.589e-01 -8.173e-02 -3.120e-02
41 1 5.674e+00 2.126e+00 7.435e+00 1.009e-02 6.175e-03 9.898e-03
42 1 5.661e+00 3.562e-01 9.203e+00 -3.006e-03 1.071e-03 3.729e-03
43 1 3.885e+00 2.124e+00 9.195e+00 -2.306e-01 -2.354e-01 -6.714e-01
44 1 7.433e+00 3.505e-01 7.433e+00 -4.074e-04 1.068e-03 -7.911e-04
45 1 9.193e+00 2.124e+00 7.433e+00 -1.375e-02 -3.638e-03 -9.037e-03
46 1 9.207e+00 3.562e-01 9.201e+00 7.406e-04 3.489e-04 -2.108e-03
47 1 7.435e+00 2.125e+00 9.207e+00 -5.785e-04 3.335e-03 6.254e-03
48 1 3.615e-01 3.884e+00 7.435e+00 -2.823e-02 -1.972e-03 3.897e-03
49 1 2.123e+00 3.885e+00 9.196e+00 -2.884e-02 -5.778e-02 -5.385e-02
50 1 3.886e+00 3.885e+00 7.434e+00 -1.684e-01 -8.383e-02 -1.640e-01
51 1 5.663e+00 3.891e+00 9.201e+00 -1.619e-03 5.288e-04 -2.835e-04
52 1 7.433e+00 3.898e+00 7.434e+00 -1.442e-04 1.412e-03 2.378e-03
53 1 9.205e+00 3.892e+00 9.203e+00 -9.769e-04 9.741e-04 5.062e-04
54 1 2.124e+00 5.661e+00 3.486e-01 -2.366e-03 -1.314e-03 -3.971e-03
55 1 3.551e-01 5.664e+00 2.126e+00 -7.079e-04 2.766e-04 1.189e-03
56 1 5.664e+00 5.663e+00 3.528e-01 -1.396e-03 4.134e-04 1.100e-03
57 1 3.894e+00 5.664e+00 2.125e+00 -1.114e-03 1.877e-04 1.308e-03
58 1 9.205e+00 5.663e+00 3.546e-01 -1.225e-03 4.793e-04 6.318e-04
59 1 7.433e+00 5.663e+00 2.125e+00 -1.156e-03 5.316e-04 1.302e-03
60 1 3.557e-01 7.433e+00 3.539e-01 -1.524e-03 6.312e-04 1.185e-03
61 1 2.123e+00 9.207e+00 3.503e-01 2.192e-04 -8.157e-04 -5.561e-04
62 1 2.123e+00 7.433e+00 2.125e+00 -1.626e-03 -1.266e-04 1.050e-03
63 1 3.550e-01 9.205e+00 2.124e+00 -1.339e-03 7.801e-05 1.148e-03
64 1 3.893e+00 7.435e+00 3.522e-01 -1.020e-03 7.794e-04 1.327e-03
65 1 5.662e+00 9.203e+00 3.549e-01 -7.589e-04 6.687e-04 1.667e-03
66 1 5.664e+00 7.435e+00 2.125e+00 -1.021e-03 4.982e-04 1.203e-03
67 1 3.893e+00 9.205e+00 2.124e+00 -6.702e-04 3.339e-04 1.416e-03
68 1 7.434e+00 7.435e+00 3.538e-01 -1.236e-03 6.333e-04 1.300e-03
69 1 9.204e+00 9.203e+00 3.540e-01 -1.323e-03 1.960e-04 4.198e-04
70 1 9.203e+00 7.433e+00 2.124e+00 -1.318e-03 4.558e-04 1.260e-03
71 1 7.434e+00 9.204e+00 2.123e+00 -1.205e-03 4.902e-04 1.205e-03
72 1 2.124e+00 5.661e+00 3.896e+00 -8.458e-04 1.435e-03 4.867e-03
73 1 5.663e+00 5.664e+00 3.896e+00 -1.740e-03 4.052e-04 9.942e-04
74 1 9.205e+00 5.663e+00 3.894e+00 -3.898e-04 9.548e-04 2.270e-03
75 1 3.550e-01 7.434e+00 3.894e+00 -8.879e-04 7.100e-04 2.192e-03
76 1 2.122e+00 9.207e+00 3.898e+00 -6.753e-04 1.619e-03 3.906e-03
77 1 3.893e+00 7.434e+00 3.895e+00 -9.416e-04 2.509e-04 4.134e-04
78 1 5.663e+00 9.205e+00 3.894e+00 -8.905e-04 4.148e-04 4.069e-04
79 1 7.434e+00 7.432e+00 3.893e+00 -1.194e-03 5.488e-04 1.169e-03
80 1 9.204e+00 9.207e+00 3.895e+00 -1.557e-03 8.094e-04 2.448e-03
81 1 3.543e-01 5.661e+00 5.667e+00 2.217e-04 1.774e-03 4.724e-03
82 1 3.892e+00 5.661e+00 5.667e+00 -2.310e-03 1.296e-04 -2.565e-04
83 1 7.435e+00 5.662e+00 5.665e+00 -1.206e-03 1.002e-03 1.328e-03
84 1 2.123e+00 7.436e+00 5.662e+00 1.779e-04 -5.801e-04 -4.100e-03
85 1 3.562e-01 9.206e+00 5.665e+00 -1.236e-03 1.469e-03 3.182e-03
86 1 5.664e+00 7.434e+00 5.664e+00 -9.488e-04 5.878e-04 6.345e-04
87 1 3.893e+00 9.209e+00 5.667e+00 2.981e-04 8.673e-04 -6.387e-04
88 1 9.205e+00 7.436e+00 5.665e+00 -1.405e-03 7.992e-04 1.986e-03
89 1 7.434e+00 9.203e+00 5.663e+00 -1.542e-03 6.892e-04 1.061e-03
90 1 2.123e+00 5.672e+00 7.435e+00 3.261e-03 1.342e-03 2.633e-03
91 1 3.563e-01 5.664e+00 9.202e+00 -1.006e-03 6.072e-04 -1.854e-03
92 1 5.661e+00 5.659e+00 7.433e+00 -4.597e-03 -2.989e-04 -1.525e-03
93 1 3.893e+00 5.661e+00 9.201e+00 -1.792e-03 7.600e-04 9.552e-04
94 1 9.208e+00 5.662e+00 7.433e+00 1.086e-03 2.312e-03 3.112e-03
95 1 7.434e+00 5.666e+00 9.202e+00 -1.283e-03 8.182e-04 1.587e-03
96 1 3.530e-01 7.435e+00 7.434e+00 -2.825e-03 -4.713e-04 -2.988e-03
97 1 2.123e+00 9.197e+00 7.434e+00 -5.464e-03 7.377e-04 -2.070e-03
98 1 2.125e+00 7.434e+00 9.206e+00 6.365e-04 3.398e-03 6.794e-03
99 1 3.559e-01 9.209e+00 9.203e+00 -2.079e-03 6.473e-04 1.910e-03
100 1 3.895e+00 7.433e+00 7.434e+00 1.809e-03 2.689e-03 4.782e-03
101 1 5.660e+00 9.209e+00 7.433e+00 -1.093e-03 5.460e-04 -3.061e-04
102 1 5.664e+00 7.434e+00 9.204e+00 -8.389e-04 9.078e-04 1.340e-03
103 1 3.893e+00 9.206e+00 9.203e+00 -2.136e-04 1.182e-03 1.755e-03
104 1 7.433e+00 7.434e+00 7.434e+00 -1.829e-03 6.544e-04 1.194e-03
105 1 9.205e+00 9.209e+00 7.434e+00 -9.557e-04 1.234e-03 2.965e-03
106 1 9.205e+00 7.434e+00 9.202e+00 -2.084e-03 5.322e-04 7.477e-04
107 1 7.435e+00 9.205e+00 9.204e+00 -1.227e-03 6.246e-04 5.307e-04
ITEM: TIMESTEP
0
ITEM: NUMBER OF ATOMS
107
ITEM: BOX BOUNDS xy xz yz pp pp pp
                     0.00000000000000e+00 1.06200000000000e+01 0.00000000000000e+00
0.00000000000000e+00	1.06200000000000e+01	0.00000000000000e+00
0.00000000000000e+00	1.06200000000000e+01	0.00000000000000e+00
ITEM: ATOMS id type x y z DisplacementX DisplacementY DisplacementZ
1 1 3.581e-01 3.547e-01 3.521e-01 7.452e-04 8.658e-05 -2.903e-04
2 1 2.124e+00 2.124e+00 3.645e-01 -3.595e-03 -1.347e-03 1.577e-02
3 1 2.123e+00 3.508e-01 2.124e+00 4.823e-04 -3.482e-03 2.980e-04
4 1 3.513e-01 2.124e+00 2.122e+00 -5.364e-04 1.117e-04 6.503e-04
5 1 3.891e+00 3.571e-01 3.507e-01 -5.780e-04 1.013e-03 4.297e-04
6 1 5.661e+00 2.124e+00 3.513e-01 5.743e-06 -1.059e-05 -6.399e-04
7 1 5.662e+00 3.537e-01 2.124e+00 -6.055e-05 6.791e-04 1.281e-03
8 1 3.895e+00 2.123e+00 2.123e+00 3.316e-04 1.654e-04 8.567e-04
9 1 7.434e+00 3.548e-01 3.535e-01 5.057e-04 -3.123e-04 1.926e-03
10 1 9.208e+00 2.124e+00 3.512e-01 1.443e-03 1.661e-04 -1.037e-03
11 1 9.203e+00 3.552e-01 2.125e+00 4.458e-04 -6.229e-04 1.168e-03
12 1 7.433e+00 2.123e+00 2.124e+00 5.912e-04 -2.242e-04 1.756e-03
13 1 3.549e-01 3.892e+00 3.525e-01 8.924e-05 2.877e-04 -1.677e-03
14 1 2.124e+00 3.896e+00 2.123e+00 -1.224e-04 2.399e-03 -5.007e-04
15 1 3.892e+00 3.891e+00 3.506e-01 1.824e-04 -5.878e-04 4.358e-04
16 1 5.664e+00 3.895e+00 2.123e+00 -2.888e-05 -6.835e-04 1.312e-03
17 1 7.433e+00 3.892e+00 3.523e-01 4.608e-04 -8.247e-04 1.604e-03
18 1 9.202e+00 3.895e+00 2.125e+00 2.920e-04 3.691e-04 1.315e-03
19 1 3.556e-01 3.544e-01 3.897e+00 -1.150e-04 -9.924e-04 1.064e-03
20 1 2.123e+00 2.124e+00 3.885e+00 2.683e-03 1.635e-03 -1.807e-02
21 1 3.893e+00 3.556e-01 3.897e+00 -6.299e-04 1.633e-03 1.569e-03
22 1 5.660e+00 2.123e+00 3.899e+00 3.095e-04 -2.585e-04 3.290e-03
23 1 7.433e+00 3.529e-01 3.895e+00 6.794e-04 -6.421e-04 1.586e-03
24 1 9.207e+00 2.123e+00 3.897e+00 8.342e-05 -2.142e-04 4.293e-03
25 1 3.573e-01 3.892e+00 3.896e+00 -1.718e-04 7.545e-04 2.786e-03
26 1 3.892e+00 3.891e+00 3.897e+00 -6.460e-04 -1.633e-03 8.488e-04
27 1 7.433e+00 3.894e+00 3.897e+00 8.757e-04 -2.141e-05 1.800e-03
28 1 2.124e+00 3.645e-01 5.673e+00 1.620e-02 2.810e-01 3.595e-01
29 1 3.625e-01 2.124e+00 5.673e+00 -8.298e-03 9.857e-03 2.186e-01
30 1 5.662e+00 3.553e-01 5.665e+00 1.187e-03 -3.927e-04 2.089e-03
31 1 3.886e+00 2.124e+00 5.674e+00 -8.428e-02 1.246e-02 1.618e-01
32 1 9.206e+00 3.571e-01 5.667e+00 4.479e-04 -3.514e-04 1.758e-03
33 1 7.433e+00 2.123e+00 5.662e+00 7.988e-04 1.875e-04 -2.235e-03
34 1 2.125e+00 3.884e+00 5.673e+00 5.879e-02 -9.957e-02 1.362e-01
35 1 5.662e+00 3.891e+00 5.667e+00 1.758e-03 -6.058e-04 2.995e-03
36 1 9.205e+00 3.892e+00 5.667e+00 3.172e-04 -1.233e-04 2.963e-03
37 1 3.641e-01 3.605e-01 7.434e+00 -3.895e-02 2.972e-01 3.157e-02
38 1 2.123e+00 3.639e-01 9.196e+00 1.012e-02 1.385e-01 -3.072e-01
39 1 3.621e-01 2.125e+00 9.195e+00 -3.237e-02 -3.085e-02 -2.103e-01
40 1 3.887e+00 3.644e-01 7.434e+00 -8.799e-03 7.929e-02 6.026e-03
41 1 5.674e+00 2.126e+00 7.435e+00 2.934e-03 1.060e-04 5.007e-03
42 1 5.661e+00 3.562e-01 9.203e+00 4.418e-04 -2.265e-04 1.482e-03
43 1 3.885e+00 2.124e+00 9.195e+00 1.025e-01 4.334e-02 -1.894e-01
44 1 7.433e+00 3.505e-01 7.433e+00 8.504e-04 -2.685e-03 2.297e-03
45 1 9.193e+00 2.124e+00 7.433e+00 1.525e-05 -1.250e-03 9.889e-04
46 1 9.207e+00 3.562e-01 9.201e+00 1.205e-03 1.241e-04 2.766e-03
47 1 7.435e+00 2.125e+00 9.207e+00 -4.073e-04 -1.090e-03 4.329e-03
48 1 3.615e-01 3.884e+00 7.435e+00 4.549e-02 -2.539e-01 -5.477e-03
49 1 2.123e+00 3.885e+00 9.196e+00 -1.431e-02 -3.066e-01 -2.364e-01
50 1 3.886e+00 3.885e+00 7.434e+00 -3.807e-02 1.212e-02 -1.486e-02
51 1 5.663e+00 3.891e+00 9.201e+00 1.102e-03 -7.116e-04 1.025e-03
52 1 7.433e+00 3.898e+00 7.434e+00 -4.298e-04 2.009e-03 5.999e-04
53 1 9.205e+00 3.892e+00 9.203e+00 8.103e-04 -8.177e-04 1.619e-03
54 1 2.124e+00 5.661e+00 3.486e-01 9.595e-04 -1.756e-03 -2.027e-03
55 1 3.551e-01 5.664e+00 2.126e+00 6.178e-05 2.449e-04 1.199e-03
56 1 5.664e+00 5.663e+00 3.528e-01 2.758e-04 -1.009e-03 1.112e-03
57 1 3.894e+00 5.664e+00 2.125e+00 -1.123e-04 -4.582e-04 1.179e-03
58 1 9.205e+00 5.663e+00 3.546e-01 3.925e-04 -4.703e-04 8.919e-04
59 1 7.433e+00 5.663e+00 2.125e+00 3.058e-04 -4.285e-04 1.396e-03
60 1 3.557e-01 7.433e+00 3.539e-01 2.056e-04 -7.562e-04 1.141e-03
61 1 2.123e+00 9.207e+00 3.503e-01 6.967e-05 1.263e-03 -8.425e-04
62 1 2.123e+00 7.433e+00 2.125e+00 -1.373e-04 -6.494e-04 1.397e-03
63 1 3.550e-01 9.205e+00 2.124e+00 2.003e-04 -9.344e-04 7.296e-04
64 1 3.893e+00 7.435e+00 3.522e-01 -2.551e-05 -8.813e-04 1.515e-03
65 1 5.662e+00 9.203e+00 3.549e-01 -1.112e-05 -1.425e-05 1.357e-03
66 1 5.664e+00 7.435e+00 2.125e+00 1.539e-04 -5.156e-04 1.340e-03
67 1 3.893e+00 9.205e+00 2.124e+00 -1.962e-04 -1.796e-04 9.531e-04
68 1 7.434e+00 7.435e+00 3.538e-01 3.023e-04 -6.201e-04 1.434e-03
69 1 9.204e+00 9.203e+00 3.540e-01 6.005e-04 -5.371e-04 1.285e-03
70 1 9.203e+00 7.433e+00 2.124e+00 2.476e-04 -5.871e-04 1.290e-03
71 1 7.434e+00 9.204e+00 2.123e+00 3.204e-04 -5.308e-04 1.389e-03
72 1 2.124e+00 5.661e+00 3.896e+00 -9.000e-04 -3.011e-03 4.214e-03
73 1 5.663e+00 5.664e+00 3.896e+00 3.883e-04 -1.025e-03 1.577e-03
74 1 9.205e+00 5.663e+00 3.894e+00 1.208e-04 -1.887e-04 1.927e-03
75 1 3.550e-01 7.434e+00 3.894e+00 -1.739e-04 -1.060e-03 8.653e-04
76 1 2.122e+00 9.207e+00 3.898e+00 -8.564e-04 8.298e-04 1.818e-03
77 1 3.893e+00 7.434e+00 3.895e+00 5.313e-05 -7.433e-04 7.245e-04
78 1 5.663e+00 9.205e+00 3.894e+00 1.872e-04 -1.028e-05 1.314e-03
79 1 7.434e+00 7.432e+00 3.893e+00 3.353e-04 -6.153e-04 1.319e-03
80 1 9.204e+00 9.207e+00 3.895e+00 2.335e-04 -1.100e-03 1.321e-03
81 1 3.543e-01 5.661e+00 5.667e+00 -8.551e-04 -1.758e-03 1.352e-03
82 1 3.892e+00 5.661e+00 5.667e+00 2.156e-04 -3.076e-03 1.412e-03
83 1 7.435e+00 5.662e+00 5.665e+00 7.807e-04 -2.687e-04 1.898e-03
84 1 2.123e+00 7.436e+00 5.662e+00 1.300e-03 1.145e-04 -3.602e-03
85 1 3.562e-01 9.206e+00 5.665e+00 -8.550e-05 -1.688e-03 7.992e-04
86 1 5.664e+00 7.434e+00 5.664e+00 1.322e-04 -9.407e-04 1.211e-03
87 1 3.893e+00 9.209e+00 5.667e+00 -2.254e-04 6.360e-04 6.491e-04
88 1 9.205e+00 7.436e+00 5.665e+00 1.167e-04 -1.249e-03 1.332e-03
89 1 7.434e+00 9.203e+00 5.663e+00 6.189e-04 -9.175e-04 1.687e-03
90 1 2.123e+00 5.672e+00 7.435e+00 -2.214e-03 1.059e-02 -5.318e-04
91 1 3.563e-01 5.664e+00 9.202e+00 6.941e-04 -9.982e-04 9.797e-05
92 1 5.661e+00 5.659e+00 7.433e+00 1.269e-03 -4.125e-03 1.309e-03
93 1 3.893e+00 5.661e+00 9.201e+00 1.182e-04 -2.596e-03 -1.250e-04
94 1 9.208e+00 5.662e+00 7.433e+00 4.370e-04 -1.459e-03 1.926e-03
95 1 7.434e+00 5.666e+00 9.202e+00 4.434e-04 -8.786e-04 1.285e-03
96 1 3.530e-01 7.435e+00 7.434e+00 1.479e-04 -8.504e-04 7.321e-04
97 1 2.123e+00 9.197e+00 7.434e+00 1.650e-03 -1.597e-02 8.296e-04
98 1 2.125e+00 7.434e+00 9.206e+00 -9.851e-04 -1.220e-03 3.837e-03
99 1 3.559e-01 9.209e+00 9.203e+00 2.533e-04 -1.688e-03 -2.984e-06
100 1 3.895e+00 7.433e+00 7.434e+00 -7.269e-06 -1.225e-03 1.199e-03
101 1 5.660e+00 9.209e+00 7.433e+00 -3.667e-04 1.927e-03 1.396e-03
102 1 5.664e+00 7.434e+00 9.204e+00 1.063e-04 -9.620e-04 1.320e-03
103 1 3.893e+00 9.206e+00 9.203e+00 -4.627e-04 -4.430e-04 1.634e-03
104 1 7.433e+00 7.434e+00 7.434e+00 6.214e-04 -1.050e-03 1.648e-03
105 1 9.205e+00 9.209e+00 7.434e+00 8.149e-04 -7.071e-04 1.531e-03
106 1 9.205e+00 7.434e+00 9.202e+00 5.580e-04 -1.082e-03 9.563e-04
107 1 7.435e+00 9.205e+00 9.204e+00 6.403e-04 -3.513e-04 2.024e-03