ITEM: TIMESTEP
0
ITEM: NUMBER OF ATOMS
24
ITEM: BOX BOUNDS xy xz yz pp pp pp
                     -5.00000000000000e-01 5.00000000000000e-01 0.00000000000000e+00
-5.00000000000000e-01	5.00000000000000e-01	0.00000000000000e+00
-5.00000000000000e-01	5.00000000000000e-01	0.00000000000000e+00
ITEM: ATOMS id type x y DisplacementX DisplacementY
1 1 0.000e+00 0.000e+00 -1.406e-01 -6.595e-02
2 1 2.000e-01 0.000e+00 7.578e-02 -6.109e-02
3 1 4.000e-01 0.000e+00 -6.655e-02 7.976e-02
4 1 6.000e-01 0.000e+00 3.980e-02 -8.330e-02
5 1 8.000e-01 0.000e+00 5.492e-02 6.046e-02
6 1 0.000e+00 2.000e-01 1.445e-01 7.545e-02
7 1 2.000e-01 2.000e-01 4.537e-03 2.327e-02
8 1 4.000e-01 2.000e-01 -3.238e-02 3.369e-03
9 1 6.000e-01 2.000e-01 -3.068e-02 -2.056e-02
10 1 8.000e-01 2.000e-01 -9.946e-03 1.730e-02
11 1 0.000e+00 4.000e-01 -2.444e-02 -1.186e-03
12 1 2.000e-01 4.000e-01 -5.333e-02 2.954e-03
13 1 4.000e-01 4.000e-01 1.072e-01 7.036e-03
14 1 6.000e-01 4.000e-01 5.587e-03 2.597e-02
15 1 8.000e-01 4.000e-01 -1.391e-01 -6.767e-02
16 1 0.000e+00 6.000e-01 6.217e-02 -2.890e-02
17 1 2.000e-01 6.000e-01 6.591e-02 5.221e-02
18 1 4.000e-01 6.000e-01 -1.483e-01 -5.950e-02
19 1 8.000e-01 6.000e-01 -8.296e-01 3.843e-02
20 1 0.000e+00 8.000e-01 -8.170e-02 1.010e-02
21 1 2.000e-01 8.000e-01 3.475e-02 -6.490e-02
22 1 4.000e-01 8.000e-01 3.968e-02 6.005e-02
23 1 6.000e-01 8.000e-01 -4.112e-02 -2.429e-02
24 1 8.000e-01 8.000e-01 2.886e-02 1.772e-02
ITEM: TIMESTEP
0
ITEM: NUMBER OF ATOMS
24
ITEM: BOX BOUNDS xy xz yz pp pp pp
                     -5.00000000000000e-01 5.00000000000000e-01 0.00000000000000e+00
-5.00000000000000e-01	5.00000000000000e-01	0.00000000000000e+00
-5.00000000000000e-01	5.00000000000000e-01	0.00000000000000e+00
ITEM: ATOMS id type x y DisplacementX DisplacementY
1 1 0.000e+00 0.000e+00 -2.779e-02 -1.141e-01
2 1 2.000e-01 0.000e+00 9.240e-02 4.463e-03
3 1 4.000e-01 0.000e+00 -7.260e-02 7.997e-02
4 1 6.000e-01 0.000e+00 5.085e-03 5.970e-02
5 1 8.000e-01 0.000e+00 1.623e-02 -1.123e-01
6 1 0.000e+00 2.000e-01 -7.534e-03 -1.760e-03
7 1 2.000e-01 2.000e-01 -7.247e-02 4.381e-02
8 1 4.000e-01 2.000e-01 4.140e-02 -1.013e-02
9 1 6.000e-01 2.000e-01 5.246e-02 -3.974e-02
10 1 8.000e-01 2.000e-01 -4.651e-02 6.759e-02
11 1 0.000e+00 4.000e-01 3.665e-02 1.120e-01
12 1 2.000e-01 4.000e-01 1.827e-02 9.117e-05
13 1 4.000e-01 4.000e-01 -3.348e-02 -5.207e-02
14 1 6.000e-01 4.000e-01 -2.502e-02 -6.535e-02
15 1 8.000e-01 4.000e-01 4.977e-02 3.753e-02
16 1 0.000e+00 6.000e-01 -4.072e-02 -7.152e-02
17 1 2.000e-01 6.000e-01 2.205e-02 -2.779e-02
18 1 4.000e-01 6.000e-01 1.629e-02 3.059e-02
19 1 8.000e-01 6.000e-01 -2.564e-02 1.298e-02
20 1 0.000e+00 8.000e-01 2.322e-02 7.206e-02
21 1 2.000e-01 8.000e-01 -4.469e-02 -5.956e-02
22 1 4.000e-01 8.000e-01 2.438e-02 -4.616e-02
23 1 6.000e-01 8.000e-01 6.164e-02 -8.835e-01
24 1 8.000e-01 8.000e-01 -7.038e-02 -1.704e-02
ITEM: TIMESTEP
0
ITEM: NUMBER OF ATOMS
24
ITEM: BOX BOUNDS xy xz yz pp pp pp
                     -5.00000000000000e-01 5.00000000000000e-01 0.00000000000000e+00
-5.00000000000000e-01	5.00000000000000e-01	0.00000000000000e+00
-5.00000000000000e-01	5.00000000000000e-01	0.00000000000000e+00
ITEM: ATOMS id type x y DisplacementX DisplacementY
1 1 0.000e+00 0.000e+00 -5.973e-02 3.173e-02
2 1 2.000e-01 0.000e+00 4.255e-02 2.610e-02
3 1 4.000e-01 0.000e+00 -2.890e-02 -3.197e-03
4 1 6.000e-01 0.000e+00 4.389e-02 3.245e-03
5 1 8.000e-01 0.000e+00 -9.443e-03 -8.131e-02
6 1 0.000e+00 2.000e-01 3.815e-02 -6.219e-02
7 1 2.000e-01 2.000e-01 4.075e-02 -9.945e-02
8 1 4.000e-01 2.000e-01 -3.255e-02 7.191e-03
9 1 6.000e-01 2.000e-01 4.078e-03 8.328e-02
10 1 8.000e-01 2.000e-01 -2.942e-02 3.117e-02
11 1 0.000e+00 4.000e-01 -3.055e-02 5.291e-02
12 1 2.000e-01 4.000e-01 -5.670e-02 -1.895e-02
13 1 4.000e-01 4.000e-01 7.096e-02 -1.119e-03
14 1 6.000e-01 4.000e-01 3.085e-02 -3.461e-02
15 1 8.000e-01 4.000e-01 -9.649e-02 3.610e-02
16 1 0.000e+00 6.000e-01 8.295e-02 1.323e-01
17 1 2.000e-01 6.000e-01 -3.681e-02 7.711e-02
18 1 4.000e-01 6.000e-01 9.635e-01 -6.023e-02
19 1 8.000e-01 6.000e-01 5.044e-02 -1.258e-01
20 1 0.000e+00 8.000e-01 -1.283e-01 -8.103e-02
21 1 2.000e-01 8.000e-01 1.372e-01 -5.269e-02
22 1 4.000e-01 8.000e-01 9.311e-03 -4.178e-02
23 1 6.000e-01 8.000e-01 -1.375e-01 9.573e-02
24 1 8.000e-01 8.000e-01 1.239e-01 9.410e-02
ITEM: TIMESTEP
0
ITEM: NUMBER OF ATOMS
24
ITEM: BOX BOUNDS xy xz yz pp pp pp
                     -5.00000000000000e-01 5.00000000000000e-01 0.00000000000000e+00
-5.00000000000000e-01	5.00000000000000e-01	0.00000000000000e+00
-5.00000000000000e-01	5.00000000000000e-01	0.00000000000000e+00
ITEM: ATOMS id type x y DisplacementX DisplacementY
1 1 0.000e+00 0.000e+00 2.923e-02 1.316e-02
2 1 2.000e-01 0.000e+00 -3.631e-02 -7.480e-02
3 1 4.000e-01 0.000e+00 8.290e-02 1.103e-01
4 1 6.000e-01 0.000e+00 -3.864e-02 -4.781e-02
5 1 8.000e-01 0.000e+00 4.453e-03 -2.204e-03
6 1 0.000e+00 2.000e-01 -2.400e-02 -3.348e-02
7 1 2.000e-01 2.000e-01 4.848e-02 6.957e-03
8 1 4.000e-01 2.000e-01 -1.297e-01 5.000e-03
9 1 6.000e-01 2.000e-01 3.273e-02 6.469e-02
10 1 8.000e-01 2.000e-01 9.375e-02 -1.920e-02
11 1 0.000e+00 4.000e-01 4.152e-03 -5.966e-03
12 1 2.000e-01 4.000e-01 -4.423e-02 4.696e-02
13 1 4.000e-01 4.000e-01 7.191e-02 -6.267e-03
14 1 6.000e-01 4.000e-01 -2.872e-02 8.853e-01
15 1 8.000e-01 4.000e-01 -4.906e-02 2.477e-02
16 1 0.000e+00 6.000e-01 1.459e-02 -4.057e-02
17 1 2.000e-01 6.000e-01 1.335e-01 1.559e-02
18 1 4.000e-01 6.000e-01 -1.425e-01 -1.790e-04
19 1 8.000e-01 6.000e-01 6.191e-02 -1.112e-02
20 1 0.000e+00 8.000e-01 6.106e-02 2.996e-02
21 1 2.000e-01 8.000e-01 -7.678e-02 1.838e-02
22 1 4.000e-01 8.000e-01 -8.715e-03 -5.893e-02
23 1 6.000e-01 8.000e-01 5.522e-02 8.833e-02
24 1 8.000e-01 8.000e-01 1.606e-02 3.918e-02
