ITEM: TIMESTEP
0
ITEM: NUMBER OF ATOMS
8
ITEM: BOX BOUNDS xy xz yz pp pp pp
                     -5.00000000000000e-01 5.00000000000000e-01 0.00000000000000e+00
-5.00000000000000e-01	5.00000000000000e-01	0.00000000000000e+00
-5.00000000000000e-01	5.00000000000000e-01	0.00000000000000e+00
ITEM: ATOMS id type x y z DisplacementX DisplacementY DisplacementZ
1 1 1.000e-01 -1.000e-01 0.000e+00 7.692e-04 6.470e-03 -6.810e-03
2 1 1.000e-01 0.000e+00 0.000e+00 7.678e-03 -5.021e-03 1.999e-03
3 1 0.000e+00 1.000e-01 0.000e+00 6.087e-03 -4.197e-03 3.223e-03
4 1 1.000e-01 1.000e-01 0.000e+00 2.006e-04 -1.479e-02 -1.012e-02
5 1 0.000e+00 0.000e+00 0.000e+00 -9.348e-02 -2.169e-02 5.704e-04
6 1 -1.000e-01 -1.000e-01 0.000e+00 2.870e-02 1.582e-02 -1.207e-03
7 1 -1.000e-01 1.000e-01 0.000e+00 4.499e-03 -1.575e-02 -9.193e-03
8 1 0.000e+00 -1.000e-01 0.000e+00 -4.368e-03 -1.010e-02 4.538e-03
ITEM: TIMESTEP
0
ITEM: NUMBER OF ATOMS
8
ITEM: BOX BOUNDS xy xz yz pp pp pp
                     -5.00000000000000e-01 5.00000000000000e-01 0.00000000000000e+00
-5.00000000000000e-01	5.00000000000000e-01	0.00000000000000e+00
-5.00000000000000e-01	5.00000000000000e-01	0.00000000000000e+00
ITEM: ATOMS id type x y z DisplacementX DisplacementY DisplacementZ
9 1 -1.000e-01 -1.000e-01 0.000e+00 -9.674e-03 1.028e-02 4.610e-03
10 1 0.000e+00 -1.000e-01 0.000e+00 -5.025e-03 -4.249e-03 2.282e-02
11 1 -1.000e-01 0.000e+00 0.000e+00 -1.521e-02 5.984e-03 7.786e-03
12 1 0.000e+00 1.000e-01 0.000e+00 -6.270e-03 -1.097e-02 -5.874e-03
13 1 -1.000e-01 1.000e-01 0.000e+00 -1.446e-02 1.635e-02 -3.255e-03
14 1 0.000e+00 0.000e+00 0.000e+00 8.779e-02 -5.992e-03 6.487e-03
15 1 1.000e-01 -1.000e-01 0.000e+00 1.443e-02 5.477e-03 -5.298e-03
16 1 1.000e-01 1.000e-01 0.000e+00 -1.586e-03 5.969e-03 8.415e-03
