ITEM: TIMESTEP
0
ITEM: NUMBER OF ATOMS
8
ITEM: BOX BOUNDS xy xz yz pp pp pp
                     -5.00000000000000e-01 5.00000000000000e-01 0.00000000000000e+00
-5.00000000000000e-01	5.00000000000000e-01	0.00000000000000e+00
-5.00000000000000e-01	5.00000000000000e-01	0.00000000000000e+00
ITEM: ATOMS id type x y z DisplacementX DisplacementY DisplacementZ
1 1 0.000e+00 0.000e+00 0.000e+00 3.472e-03 -9.938e-02 9.784e-05
2 1 1.000e-01 1.000e-01 0.000e+00 1.178e-03 1.956e-03 7.659e-06
3 1 0.000e+00 1.000e-01 0.000e+00 2.156e-03 5.011e-03 2.228e-03
4 1 -1.000e-01 -1.000e-01 0.000e+00 1.627e-03 -9.815e-04 -4.460e-03
5 1 -1.000e-01 1.000e-01 0.000e+00 1.847e-03 -1.904e-03 -5.995e-03
6 1 1.000e-01 0.000e+00 0.000e+00 -3.110e-04 -5.981e-04 -7.218e-04
7 1 -1.000e-01 0.000e+00 0.000e+00 -1.290e-03 -1.116e-03 2.658e-04
8 1 1.000e-01 -1.000e-01 0.000e+00 9.000e-04 1.705e-03 7.393e-04
ITEM: TIMESTEP
0
ITEM: NUMBER OF ATOMS
8
ITEM: BOX BOUNDS xy xz yz pp pp pp
                     -5.00000000000000e-01 5.00000000000000e-01 0.00000000000000e+00
-5.00000000000000e-01	5.00000000000000e-01	0.00000000000000e+00
-5.00000000000000e-01	5.00000000000000e-01	0.00000000000000e+00
ITEM: ATOMS id type x y z DisplacementX DisplacementY DisplacementZ
9 1 1.000e-01 0.000e+00 0.000e+00 6.140e-04 1.095e-03 -1.347e-04
10 1 -1.000e-01 -1.000e-01 0.000e+00 -4.303e-05 -1.129e-03 -1.843e-03
11 1 -1.000e-01 0.000e+00 0.000e+00 2.600e-04 -3.651e-05 9.459e-04
12 1 0.000e+00 0.000e+00 0.000e+00 2.473e-03 1.002e-01 -7.874e-05
13 1 -1.000e-01 1.000e-01 0.000e+00 7.874e-04 4.531e-03 3.918e-03
14 1 1.000e-01 -1.000e-01 0.000e+00 -1.996e-04 9.587e-04 1.059e-03
15 1 0.000e+00 -1.000e-01 0.000e+00 1.513e-03 1.898e-03 -6.280e-04
16 1 1.000e-01 1.000e-01 0.000e+00 -2.957e-03 -3.564e-04 -3.163e-04
ITEM: TIMESTEP
0
ITEM: NUMBER OF ATOMS
8
ITEM: BOX BOUNDS xy xz yz pp pp pp
                     -5.00000000000000e-01 5.00000000000000e-01 0.00000000000000e+00
-5.00000000000000e-01	5.00000000000000e-01	0.00000000000000e+00
-5.00000000000000e-01	5.00000000000000e-01	0.00000000000000e+00
ITEM: ATOMS id type x y z DisplacementX DisplacementY DisplacementZ
17 1 -1.000e-01 0.000e+00 0.000e+00 -1.054e-03 1.221e-03 2.825e-03
18 1 -1.000e-01 1.000e-01 0.000e+00 -2.381e-03 -2.034e-03 9.379e-04
19 1 1.000e-01 1.000e-01 0.000e+00 -1.348e-03 -1.776e-03 -3.384e-04
20 1 0.000e+00 -1.000e-01 0.000e+00 5.439e-05 -1.372e-04 -4.402e-04
21 1 1.000e-01 -1.000e-01 0.000e+00 -1.999e-03 -1.413e-03 1.082e-03
22 1 0.000e+00 0.000e+00 0.000e+00 9.434e-02 7.654e-03 4.096e-03
23 1 -1.000e-01 -1.000e-01 0.000e+00 -2.393e-04 -7.138e-05 -1.764e-04
24 1 0.000e+00 1.000e-01 0.000e+00 -9.566e-04 3.252e-05 1.159e-03
ITEM: TIMESTEP
0
ITEM: NUMBER OF ATOMS
8
ITEM: BOX BOUNDS xy xz yz pp pp pp
                     -5.00000000000000e-01 5.00000000000000e-01 0.00000000000000e+00
-5.00000000000000e-01	5.00000000000000e-01	0.00000000000000e+00
-5.00000000000000e-01	5.00000000000000e-01	0.00000000000000e+00
ITEM: ATOMS id type x y z DisplacementX DisplacementY DisplacementZ
25 1 0.000e+00 -1.000e-01 0.000e+00 -1.354e-03 -1.568e-04 1.588e-03
26 1 1.000e-01 1.000e-01 0.000e+00 4.306e-06 2.691e-04 -1.548e-04
27 1 -1.000e-01 1.000e-01 0.000e+00 4.494e-03 -7.304e-03 3.915e-04
28 1 -1.000e-01 -1.000e-01 0.000e+00 1.345e-03 4.243e-03 2.619e-03
29 1 0.000e+00 1.000e-01 0.000e+00 -6.696e-04 5.920e-04 1.385e-03
30 1 1.000e-01 -1.000e-01 0.000e+00 1.312e-04 1.126e-03 7.156e-04
31 1 0.000e+00 0.000e+00 0.000e+00 -8.922e-02 6.314e-04 7.454e-04
32 1 1.000e-01 0.000e+00 0.000e+00 3.839e-04 -4.143e-04 -1.656e-03
ITEM: TIMESTEP
0
ITEM: NUMBER OF ATOMS
8
ITEM: BOX BOUNDS xy xz yz pp pp pp
                     -5.00000000000000e-01 5.00000000000000e-01 0.00000000000000e+00
-5.00000000000000e-01	5.00000000000000e-01	0.00000000000000e+00
-5.00000000000000e-01	5.00000000000000e-01	0.00000000000000e+00
ITEM: ATOMS id type x y z DisplacementX DisplacementY DisplacementZ
33 1 1.000e-01 0.000e+00 0.000e+00 -6.355e-04 -8.462e-04 -4.906e-04
34 1 0.000e+00 0.000e+00 0.000e+00 -1.531e-03 -9.730e-02 1.730e-03
35 1 0.000e+00 1.000e-01 0.000e+00 -6.204e-04 -1.020e-03 -7.354e-04
36 1 1.000e-01 1.000e-01 0.000e+00 3.885e-04 2.657e-03 2.219e-03
37 1 -1.000e-01 -1.000e-01 0.000e+00 1.796e-03 -3.797e-03 -3.606e-03
38 1 1.000e-01 -1.000e-01 0.000e+00 2.776e-03 -1.121e-03 -1.310e-03
39 1 -1.000e-01 1.000e-01 0.000e+00 -7.898e-04 -5.292e-04 1.691e-04
40 1 -1.000e-01 0.000e+00 0.000e+00 -2.267e-04 -9.221e-04 -1.273e-03
ITEM: TIMESTEP
0
ITEM: NUMBER OF ATOMS
8
ITEM: BOX BOUNDS xy xz yz pp pp pp
                     -5.00000000000000e-01 5.00000000000000e-01 0.00000000000000e+00
-5.00000000000000e-01	5.00000000000000e-01	0.00000000000000e+00
-5.00000000000000e-01	5.00000000000000e-01	0.00000000000000e+00
ITEM: ATOMS id type x y z DisplacementX DisplacementY DisplacementZ
41 1 1.000e-01 0.000e+00 0.000e+00 -1.240e-03 -5.992e-04 8.363e-04
42 1 1.000e-01 -1.000e-01 0.000e+00 2.152e-03 1.984e-03 -1.592e-03
43 1 0.000e+00 0.000e+00 0.000e+00 2.588e-03 9.926e-02 4.641e-03
44 1 -1.000e-01 0.000e+00 0.000e+00 -5.063e-04 -7.888e-04 -6.349e-04
45 1 -1.000e-01 1.000e-01 0.000e+00 -1.520e-04 1.170e-04 -8.476e-05
46 1 0.000e+00 -1.000e-01 0.000e+00 1.259e-03 -1.769e-03 -3.411e-03
47 1 -1.000e-01 -1.000e-01 0.000e+00 2.078e-03 2.879e-03 -3.360e-04
48 1 1.000e-01 1.000e-01 0.000e+00 5.169e-03 -8.627e-05 1.148e-03
ITEM: TIMESTEP
0
ITEM: NUMBER OF ATOMS
8
ITEM: BOX BOUNDS xy xz yz pp pp pp
                     -5.00000000000000e-01 5.00000000000000e-01 0.00000000000000e+00
-5.00000000000000e-01	5.00000000000000e-01	0.00000000000000e+00
-5.00000000000000e-01	5.00000000000000e-01	0.00000000000000e+00
ITEM: ATOMS id type x y z DisplacementX DisplacementY DisplacementZ
49 1 -1.000e-01 -1.000e-01 0.000e+00 1.312e-03 -2.604e-03 -4.754e-04
50 1 1.000e-01 1.000e-01 0.000e+00 -6.050e-03 3.895e-03 1.012e-03
51 1 -1.000e-01 1.000e-01 0.000e+00 1.561e-03 1.450e-03 -1.275e-03
52 1 1.000e-01 -1.000e-01 0.000e+00 -3.858e-03 -4.704e-03 4.250e-05
53 1 0.000e+00 -1.000e-01 0.000e+00 -2.590e-03 -1.921e-04 1.217e-03
54 1 0.000e+00 0.000e+00 0.000e+00 9.705e-02 2.333e-03 2.259e-03
55 1 -1.000e-01 0.000e+00 0.000e+00 -1.974e-04 1.058e-03 1.181e-03
56 1 0.000e+00 1.000e-01 0.000e+00 5.058e-04 8.469e-04 -2.663e-04
ITEM: TIMESTEP
0
ITEM: NUMBER OF ATOMS
8
ITEM: BOX BOUNDS xy xz yz pp pp pp
                     -5.00000000000000e-01 5.00000000000000e-01 0.00000000000000e+00
-5.00000000000000e-01	5.00000000000000e-01	0.00000000000000e+00
-5.00000000000000e-01	5.00000000000000e-01	0.00000000000000e+00
ITEM: ATOMS id type x y z DisplacementX DisplacementY DisplacementZ
57 1 0.000e+00 1.000e-01 0.000e+00 1.974e-05 -2.639e-05 -5.543e-04
58 1 0.000e+00 -1.000e-01 0.000e+00 -5.087e-05 -1.321e-04 -5.694e-04
59 1 1.000e-01 -1.000e-01 0.000e+00 4.776e-03 -1.167e-03 1.410e-04
60 1 1.000e-01 1.000e-01 0.000e+00 -1.307e-04 -8.201e-04 -1.000e-03
61 1 -1.000e-01 1.000e-01 0.000e+00 -2.403e-04 2.633e-04 2.179e-03
62 1 -1.000e-01 -1.000e-01 0.000e+00 7.213e-04 2.214e-03 1.100e-03
63 1 0.000e+00 0.000e+00 0.000e+00 -8.883e-02 1.830e-03 -4.405e-03
64 1 1.000e-01 0.000e+00 0.000e+00 1.315e-03 7.641e-04 -1.729e-03
ITEM: TIMESTEP
0
ITEM: NUMBER OF ATOMS
8
ITEM: BOX BOUNDS xy xz yz pp pp pp
                     -5.00000000000000e-01 5.00000000000000e-01 0.00000000000000e+00
-5.00000000000000e-01	5.00000000000000e-01	0.00000000000000e+00
-5.00000000000000e-01	5.00000000000000e-01	0.00000000000000e+00
ITEM: ATOMS id type x y z DisplacementX DisplacementY DisplacementZ
65 1 1.000e-01 -1.000e-01 0.000e+00 4.465e-04 1.024e-03 5.740e-05
66 1 -1.000e-01 0.000e+00 0.000e+00 -2.469e-04 -2.100e-03 5.152e-04
67 1 0.000e+00 0.000e+00 0.000e+00 -5.725e-03 9.872e-02 -1.271e-03
68 1 -1.000e-01 1.000e-01 0.000e+00 -3.770e-03 2.758e-03 9.327e-03
69 1 1.000e-01 0.000e+00 0.000e+00 -8.175e-05 -9.718e-05 -4.734e-04
70 1 0.000e+00 -1.000e-01 0.000e+00 -6.076e-04 -1.609e-03 -1.501e-03
71 1 1.000e-01 1.000e-01 0.000e+00 7.994e-04 9.809e-04 5.192e-03
72 1 -1.000e-01 -1.000e-01 0.000e+00 8.789e-04 2.440e-03 4.827e-03
ITEM: TIMESTEP
0
ITEM: NUMBER OF ATOMS
8
ITEM: BOX BOUNDS xy xz yz pp pp pp
                     -5.00000000000000e-01 5.00000000000000e-01 0.00000000000000e+00
-5.00000000000000e-01	5.00000000000000e-01	0.00000000000000e+00
-5.00000000000000e-01	5.00000000000000e-01	0.00000000000000e+00
ITEM: ATOMS id type x y z DisplacementX DisplacementY DisplacementZ
73 1 0.000e+00 -1.000e-01 0.000e+00 -2.313e-03 -8.079e-04 -2.784e-05
74 1 1.000e-01 -1.000e-01 0.000e+00 2.959e-04 2.193e-03 1.788e-03
75 1 0.000e+00 0.000e+00 0.000e+00 9.829e-02 -1.381e-03 -1.136e-03
76 1 -1.000e-01 -1.000e-01 0.000e+00 1.522e-03 1.570e-03 -1.058e-03
77 1 -1.000e-01 0.000e+00 0.000e+00 1.681e-04 -5.970e-04 -1.525e-03
78 1 -1.000e-01 1.000e-01 0.000e+00 4.948e-04 2.602e-05 -1.286e-03
79 1 0.000e+00 1.000e-01 0.000e+00 -1.345e-03 -1.399e-04 1.593e-03
80 1 1.000e-01 1.000e-01 0.000e+00 -2.890e-03 2.402e-03 -1.366e-04
ITEM: TIMESTEP
0
ITEM: NUMBER OF ATOMS
8
ITEM: BOX BOUNDS xy xz yz pp pp pp
                     -5.00000000000000e-01 5.00000000000000e-01 0.00000000000000e+00
-5.00000000000000e-01	5.00000000000000e-01	0.00000000000000e+00
-5.00000000000000e-01	5.00000000000000e-01	0.00000000000000e+00
ITEM: ATOMS id type x y z DisplacementX DisplacementY DisplacementZ
81 1 -1.000e-01 -1.000e-01 0.000e+00 9.330e-04 4.547e-03 3.694e-03
82 1 1.000e-01 0.000e+00 0.000e+00 4.055e-04 5.072e-04 -5.273e-04
83 1 1.000e-01 -1.000e-01 0.000e+00 -8.574e-04 -4.719e-04 7.558e-05
84 1 0.000e+00 -1.000e-01 0.000e+00 -3.567e-04 -2.897e-04 -2.553e-04
85 1 0.000e+00 1.000e-01 0.000e+00 -9.089e-04 -4.251e-04 5.006e-04
86 1 1.000e-01 1.000e-01 0.000e+00 -1.091e-03 -1.392e-03 -4.157e-04
87 1 0.000e+00 0.000e+00 0.000e+00 -8.038e-02 -4.740e-03 -2.042e-03
88 1 -1.000e-01 1.000e-01 0.000e+00 5.235e-04 -5.448e-04 -1.902e-03
ITEM: TIMESTEP
0
ITEM: NUMBER OF ATOMS
8
ITEM: BOX BOUNDS xy xz yz pp pp pp
                     -5.00000000000000e-01 5.00000000000000e-01 0.00000000000000e+00
-5.00000000000000e-01	5.00000000000000e-01	0.00000000000000e+00
-5.00000000000000e-01	5.00000000000000e-01	0.00000000000000e+00
ITEM: ATOMS id type x y z DisplacementX DisplacementY DisplacementZ
89 1 -1.000e-01 -1.000e-01 0.000e+00 3.034e-03 3.616e-03 -1.011e-03
90 1 0.000e+00 1.000e-01 0.000e+00 1.606e-03 -7.147e-04 -4.087e-03
91 1 1.000e-01 0.000e+00 0.000e+00 1.811e-03 -1.366e-04 -3.700e-03
92 1 -1.000e-01 1.000e-01 0.000e+00 -1.702e-03 -1.528e-03 4.365e-04
93 1 -1.000e-01 0.000e+00 0.000e+00 -1.190e-03 -7.237e-04 5.956e-04
94 1 1.000e-01 1.000e-01 0.000e+00 3.754e-04 2.029e-03 1.447e-03
95 1 1.000e-01 -1.000e-01 0.000e+00 1.055e-04 4.604e-03 6.190e-04
96 1 0.000e+00 0.000e+00 0.000e+00 4.508e-03 -1.110e-01 -2.376e-03
ITEM: TIMESTEP
0
ITEM: NUMBER OF ATOMS
8
ITEM: BOX BOUNDS xy xz yz pp pp pp
                     -5.00000000000000e-01 5.00000000000000e-01 0.00000000000000e+00
-5.00000000000000e-01	5.00000000000000e-01	0.00000000000000e+00
-5.00000000000000e-01	5.00000000000000e-01	0.00000000000000e+00
ITEM: ATOMS id type x y z DisplacementX DisplacementY DisplacementZ
97 1 1.000e-01 1.000e-01 0.000e+00 -5.047e-04 -2.112e-04 9.251e-05
98 1 0.000e+00 0.000e+00 0.000e+00 1.403e-03 -9.225e-02 -2.138e-03
99 1 -1.000e-01 1.000e-01 0.000e+00 1.494e-03 1.775e-03 -7.521e-04
100 1 1.000e-01 0.000e+00 0.000e+00 6.321e-04 6.454e-04 -7.329e-04
101 1 -1.000e-01 -1.000e-01 0.000e+00 -1.648e-03 -3.590e-03 -2.259e-03
102 1 0.000e+00 1.000e-01 0.000e+00 7.409e-04 2.016e-03 8.163e-04
103 1 1.000e-01 -1.000e-01 0.000e+00 -3.673e-04 -1.678e-03 -3.710e-03
104 1 -1.000e-01 0.000e+00 0.000e+00 -2.553e-05 -8.477e-04 -1.516e-03
ITEM: TIMESTEP
0
ITEM: NUMBER OF ATOMS
8
ITEM: BOX BOUNDS xy xz yz pp pp pp
                     -5.00000000000000e-01 5.00000000000000e-01 0.00000000000000e+00
-5.00000000000000e-01	5.00000000000000e-01	0.00000000000000e+00
-5.00000000000000e-01	5.00000000000000e-01	0.00000000000000e+00
ITEM: ATOMS id type x y z DisplacementX DisplacementY DisplacementZ
105 1 1.000e-01 1.000e-01 0.000e+00 -1.404e-03 -8.499e-04 1.802e-03
106 1 -1.000e-01 -1.000e-01 0.000e+00 1.341e-03 2.648e-03 6.080e-04
107 1 -1.000e-01 0.000e+00 0.000e+00 2.515e-03 2.394e-03 -1.683e-03
108 1 0.000e+00 0.000e+00 0.000e+00 9.780e-02 -7.603e-04 2.630e-03
109 1 -1.000e-01 1.000e-01 0.000e+00 -7.680e-05 1.390e-03 1.398e-03
110 1 1.000e-01 -1.000e-01 0.000e+00 -8.914e-04 -9.943e-04 -6.427e-04
111 1 0.000e+00 -1.000e-01 0.000e+00 -9.698e-04 -1.074e-03 6.533e-04
112 1 0.000e+00 1.000e-01 0.000e+00 1.291e-03 9.714e-04 -1.427e-03
ITEM: TIMESTEP
0
ITEM: NUMBER OF ATOMS
8
ITEM: BOX BOUNDS xy xz yz pp pp pp
                     -5.00000000000000e-01 5.00000000000000e-01 0.00000000000000e+00
-5.00000000000000e-01	5.00000000000000e-01	0.00000000000000e+00
-5.00000000000000e-01	5.00000000000000e-01	0.00000000000000e+00
ITEM: ATOMS id type x y z DisplacementX DisplacementY DisplacementZ
113 1 -1.000e-01 -1.000e-01 0.000e+00 7.674e-04 -1.773e-03 -3.606e-06
114 1 1.000e-01 -1.000e-01 0.000e+00 -1.150e-03 -6.179e-04 6.617e-04
115 1 -1.000e-01 1.000e-01 0.000e+00 -1.920e-03 3.140e-04 3.132e-03
116 1 0.000e+00 -1.000e-01 0.000e+00 -9.177e-04 -8.604e-04 -3.490e-05
117 1 1.000e-01 0.000e+00 0.000e+00 -5.175e-04 2.796e-04 7.345e-04
118 1 0.000e+00 0.000e+00 0.000e+00 -5.941e-04 9.791e-02 7.659e-05
119 1 -1.000e-01 0.000e+00 0.000e+00 7.271e-04 2.914e-04 3.749e-04
120 1 1.000e-01 1.000e-01 0.000e+00 4.591e-03 3.111e-03 -1.437e-03
ITEM: TIMESTEP
0
ITEM: NUMBER OF ATOMS
8
ITEM: BOX BOUNDS xy xz yz pp pp pp
                     -5.00000000000000e-01 5.00000000000000e-01 0.00000000000000e+00
-5.00000000000000e-01	5.00000000000000e-01	0.00000000000000e+00
-5.00000000000000e-01	5.00000000000000e-01	0.00000000000000e+00
ITEM: ATOMS id type x y z DisplacementX DisplacementY DisplacementZ
121 1 -1.000e-01 1.000e-01 0.000e+00 -2.846e-03 1.543e-03 -1.333e-03
122 1 1.000e-01 1.000e-01 0.000e+00 -2.463e-04 2.909e-04 2.933e-04
123 1 0.000e+00 1.000e-01 0.000e+00 -3.237e-04 -9.371e-05 -6.282e-05
124 1 1.000e-01 0.000e+00 0.000e+00 -8.053e-05 4.391e-04 2.024e-04
125 1 0.000e+00 -1.000e-01 0.000e+00 -1.289e-04 1.596e-03 1.747e-03
126 1 -1.000e-01 -1.000e-01 0.000e+00 4.406e-04 1.617e-03 8.168e-04
127 1 0.000e+00 0.000e+00 0.000e+00 -9.853e-02 -1.580e-03 -6.434e-03
128 1 1.000e-01 -1.000e-01 0.000e+00 1.247e-03 -1.433e-04 6.316e-04
ITEM: TIMESTEP
0
ITEM: NUMBER OF ATOMS
8
ITEM: BOX BOUNDS xy xz yz pp pp pp
                     -5.00000000000000e-01 5.00000000000000e-01 0.00000000000000e+00
-5.00000000000000e-01	5.00000000000000e-01	0.00000000000000e+00
-5.00000000000000e-01	5.00000000000000e-01	0.00000000000000e+00
ITEM: ATOMS id type x y z DisplacementX DisplacementY DisplacementZ
129 1 0.000e+00 0.000e+00 0.000e+00 -8.377e-02 -7.819e-03 3.904e-03
130 1 1.000e-01 0.000e+00 0.000e+00 -1.251e-03 -1.817e-03 -6.847e-04
131 1 1.000e-01 -1.000e-01 0.000e+00 1.150e-03 -6.616e-04 -1.340e-03
132 1 -1.000e-01 1.000e-01 0.000e+00 4.455e-03 1.905e-03 -2.036e-04
133 1 0.000e+00 1.000e-01 0.000e+00 1.575e-04 1.092e-03 6.284e-04
134 1 0.000e+00 -1.000e-01 0.000e+00 4.515e-04 8.649e-04 -1.524e-04
135 1 -1.000e-01 -1.000e-01 0.000e+00 2.863e-04 6.205e-04 -1.840e-04
136 1 1.000e-01 1.000e-01 0.000e+00 -2.254e-03 -3.255e-04 2.884e-03
ITEM: TIMESTEP
0
ITEM: NUMBER OF ATOMS
8
ITEM: BOX BOUNDS xy xz yz pp pp pp
                     -5.00000000000000e-01 5.00000000000000e-01 0.00000000000000e+00
-5.00000000000000e-01	5.00000000000000e-01	0.00000000000000e+00
-5.00000000000000e-01	5.00000000000000e-01	0.00000000000000e+00
ITEM: ATOMS id type x y z DisplacementX DisplacementY DisplacementZ
137 1 -1.000e-01 -1.000e-01 0.000e+00 2.480e-03 1.371e-03 -2.918e-03
138 1 0.000e+00 0.000e+00 0.000e+00 9.710e-02 -1.406e-03 5.210e-03
139 1 1.000e-01 1.000e-01 0.000e+00 -1.881e-03 1.874e-03 -2.331e-03
140 1 -1.000e-01 0.000e+00 0.000e+00 -1.510e-04 -7.075e-04 -1.129e-03
141 1 -1.000e-01 1.000e-01 0.000e+00 9.012e-04 -1.162e-03 -3.470e-03
142 1 0.000e+00 1.000e-01 0.000e+00 1.104e-03 1.188e-03 -8.395e-04
143 1 0.000e+00 -1.000e-01 0.000e+00 -1.395e-04 8.499e-04 6.758e-04
144 1 1.000e-01 -1.000e-01 0.000e+00 -3.353e-04 -6.766e-04 -7.803e-04
ITEM: TIMESTEP
0
ITEM: NUMBER OF ATOMS
8
ITEM: BOX BOUNDS xy xz yz pp pp pp
                     -5.00000000000000e-01 5.00000000000000e-01 0.00000000000000e+00
-5.00000000000000e-01	5.00000000000000e-01	0.00000000000000e+00
-5.00000000000000e-01	5.00000000000000e-01	0.00000000000000e+00
ITEM: ATOMS id type x y z DisplacementX DisplacementY DisplacementZ
145 1 1.000e-01 1.000e-01 0.000e+00 1.532e-03 1.039e-03 -1.747e-03
146 1 1.000e-01 -1.000e-01 0.000e+00 -2.757e-04 -2.789e-03 3.290e-03
147 1 -1.000e-01 -1.000e-01 0.000e+00 -7.945e-04 -3.143e-03 -3.127e-03
148 1 0.000e+00 0.000e+00 0.000e+00 -4.220e-03 -9.876e-02 -2.824e-03
149 1 -1.000e-01 0.000e+00 0.000e+00 -3.256e-05 4.918e-04 1.885e-04
150 1 1.000e-01 0.000e+00 0.000e+00 -9.713e-04 -6.074e-04 3.749e-04
151 1 0.000e+00 1.000e-01 0.000e+00 3.848e-04 -2.288e-03 -1.803e-03
152 1 -1.000e-01 1.000e-01 0.000e+00 -1.407e-04 1.074e-03 1.106e-03
ITEM: TIMESTEP
0
ITEM: NUMBER OF ATOMS
8
ITEM: BOX BOUNDS xy xz yz pp pp pp
                     -5.00000000000000e-01 5.00000000000000e-01 0.00000000000000e+00
-5.00000000000000e-01	5.00000000000000e-01	0.00000000000000e+00
-5.00000000000000e-01	5.00000000000000e-01	0.00000000000000e+00
ITEM: ATOMS id type x y z DisplacementX DisplacementY DisplacementZ
153 1 -1.000e-01 -1.000e-01 0.000e+00 1.759e-04 2.321e-04 -4.898e-04
154 1 1.000e-01 1.000e-01 0.000e+00 -6.767e-04 -1.137e-03 -1.126e-03
155 1 -1.000e-01 1.000e-01 0.000e+00 9.636e-04 3.876e-03 2.794e-03
156 1 0.000e+00 -1.000e-01 0.000e+00 4.431e-03 3.699e-03 -3.250e-03
157 1 1.000e-01 -1.000e-01 0.000e+00 -5.633e-05 -7.982e-04 -1.402e-03
158 1 -1.000e-01 0.000e+00 0.000e+00 4.389e-04 1.793e-04 -8.732e-06
159 1 1.000e-01 0.000e+00 0.000e+00 -1.162e-03 -4.233e-04 9.284e-04
160 1 0.000e+00 0.000e+00 0.000e+00 2.759e-04 9.590e-02 -2.787e-03
ITEM: TIMESTEP
0
ITEM: NUMBER OF ATOMS
8
ITEM: BOX BOUNDS xy xz yz pp pp pp
                     -5.00000000000000e-01 5.00000000000000e-01 0.00000000000000e+00
-5.00000000000000e-01	5.00000000000000e-01	0.00000000000000e+00
-5.00000000000000e-01	5.00000000000000e-01	0.00000000000000e+00
ITEM: ATOMS id type x y z DisplacementX DisplacementY DisplacementZ
161 1 1.000e-01 -1.000e-01 0.000e+00 1.355e-04 -3.974e-03 2.184e-04
162 1 1.000e-01 1.000e-01 0.000e+00 -3.607e-04 -4.336e-04 -4.303e-04
163 1 0.000e+00 0.000e+00 0.000e+00 -7.299e-02 -5.871e-03 1.347e-03
164 1 0.000e+00 -1.000e-01 0.000e+00 5.451e-04 -5.083e-04 -2.045e-03
165 1 0.000e+00 1.000e-01 0.000e+00 -3.140e-04 -8.466e-04 -1.031e-03
166 1 -1.000e-01 1.000e-01 0.000e+00 3.046e-04 -5.141e-03 1.749e-03
167 1 -1.000e-01 -1.000e-01 0.000e+00 3.682e-03 8.408e-03 3.959e-03
168 1 1.000e-01 0.000e+00 0.000e+00 1.858e-04 -1.115e-04 -9.406e-04
ITEM: TIMESTEP
0
ITEM: NUMBER OF ATOMS
8
ITEM: BOX BOUNDS xy xz yz pp pp pp
                     -5.00000000000000e-01 5.00000000000000e-01 0.00000000000000e+00
-5.00000000000000e-01	5.00000000000000e-01	0.00000000000000e+00
-5.00000000000000e-01	5.00000000000000e-01	0.00000000000000e+00
ITEM: ATOMS id type x y z DisplacementX DisplacementY DisplacementZ
169 1 0.000e+00 1.000e-01 0.000e+00 -7.730e-04 -1.636e-03 1.297e-03
170 1 1.000e-01 -1.000e-01 0.000e+00 -6.219e-03 -2.645e-03 -4.519e-03
171 1 1.000e-01 0.000e+00 0.000e+00 5.444e-04 6.411e-04 -5.912e-04
172 1 -1.000e-01 1.000e-01 0.000e+00 -1.526e-03 -7.365e-04 1.143e-03
173 1 0.000e+00 0.000e+00 0.000e+00 -2.567e-03 -9.504e-02 -8.453e-04
174 1 -1.000e-01 -1.000e-01 0.000e+00 -1.226e-04 -1.867e-03 -2.642e-03
175 1 -1.000e-01 0.000e+00 0.000e+00 -1.626e-04 1.048e-03 1.110e-03
176 1 1.000e-01 1.000e-01 0.000e+00 2.128e-04 2.025e-03 1.715e-03
ITEM: TIMESTEP
0
ITEM: NUMBER OF ATOMS
8
ITEM: BOX BOUNDS xy xz yz pp pp pp
                     -5.00000000000000e-01 5.00000000000000e-01 0.00000000000000e+00
-5.00000000000000e-01	5.00000000000000e-01	0.00000000000000e+00
-5.00000000000000e-01	5.00000000000000e-01	0.00000000000000e+00
ITEM: ATOMS id type x y z DisplacementX DisplacementY DisplacementZ
177 1 -1.000e-01 1.000e-01 0.000e+00 6.970e-04 -5.688e-04 -2.377e-03
178 1 1.000e-01 1.000e-01 0.000e+00 -1.676e-03 1.082e-03 -1.861e-03
179 1 0.000e+00 0.000e+00 0.000e+00 9.672e-02 8.534e-04 6.071e-04
180 1 -1.000e-01 -1.000e-01 0.000e+00 -1.547e-04 -1.349e-03 1.733e-03
181 1 1.000e-01 -1.000e-01 0.000e+00 -1.074e-03 2.663e-03 4.681e-03
182 1 0.000e+00 1.000e-01 0.000e+00 -1.126e-03 -1.634e-03 -6.636e-04
183 1 -1.000e-01 0.000e+00 0.000e+00 -5.724e-04 -2.033e-03 -2.097e-03
184 1 0.000e+00 -1.000e-01 0.000e+00 -5.553e-04 -1.489e-03 6.968e-04
ITEM: TIMESTEP
0
ITEM: NUMBER OF ATOMS
8
ITEM: BOX BOUNDS xy xz yz pp pp pp
                     -5.00000000000000e-01 5.00000000000000e-01 0.00000000000000e+00
-5.00000000000000e-01	5.00000000000000e-01	0.00000000000000e+00
-5.00000000000000e-01	5.00000000000000e-01	0.00000000000000e+00
ITEM: ATOMS id type x y z DisplacementX DisplacementY DisplacementZ
185 1 -1.000e-01 -1.000e-01 0.000e+00 6.092e-04 -1.373e-03 1.065e-03
186 1 1.000e-01 1.000e-01 0.000e+00 2.191e-03 -1.153e-03 1.073e-03
187 1 1.000e-01 0.000e+00 0.000e+00 3.299e-04 8.053e-05 -9.397e-04
188 1 -1.000e-01 1.000e-01 0.000e+00 -7.579e-04 -4.481e-03 -4.880e-03
189 1 0.000e+00 0.000e+00 0.000e+00 4.809e-05 9.628e-02 -1.037e-03
190 1 1.000e-01 -1.000e-01 0.000e+00 -4.551e-04 -1.365e-03 -1.450e-03
191 1 0.000e+00 -1.000e-01 0.000e+00 -3.250e-05 8.432e-04 6.326e-04
192 1 -1.000e-01 0.000e+00 0.000e+00 2.182e-03 1.258e-03 -4.821e-04
ITEM: TIMESTEP
0
ITEM: NUMBER OF ATOMS
8
ITEM: BOX BOUNDS xy xz yz pp pp pp
                     -5.00000000000000e-01 5.00000000000000e-01 0.00000000000000e+00
-5.00000000000000e-01	5.00000000000000e-01	0.00000000000000e+00
-5.00000000000000e-01	5.00000000000000e-01	0.00000000000000e+00
ITEM: ATOMS id type x y z DisplacementX DisplacementY DisplacementZ
193 1 -1.000e-01 1.000e-01 0.000e+00 8.734e-04 6.038e-04 -1.191e-03
194 1 0.000e+00 -1.000e-01 0.000e+00 1.566e-03 3.973e-04 -4.941e-04
195 1 -1.000e-01 0.000e+00 0.000e+00 9.083e-04 1.505e-03 -1.095e-04
196 1 0.000e+00 0.000e+00 0.000e+00 9.483e-02 2.899e-03 1.564e-03
197 1 1.000e-01 1.000e-01 0.000e+00 -3.081e-03 -1.810e-02 7.308e-05
198 1 -1.000e-01 -1.000e-01 0.000e+00 -1.609e-04 2.296e-04 7.254e-05
199 1 1.000e-01 -1.000e-01 0.000e+00 -1.099e-03 1.445e-03 3.183e-03
200 1 0.000e+00 1.000e-01 0.000e+00 -2.266e-03 -2.099e-03 6.633e-04
ITEM: TIMESTEP
0
ITEM: NUMBER OF ATOMS
8
ITEM: BOX BOUNDS xy xz yz pp pp pp
                     -5.00000000000000e-01 5.00000000000000e-01 0.00000000000000e+00
-5.00000000000000e-01	5.00000000000000e-01	0.00000000000000e+00
-5.00000000000000e-01	5.00000000000000e-01	0.00000000000000e+00
ITEM: ATOMS id type x y z DisplacementX DisplacementY DisplacementZ
201 1 1.000e-01 0.000e+00 0.000e+00 -1.046e-03 -4.136e-04 7.448e-04
202 1 0.000e+00 1.000e-01 0.000e+00 2.537e-03 4.680e-03 1.169e-03
203 1 0.000e+00 -1.000e-01 0.000e+00 1.233e-04 1.647e-04 -4.867e-04
204 1 0.000e+00 0.000e+00 0.000e+00 -9.981e-02 -1.690e-03 -1.712e-03
205 1 -1.000e-01 1.000e-01 0.000e+00 4.125e-03 -2.193e-03 1.192e-03
206 1 1.000e-01 1.000e-01 0.000e+00 3.164e-04 8.986e-04 1.169e-04
207 1 1.000e-01 -1.000e-01 0.000e+00 -1.954e-04 1.024e-03 1.134e-03
208 1 -1.000e-01 -1.000e-01 0.000e+00 5.925e-04 1.511e-03 -1.647e-03
ITEM: TIMESTEP
0
ITEM: NUMBER OF ATOMS
8
ITEM: BOX BOUNDS xy xz yz pp pp pp
                     -5.00000000000000e-01 5.00000000000000e-01 0.00000000000000e+00
-5.00000000000000e-01	5.00000000000000e-01	0.00000000000000e+00
-5.00000000000000e-01	5.00000000000000e-01	0.00000000000000e+00
ITEM: ATOMS id type x y z DisplacementX DisplacementY DisplacementZ
209 1 1.000e-01 1.000e-01 0.000e+00 -1.148e-03 -1.392e-03 -3.209e-04
210 1 1.000e-01 0.000e+00 0.000e+00 -1.095e-03 -7.544e-04 3.960e-04
211 1 -1.000e-01 -1.000e-01 0.000e+00 5.635e-04 3.731e-03 3.282e-03
212 1 1.000e-01 -1.000e-01 0.000e+00 4.796e-04 -4.426e-03 3.183e-04
213 1 -1.000e-01 1.000e-01 0.000e+00 1.635e-03 3.337e-03 9.861e-04
214 1 0.000e+00 0.000e+00 0.000e+00 3.271e-03 -8.137e-02 2.378e-03
215 1 0.000e+00 1.000e-01 0.000e+00 1.380e-04 8.274e-04 3.265e-04
216 1 -1.000e-01 0.000e+00 0.000e+00 -2.422e-04 1.810e-03 2.207e-03
ITEM: TIMESTEP
0
ITEM: NUMBER OF ATOMS
8
ITEM: BOX BOUNDS xy xz yz pp pp pp
                     -5.00000000000000e-01 5.00000000000000e-01 0.00000000000000e+00
-5.00000000000000e-01	5.00000000000000e-01	0.00000000000000e+00
-5.00000000000000e-01	5.00000000000000e-01	0.00000000000000e+00
ITEM: ATOMS id type x y z DisplacementX DisplacementY DisplacementZ
217 1 -1.000e-01 0.000e+00 0.000e+00 9.088e-04 -3.035e-04 1.560e-03
218 1 1.000e-01 -1.000e-01 0.000e+00 -1.455e-03 1.395e-03 3.719e-03
219 1 0.000e+00 -1.000e-01 0.000e+00 2.181e-03 2.675e-03 -7.668e-04
220 1 1.000e-01 0.000e+00 0.000e+00 -8.137e-04 -5.926e-04 1.291e-04
221 1 -1.000e-01 1.000e-01 0.000e+00 -3.639e-03 -2.415e-03 2.568e-03
222 1 1.000e-01 1.000e-01 0.000e+00 2.629e-03 2.163e-03 -1.459e-03
223 1 0.000e+00 0.000e+00 0.000e+00 -8.537e-04 1.026e-01 -2.245e-03
224 1 -1.000e-01 -1.000e-01 0.000e+00 2.543e-03 2.976e-03 -9.936e-04
ITEM: TIMESTEP
0
ITEM: NUMBER OF ATOMS
8
ITEM: BOX BOUNDS xy xz yz pp pp pp
                     -5.00000000000000e-01 5.00000000000000e-01 0.00000000000000e+00
-5.00000000000000e-01	5.00000000000000e-01	0.00000000000000e+00
-5.00000000000000e-01	5.00000000000000e-01	0.00000000000000e+00
ITEM: ATOMS id type x y z DisplacementX DisplacementY DisplacementZ
225 1 0.000e+00 0.000e+00 0.000e+00 -8.172e-02 7.241e-03 5.303e-03
226 1 1.000e-01 -1.000e-01 0.000e+00 4.763e-04 7.614e-04 -1.127e-03
227 1 1.000e-01 0.000e+00 0.000e+00 3.092e-04 -7.617e-04 -1.970e-03
228 1 0.000e+00 1.000e-01 0.000e+00 -7.278e-04 2.118e-04 1.002e-03
229 1 -1.000e-01 -1.000e-01 0.000e+00 -2.177e-03 -2.068e-03 5.524e-04
230 1 1.000e-01 1.000e-01 0.000e+00 -1.015e-03 -2.928e-04 8.467e-04
231 1 -1.000e-01 1.000e-01 0.000e+00 -2.598e-04 8.416e-05 -4.554e-03
232 1 0.000e+00 -1.000e-01 0.000e+00 2.197e-04 1.123e-03 5.633e-04
ITEM: TIMESTEP
0
ITEM: NUMBER OF ATOMS
8
ITEM: BOX BOUNDS xy xz yz pp pp pp
                     -5.00000000000000e-01 5.00000000000000e-01 0.00000000000000e+00
-5.00000000000000e-01	5.00000000000000e-01	0.00000000000000e+00
-5.00000000000000e-01	5.00000000000000e-01	0.00000000000000e+00
ITEM: ATOMS id type x y z DisplacementX DisplacementY DisplacementZ
233 1 -1.000e-01 -1.000e-01 0.000e+00 3.358e-04 1.156e-03 4.092e-04
234 1 1.000e-01 1.000e-01 0.000e+00 -1.580e-02 6.108e-03 2.634e-03
235 1 -1.000e-01 0.000e+00 0.000e+00 -2.288e-04 5.755e-04 3.260e-04
236 1 0.000e+00 0.000e+00 0.000e+00 -3.553e-03 1.011e-01 -8.219e-04
237 1 1.000e-01 0.000e+00 0.000e+00 4.122e-04 1.536e-03 7.625e-04
238 1 -1.000e-01 1.000e-01 0.000e+00 9.691e-04 1.194e-03 -6.056e-04
239 1 1.000e-01 -1.000e-01 0.000e+00 -3.635e-04 7.284e-04 1.043e-03
240 1 0.000e+00 -1.000e-01 0.000e+00 -9.091e-04 9.099e-04 3.818e-04
ITEM: TIMESTEP
0
ITEM: NUMBER OF ATOMS
8
ITEM: BOX BOUNDS xy xz yz pp pp pp
                     -5.00000000000000e-01 5.00000000000000e-01 0.00000000000000e+00
-5.00000000000000e-01	5.00000000000000e-01	0.00000000000000e+00
-5.00000000000000e-01	5.00000000000000e-01	0.00000000000000e+00
ITEM: ATOMS id type x y z DisplacementX DisplacementY DisplacementZ
241 1 1.000e-01 -1.000e-01 0.000e+00 -2.501e-03 -3.081e-03 -1.412e-03
242 1 -1.000e-01 0.000e+00 0.000e+00 -8.131e-04 6.770e-04 1.733e-03
243 1 1.000e-01 0.000e+00 0.000e+00 2.062e-04 -2.733e-03 -1.659e-03
244 1 0.000e+00 1.000e-01 0.000e+00 -1.287e-03 2.881e-04 2.036e-03
245 1 -1.000e-01 1.000e-01 0.000e+00 1.970e-03 8.155e-04 -2.765e-03
246 1 1.000e-01 1.000e-01 0.000e+00 -1.034e-03 -2.244e-04 9.649e-04
247 1 0.000e+00 0.000e+00 0.000e+00 1.253e-03 -9.763e-02 -4.586e-03
248 1 -1.000e-01 -1.000e-01 0.000e+00 2.452e-03 1.767e-03 -2.371e-03
ITEM: TIMESTEP
0
ITEM: NUMBER OF ATOMS
8
ITEM: BOX BOUNDS xy xz yz pp pp pp
                     -5.00000000000000e-01 5.00000000000000e-01 0.00000000000000e+00
-5.00000000000000e-01	5.00000000000000e-01	0.00000000000000e+00
-5.00000000000000e-01	5.00000000000000e-01	0.00000000000000e+00
ITEM: ATOMS id type x y z DisplacementX DisplacementY DisplacementZ
249 1 -1.000e-01 0.000e+00 0.000e+00 4.063e-04 1.210e-04 -1.017e-03
250 1 0.000e+00 1.000e-01 0.000e+00 -3.405e-05 1.056e-03 9.039e-04
251 1 0.000e+00 -1.000e-01 0.000e+00 4.666e-04 -9.732e-04 2.140e-04
252 1 1.000e-01 -1.000e-01 0.000e+00 1.777e-03 -3.741e-04 -3.943e-03
253 1 -1.000e-01 -1.000e-01 0.000e+00 1.040e-03 6.428e-04 -1.420e-03
254 1 1.000e-01 1.000e-01 0.000e+00 -3.499e-03 2.198e-03 -2.078e-03
255 1 0.000e+00 0.000e+00 0.000e+00 9.494e-02 4.173e-04 3.469e-03
256 1 -1.000e-01 1.000e-01 0.000e+00 -3.419e-03 -5.242e-03 -1.375e-03
ITEM: TIMESTEP
0
ITEM: NUMBER OF ATOMS
8
ITEM: BOX BOUNDS xy xz yz pp pp pp
                     -5.00000000000000e-01 5.00000000000000e-01 0.00000000000000e+00
-5.00000000000000e-01	5.00000000000000e-01	0.00000000000000e+00
-5.00000000000000e-01	5.00000000000000e-01	0.00000000000000e+00
ITEM: ATOMS id type x y z DisplacementX DisplacementY DisplacementZ
257 1 0.000e+00 -1.000e-01 0.000e+00 -9.328e-05 2.603e-04 1.705e-03
258 1 0.000e+00 0.000e+00 0.000e+00 9.789e-02 -4.407e-03 -1.421e-03
259 1 0.000e+00 1.000e-01 0.000e+00 2.516e-04 6.662e-04 -6.804e-05
260 1 -1.000e-01 0.000e+00 0.000e+00 7.414e-04 -1.736e-03 1.472e-05
261 1 -1.000e-01 1.000e-01 0.000e+00 -1.310e-04 4.020e-04 2.403e-04
262 1 -1.000e-01 -1.000e-01 0.000e+00 -2.745e-04 1.709e-03 2.133e-03
263 1 1.000e-01 1.000e-01 0.000e+00 1.025e-03 1.124e-03 4.003e-03
264 1 1.000e-01 -1.000e-01 0.000e+00 -1.051e-03 -3.526e-05 1.232e-03
ITEM: TIMESTEP
0
ITEM: NUMBER OF ATOMS
8
ITEM: BOX BOUNDS xy xz yz pp pp pp
                     -5.00000000000000e-01 5.00000000000000e-01 0.00000000000000e+00
-5.00000000000000e-01	5.00000000000000e-01	0.00000000000000e+00
-5.00000000000000e-01	5.00000000000000e-01	0.00000000000000e+00