ITEM: TIMESTEP
0
ITEM: NUMBER OF ATOMS
24
ITEM: BOX BOUNDS xy xz yz pp pp pp
                     -5.00000000000000e-01 5.00000000000000e-01 0.00000000000000e+00
-5.00000000000000e-01	5.00000000000000e-01	0.00000000000000e+00
-5.00000000000000e-01	5.00000000000000e-01	0.00000000000000e+00
ITEM: ATOMS id type x y DisplacementX DisplacementY
1 1 8.000e-01 2.000e-01 4.470e-08 5.215e-08
2 1 2.000e-01 4.000e-01 9.686e-07 -6.258e-07
3 1 2.000e-01 2.000e-01 7.500e-02 1.118e-07
4 1 8.000e-01 4.000e-01 1.863e-07 -4.470e-08
5 1 0.000e+00 4.000e-01 1.103e-06 -5.364e-07
6 1 4.000e-01 8.000e-01 -1.267e-06 1.006e-06
7 1 6.000e-01 2.000e-01 -2.500e-02 -4.694e-07
8 1 0.000e+00 2.000e-01 4.470e-07 2.161e-07
9 1 6.000e-01 4.000e-01 7.451e-09 -1.863e-07
10 1 0.000e+00 8.000e-01 -4.321e-07 9.686e-08
11 1 4.000e-01 4.000e-01 -1.483e-06 -5.000e-02
12 1 2.000e-01 8.000e-01 -1.118e-07 1.565e-07
13 1 8.000e-01 0.000e+00 7.078e-07 -3.949e-07
14 1 0.000e+00 6.000e-01 2.086e-07 -1.267e-07
15 1 6.000e-01 0.000e+00 3.725e-07 -9.686e-08
16 1 6.000e-01 8.000e-01 -3.949e-07 1.714e-07
17 1 2.000e-01 6.000e-01 -5.364e-07 2.161e-07
18 1 8.000e-01 8.000e-01 8.941e-08 -2.980e-08
19 1 6.000e-01 6.000e-01 1.565e-07 -2.980e-08
20 1 8.000e-01 6.000e-01 5.811e-07 -3.725e-07
21 1 0.000e+00 0.000e+00 1.118e-07 -8.196e-08
22 1 4.000e-01 6.000e-01 3.427e-07 5.215e-08
23 1 2.000e-01 0.000e+00 -5.141e-07 3.278e-07
24 1 4.000e-01 0.000e+00 -6.035e-07 5.000e-02
ITEM: TIMESTEP
0
ITEM: NUMBER OF ATOMS
24
ITEM: BOX BOUNDS xy xz yz pp pp pp
                     -5.00000000000000e-01 5.00000000000000e-01 0.00000000000000e+00
-5.00000000000000e-01	5.00000000000000e-01	0.00000000000000e+00
-5.00000000000000e-01	5.00000000000000e-01	0.00000000000000e+00
ITEM: ATOMS id type x y DisplacementX DisplacementY
1 1 8.000e-01 2.000e-01 3.166e-08 -3.166e-08
2 1 2.000e-01 4.000e-01 -6.948e-07 1.024e-07
3 1 2.000e-01 2.000e-01 5.000e-02 -9.127e-08
4 1 8.000e-01 4.000e-01 -3.148e-07 6.147e-08
5 1 0.000e+00 4.000e-01 -8.196e-07 3.874e-07
6 1 4.000e-01 8.000e-01 1.090e-06 -5.458e-07
7 1 6.000e-01 2.000e-01 -5.000e-02 3.949e-07
8 1 0.000e+00 2.000e-01 -1.173e-07 8.009e-08
9 1 6.000e-01 4.000e-01 -6.147e-08 3.818e-08
10 1 0.000e+00 8.000e-01 2.664e-07 -2.664e-07
11 1 4.000e-01 4.000e-01 1.214e-06 -2.500e-02
12 1 2.000e-01 8.000e-01 6.333e-08 -1.509e-07
13 1 8.000e-01 0.000e+00 -6.873e-07 3.371e-07
14 1 0.000e+00 6.000e-01 -1.695e-07 2.664e-07
15 1 6.000e-01 0.000e+00 -2.794e-07 2.142e-07
16 1 6.000e-01 8.000e-01 2.794e-08 2.794e-08
17 1 2.000e-01 6.000e-01 3.446e-07 -3.725e-08
18 1 8.000e-01 8.000e-01 -2.105e-07 2.012e-07
19 1 6.000e-01 6.000e-01 -9.220e-08 1.770e-08
20 1 8.000e-01 6.000e-01 -4.750e-07 3.297e-07
21 1 0.000e+00 0.000e+00 -8.009e-08 2.049e-07
22 1 4.000e-01 6.000e-01 -7.823e-08 3.278e-07
23 1 2.000e-01 0.000e+00 1.956e-07 2.105e-07
24 1 4.000e-01 0.000e+00 4.759e-07 7.500e-02
ITEM: TIMESTEP
0
ITEM: NUMBER OF ATOMS
24
ITEM: BOX BOUNDS xy xz yz pp pp pp
                     -5.00000000000000e-01 5.00000000000000e-01 0.00000000000000e+00
-5.00000000000000e-01	5.00000000000000e-01	0.00000000000000e+00
-5.00000000000000e-01	5.00000000000000e-01	0.00000000000000e+00
ITEM: ATOMS id type x y DisplacementX DisplacementY
1 1 8.000e-01 2.000e-01 1.688e-07 -5.495e-08
2 1 2.000e-01 4.000e-01 -3.173e-07 7.050e-07
3 1 2.000e-01 2.000e-01 5.000e-02 -3.725e-09
4 1 8.000e-01 4.000e-01 -5.472e-08 3.632e-08
5 1 0.000e+00 4.000e-01 -5.651e-07 5.448e-07
6 1 4.000e-01 8.000e-01 3.122e-07 -1.044e-06
7 1 6.000e-01 2.000e-01 -2.500e-02 4.517e-07
8 1 0.000e+00 2.000e-01 -2.540e-07 -8.009e-08
9 1 6.000e-01 4.000e-01 3.488e-07 3.520e-07
10 1 0.000e+00 8.000e-01 2.936e-07 -9.499e-08
11 1 4.000e-01 4.000e-01 5.842e-07 -7.500e-02
12 1 2.000e-01 8.000e-01 3.048e-07 -9.779e-08
13 1 8.000e-01 0.000e+00 -2.820e-07 2.980e-07
14 1 0.000e+00 6.000e-01 3.283e-08 2.515e-08
15 1 6.000e-01 0.000e+00 1.793e-08 2.189e-07
16 1 6.000e-01 8.000e-01 -1.932e-08 -2.878e-07
17 1 2.000e-01 6.000e-01 2.910e-08 -3.120e-07
18 1 8.000e-01 8.000e-01 1.930e-07 2.142e-08
19 1 6.000e-01 6.000e-01 -1.292e-07 4.936e-08
20 1 8.000e-01 6.000e-01 -7.707e-08 3.623e-07
21 1 0.000e+00 0.000e+00 1.595e-07 2.133e-07
22 1 4.000e-01 6.000e-01 -2.354e-07 -5.588e-08
23 1 2.000e-01 0.000e+00 -9.849e-08 -5.541e-07
24 1 4.000e-01 0.000e+00 1.222e-07 5.000e-02
ITEM: TIMESTEP
0
ITEM: NUMBER OF ATOMS
24
ITEM: BOX BOUNDS xy xz yz pp pp pp
                     -5.00000000000000e-01 5.00000000000000e-01 0.00000000000000e+00
-5.00000000000000e-01	5.00000000000000e-01	0.00000000000000e+00
-5.00000000000000e-01	5.00000000000000e-01	0.00000000000000e+00
ITEM: ATOMS id type x y DisplacementX DisplacementY
1 1 8.000e-01 2.000e-01 -1.304e-07 7.451e-08
2 1 2.000e-01 4.000e-01 2.272e-07 -2.086e-07
3 1 2.000e-01 2.000e-01 2.500e-02 3.725e-08
4 1 8.000e-01 4.000e-01 2.161e-07 -7.451e-08
5 1 0.000e+00 4.000e-01 1.341e-07 -2.235e-07
6 1 4.000e-01 8.000e-01 -2.682e-07 2.906e-07
7 1 6.000e-01 2.000e-01 -1.000e-01 1.118e-07
8 1 0.000e+00 2.000e-01 -3.465e-07 -4.694e-07
9 1 6.000e-01 4.000e-01 1.490e-08 2.608e-07
10 1 0.000e+00 8.000e-01 -4.098e-08 1.341e-07
11 1 4.000e-01 4.000e-01 -3.763e-07 -5.000e-02
12 1 2.000e-01 8.000e-01 -4.843e-08 2.980e-08
13 1 8.000e-01 0.000e+00 1.304e-07 -2.086e-07
14 1 0.000e+00 6.000e-01 4.098e-08 1.267e-07
15 1 6.000e-01 0.000e+00 -2.384e-07 -1.341e-07
16 1 6.000e-01 8.000e-01 6.333e-08 -1.937e-07
17 1 2.000e-01 6.000e-01 -1.304e-07 1.341e-07
18 1 8.000e-01 8.000e-01 2.608e-08 1.490e-08
19 1 6.000e-01 6.000e-01 9.313e-08 -2.086e-07
20 1 8.000e-01 6.000e-01 1.527e-07 4.470e-08
21 1 0.000e+00 0.000e+00 -6.333e-08 1.490e-08
22 1 4.000e-01 6.000e-01 -1.341e-07 1.341e-07
23 1 2.000e-01 0.000e+00 -9.686e-08 -7.451e-09
24 1 4.000e-01 0.000e+00 8.568e-08 2.500e-02
ITEM: TIMESTEP
0
ITEM: NUMBER OF ATOMS
24
ITEM: BOX BOUNDS xy xz yz pp pp pp
                     -5.00000000000000e-01 5.00000000000000e-01 0.00000000000000e+00
-5.00000000000000e-01	5.00000000000000e-01	0.00000000000000e+00
-5.00000000000000e-01	5.00000000000000e-01	0.00000000000000e+00
ITEM: ATOMS id type x y DisplacementX DisplacementY
25 1 0.000e+00 4.000e-01 1.118e-07 -8.196e-08
26 1 8.000e-01 2.000e-01 8.941e-08 -2.980e-08
27 1 6.000e-01 0.000e+00 1.565e-07 -2.980e-08
28 1 6.000e-01 4.000e-01 3.725e-07 -9.686e-08
29 1 2.000e-01 0.000e+00 -5.364e-07 2.161e-07
30 1 2.000e-01 2.000e-01 -1.118e-07 1.565e-07
31 1 8.000e-01 4.000e-01 7.078e-07 -3.949e-07
32 1 0.000e+00 0.000e+00 2.086e-07 -1.267e-07
33 1 4.000e-01 4.000e-01 -6.035e-07 5.000e-02
34 1 2.000e-01 6.000e-01 7.500e-02 1.118e-07
35 1 8.000e-01 0.000e+00 5.811e-07 -3.725e-07
36 1 4.000e-01 2.000e-01 -1.267e-06 1.006e-06
37 1 2.000e-01 8.000e-01 9.686e-07 -6.258e-07
38 1 0.000e+00 8.000e-01 1.103e-06 -5.364e-07
39 1 6.000e-01 8.000e-01 7.451e-09 -1.863e-07
40 1 0.000e+00 2.000e-01 -4.321e-07 9.686e-08
41 1 6.000e-01 2.000e-01 -3.949e-07 1.714e-07
42 1 4.000e-01 8.000e-01 -1.483e-06 -5.000e-02
43 1 0.000e+00 6.000e-01 4.470e-07 2.161e-07
44 1 8.000e-01 8.000e-01 1.863e-07 -4.470e-08
45 1 4.000e-01 0.000e+00 3.427e-07 5.215e-08
46 1 8.000e-01 6.000e-01 4.470e-08 5.215e-08
47 1 6.000e-01 6.000e-01 -2.500e-02 -4.694e-07
48 1 2.000e-01 4.000e-01 -5.141e-07 3.278e-07
ITEM: TIMESTEP
0
ITEM: NUMBER OF ATOMS
24
ITEM: BOX BOUNDS xy xz yz pp pp pp
                     -5.00000000000000e-01 5.00000000000000e-01 0.00000000000000e+00
-5.00000000000000e-01	5.00000000000000e-01	0.00000000000000e+00
-5.00000000000000e-01	5.00000000000000e-01	0.00000000000000e+00
ITEM: ATOMS id type x y DisplacementX DisplacementY
25 1 0.000e+00 4.000e-01 -8.009e-08 2.049e-07
26 1 8.000e-01 2.000e-01 -2.105e-07 2.012e-07
27 1 6.000e-01 0.000e+00 -9.220e-08 1.770e-08
28 1 6.000e-01 4.000e-01 -2.794e-07 2.142e-07
29 1 2.000e-01 0.000e+00 3.446e-07 -3.725e-08
30 1 2.000e-01 2.000e-01 6.333e-08 -1.509e-07
31 1 8.000e-01 4.000e-01 -6.873e-07 3.371e-07
32 1 0.000e+00 0.000e+00 -1.695e-07 2.664e-07
33 1 4.000e-01 4.000e-01 4.759e-07 7.500e-02
34 1 2.000e-01 6.000e-01 5.000e-02 -9.127e-08
35 1 8.000e-01 0.000e+00 -4.750e-07 3.297e-07
36 1 4.000e-01 2.000e-01 1.090e-06 -5.458e-07
37 1 2.000e-01 8.000e-01 -6.948e-07 1.024e-07
38 1 0.000e+00 8.000e-01 -8.196e-07 3.874e-07
39 1 6.000e-01 8.000e-01 -6.147e-08 3.818e-08
40 1 0.000e+00 2.000e-01 2.664e-07 -2.664e-07
41 1 6.000e-01 2.000e-01 2.794e-08 2.794e-08
42 1 4.000e-01 8.000e-01 1.214e-06 -2.500e-02
43 1 0.000e+00 6.000e-01 -1.173e-07 8.009e-08
44 1 8.000e-01 8.000e-01 -3.148e-07 6.147e-08
45 1 4.000e-01 0.000e+00 -7.823e-08 3.278e-07
46 1 8.000e-01 6.000e-01 3.166e-08 -3.166e-08
47 1 6.000e-01 6.000e-01 -5.000e-02 3.949e-07
48 1 2.000e-01 4.000e-01 1.956e-07 2.105e-07
ITEM: TIMESTEP
0
ITEM: NUMBER OF ATOMS
24
ITEM: BOX BOUNDS xy xz yz pp pp pp
                     -5.00000000000000e-01 5.00000000000000e-01 0.00000000000000e+00
-5.00000000000000e-01	5.00000000000000e-01	0.00000000000000e+00
-5.00000000000000e-01	5.00000000000000e-01	0.00000000000000e+00
ITEM: ATOMS id type x y DisplacementX DisplacementY
25 1 0.000e+00 4.000e-01 1.595e-07 2.133e-07
26 1 8.000e-01 2.000e-01 1.930e-07 2.142e-08
27 1 6.000e-01 0.000e+00 -1.292e-07 4.936e-08
28 1 6.000e-01 4.000e-01 1.793e-08 2.189e-07
29 1 2.000e-01 0.000e+00 2.910e-08 -3.120e-07
30 1 2.000e-01 2.000e-01 3.048e-07 -9.779e-08
31 1 8.000e-01 4.000e-01 -2.820e-07 2.980e-07
32 1 0.000e+00 0.000e+00 3.283e-08 2.515e-08
33 1 4.000e-01 4.000e-01 1.222e-07 5.000e-02
34 1 2.000e-01 6.000e-01 5.000e-02 -3.725e-09
35 1 8.000e-01 0.000e+00 -7.707e-08 3.623e-07
36 1 4.000e-01 2.000e-01 3.122e-07 -1.044e-06
37 1 2.000e-01 8.000e-01 -3.173e-07 7.050e-07
38 1 0.000e+00 8.000e-01 -5.651e-07 5.448e-07
39 1 6.000e-01 8.000e-01 3.488e-07 3.520e-07
40 1 0.000e+00 2.000e-01 2.936e-07 -9.499e-08
41 1 6.000e-01 2.000e-01 -1.932e-08 -2.878e-07
42 1 4.000e-01 8.000e-01 5.842e-07 -7.500e-02
43 1 0.000e+00 6.000e-01 -2.540e-07 -8.009e-08
44 1 8.000e-01 8.000e-01 -5.472e-08 3.632e-08
45 1 4.000e-01 0.000e+00 -2.354e-07 -5.588e-08
46 1 8.000e-01 6.000e-01 1.688e-07 -5.495e-08
47 1 6.000e-01 6.000e-01 -2.500e-02 4.517e-07
48 1 2.000e-01 4.000e-01 -9.849e-08 -5.541e-07
ITEM: TIMESTEP
0
ITEM: NUMBER OF ATOMS
24
ITEM: BOX BOUNDS xy xz yz pp pp pp
                     -5.00000000000000e-01 5.00000000000000e-01 0.00000000000000e+00
-5.00000000000000e-01	5.00000000000000e-01	0.00000000000000e+00
-5.00000000000000e-01	5.00000000000000e-01	0.00000000000000e+00
ITEM: ATOMS id type x y DisplacementX DisplacementY
25 1 0.000e+00 4.000e-01 -6.333e-08 1.490e-08
26 1 8.000e-01 2.000e-01 2.608e-08 1.490e-08
27 1 6.000e-01 0.000e+00 9.313e-08 -2.086e-07
28 1 6.000e-01 4.000e-01 -2.384e-07 -1.341e-07
29 1 2.000e-01 0.000e+00 -1.304e-07 1.341e-07
30 1 2.000e-01 2.000e-01 -4.843e-08 2.980e-08
31 1 8.000e-01 4.000e-01 1.304e-07 -2.086e-07
32 1 0.000e+00 0.000e+00 4.098e-08 1.267e-07
33 1 4.000e-01 4.000e-01 8.568e-08 2.500e-02
34 1 2.000e-01 6.000e-01 2.500e-02 3.725e-08
35 1 8.000e-01 0.000e+00 1.527e-07 4.470e-08
36 1 4.000e-01 2.000e-01 -2.682e-07 2.906e-07
37 1 2.000e-01 8.000e-01 2.272e-07 -2.086e-07
38 1 0.000e+00 8.000e-01 1.341e-07 -2.235e-07
39 1 6.000e-01 8.000e-01 1.490e-08 2.608e-07
40 1 0.000e+00 2.000e-01 -4.098e-08 1.341e-07
41 1 6.000e-01 2.000e-01 6.333e-08 -1.937e-07
42 1 4.000e-01 8.000e-01 -3.763e-07 -5.000e-02
43 1 0.000e+00 6.000e-01 -3.465e-07 -4.694e-07
44 1 8.000e-01 8.000e-01 2.161e-07 -7.451e-08
45 1 4.000e-01 0.000e+00 -1.341e-07 1.341e-07
46 1 8.000e-01 6.000e-01 -1.304e-07 7.451e-08
47 1 6.000e-01 6.000e-01 -1.000e-01 1.118e-07
48 1 2.000e-01 4.000e-01 -9.686e-08 -7.451e-09
ITEM: TIMESTEP
0
ITEM: NUMBER OF ATOMS
24
ITEM: BOX BOUNDS xy xz yz pp pp pp
                     -5.00000000000000e-01 5.00000000000000e-01 0.00000000000000e+00
-5.00000000000000e-01	5.00000000000000e-01	0.00000000000000e+00
-5.00000000000000e-01	5.00000000000000e-01	0.00000000000000e+00
ITEM: ATOMS id type x y DisplacementX DisplacementY
49 1 0.000e+00 8.000e-01 8.941e-08 -2.980e-08
50 1 6.000e-01 4.000e-01 -1.483e-06 -5.000e-02
51 1 6.000e-01 8.000e-01 -1.267e-06 1.006e-06
52 1 8.000e-01 2.000e-01 -2.500e-02 -4.694e-07
53 1 4.000e-01 6.000e-01 -5.364e-07 2.161e-07
54 1 0.000e+00 2.000e-01 4.470e-08 5.215e-08
55 1 6.000e-01 6.000e-01 3.427e-07 5.215e-08
56 1 4.000e-01 8.000e-01 -1.118e-07 1.565e-07
57 1 8.000e-01 0.000e+00 3.725e-07 -9.686e-08
58 1 8.000e-01 6.000e-01 1.565e-07 -2.980e-08
59 1 0.000e+00 0.000e+00 7.078e-07 -3.949e-07
60 1 0.000e+00 6.000e-01 5.811e-07 -3.725e-07
61 1 8.000e-01 4.000e-01 7.451e-09 -1.863e-07
62 1 6.000e-01 0.000e+00 -6.035e-07 5.000e-02
63 1 2.000e-01 8.000e-01 -4.321e-07 9.686e-08
64 1 2.000e-01 6.000e-01 2.086e-07 -1.267e-07
65 1 2.000e-01 2.000e-01 4.470e-07 2.161e-07
66 1 4.000e-01 0.000e+00 -5.141e-07 3.278e-07
67 1 0.000e+00 4.000e-01 1.863e-07 -4.470e-08
68 1 2.000e-01 0.000e+00 1.118e-07 -8.196e-08
69 1 8.000e-01 8.000e-01 -3.949e-07 1.714e-07
70 1 4.000e-01 4.000e-01 9.686e-07 -6.258e-07
71 1 4.000e-01 2.000e-01 7.500e-02 1.118e-07
72 1 2.000e-01 4.000e-01 1.103e-06 -5.364e-07
ITEM: TIMESTEP
0
ITEM: NUMBER OF ATOMS
24
ITEM: BOX BOUNDS xy xz yz pp pp pp
                     -5.00000000000000e-01 5.00000000000000e-01 0.00000000000000e+00
-5.00000000000000e-01	5.00000000000000e-01	0.00000000000000e+00
-5.00000000000000e-01	5.00000000000000e-01	0.00000000000000e+00
ITEM: ATOMS id type x y DisplacementX DisplacementY
49 1 0.000e+00 8.000e-01 -2.105e-07 2.012e-07
50 1 6.000e-01 4.000e-01 1.214e-06 -2.500e-02
51 1 6.000e-01 8.000e-01 1.090e-06 -5.458e-07
52 1 8.000e-01 2.000e-01 -5.000e-02 3.949e-07
53 1 4.000e-01 6.000e-01 3.446e-07 -3.725e-08
54 1 0.000e+00 2.000e-01 3.166e-08 -3.166e-08
55 1 6.000e-01 6.000e-01 -7.823e-08 3.278e-07
56 1 4.000e-01 8.000e-01 6.333e-08 -1.509e-07
57 1 8.000e-01 0.000e+00 -2.794e-07 2.142e-07
58 1 8.000e-01 6.000e-01 -9.220e-08 1.770e-08
59 1 0.000e+00 0.000e+00 -6.873e-07 3.371e-07
60 1 0.000e+00 6.000e-01 -4.750e-07 3.297e-07
61 1 8.000e-01 4.000e-01 -6.147e-08 3.818e-08
62 1 6.000e-01 0.000e+00 4.759e-07 7.500e-02
63 1 2.000e-01 8.000e-01 2.664e-07 -2.664e-07
64 1 2.000e-01 6.000e-01 -1.695e-07 2.664e-07
65 1 2.000e-01 2.000e-01 -1.173e-07 8.009e-08
66 1 4.000e-01 0.000e+00 1.956e-07 2.105e-07
67 1 0.000e+00 4.000e-01 -3.148e-07 6.147e-08
68 1 2.000e-01 0.000e+00 -8.009e-08 2.049e-07
69 1 8.000e-01 8.000e-01 2.794e-08 2.794e-08
70 1 4.000e-01 4.000e-01 -6.948e-07 1.024e-07
71 1 4.000e-01 2.000e-01 5.000e-02 -9.127e-08
72 1 2.000e-01 4.000e-01 -8.196e-07 3.874e-07
ITEM: TIMESTEP
0
ITEM: NUMBER OF ATOMS
24
ITEM: BOX BOUNDS xy xz yz pp pp pp
                     -5.00000000000000e-01 5.00000000000000e-01 0.00000000000000e+00
-5.00000000000000e-01	5.00000000000000e-01	0.00000000000000e+00
-5.00000000000000e-01	5.00000000000000e-01	0.00000000000000e+00
ITEM: ATOMS id type x y DisplacementX DisplacementY
49 1 0.000e+00 8.000e-01 1.930e-07 2.142e-08
50 1 6.000e-01 4.000e-01 5.842e-07 -7.500e-02
51 1 6.000e-01 8.000e-01 3.122e-07 -1.044e-06
52 1 8.000e-01 2.000e-01 -2.500e-02 4.517e-07
53 1 4.000e-01 6.000e-01 2.910e-08 -3.120e-07
54 1 0.000e+00 2.000e-01 1.688e-07 -5.495e-08
55 1 6.000e-01 6.000e-01 -2.354e-07 -5.588e-08
56 1 4.000e-01 8.000e-01 3.048e-07 -9.779e-08
57 1 8.000e-01 0.000e+00 1.793e-08 2.189e-07
58 1 8.000e-01 6.000e-01 -1.292e-07 4.936e-08
59 1 0.000e+00 0.000e+00 -2.820e-07 2.980e-07
60 1 0.000e+00 6.000e-01 -7.707e-08 3.623e-07
61 1 8.000e-01 4.000e-01 3.488e-07 3.520e-07
62 1 6.000e-01 0.000e+00 1.222e-07 5.000e-02
63 1 2.000e-01 8.000e-01 2.936e-07 -9.499e-08
64 1 2.000e-01 6.000e-01 3.283e-08 2.515e-08
65 1 2.000e-01 2.000e-01 -2.540e-07 -8.009e-08
66 1 4.000e-01 0.000e+00 -9.849e-08 -5.541e-07
67 1 0.000e+00 4.000e-01 -5.472e-08 3.632e-08
68 1 2.000e-01 0.000e+00 1.595e-07 2.133e-07
69 1 8.000e-01 8.000e-01 -1.932e-08 -2.878e-07
70 1 4.000e-01 4.000e-01 -3.173e-07 7.050e-07
71 1 4.000e-01 2.000e-01 5.000e-02 -3.725e-09
72 1 2.000e-01 4.000e-01 -5.651e-07 5.448e-07
ITEM: TIMESTEP
0
ITEM: NUMBER OF ATOMS
24
ITEM: BOX BOUNDS xy xz yz pp pp pp
                     -5.00000000000000e-01 5.00000000000000e-01 0.00000000000000e+00
-5.00000000000000e-01	5.00000000000000e-01	0.00000000000000e+00
-5.00000000000000e-01	5.00000000000000e-01	0.00000000000000e+00
ITEM: ATOMS id type x y DisplacementX DisplacementY
49 1 0.000e+00 8.000e-01 2.608e-08 1.490e-08
50 1 6.000e-01 4.000e-01 -3.763e-07 -5.000e-02
51 1 6.000e-01 8.000e-01 -2.682e-07 2.906e-07
52 1 8.000e-01 2.000e-01 -1.000e-01 1.118e-07
53 1 4.000e-01 6.000e-01 -1.304e-07 1.341e-07
54 1 0.000e+00 2.000e-01 -1.304e-07 7.451e-08
55 1 6.000e-01 6.000e-01 -1.341e-07 1.341e-07
56 1 4.000e-01 8.000e-01 -4.843e-08 2.980e-08
57 1 8.000e-01 0.000e+00 -2.384e-07 -1.341e-07
58 1 8.000e-01 6.000e-01 9.313e-08 -2.086e-07
59 1 0.000e+00 0.000e+00 1.304e-07 -2.086e-07
60 1 0.000e+00 6.000e-01 1.527e-07 4.470e-08
61 1 8.000e-01 4.000e-01 1.490e-08 2.608e-07
62 1 6.000e-01 0.000e+00 8.568e-08 2.500e-02
63 1 2.000e-01 8.000e-01 -4.098e-08 1.341e-07
64 1 2.000e-01 6.000e-01 4.098e-08 1.267e-07
65 1 2.000e-01 2.000e-01 -3.465e-07 -4.694e-07
66 1 4.000e-01 0.000e+00 -9.686e-08 -7.451e-09
67 1 0.000e+00 4.000e-01 2.161e-07 -7.451e-08
68 1 2.000e-01 0.000e+00 -6.333e-08 1.490e-08
69 1 8.000e-01 8.000e-01 6.333e-08 -1.937e-07
70 1 4.000e-01 4.000e-01 2.272e-07 -2.086e-07
71 1 4.000e-01 2.000e-01 2.500e-02 3.725e-08
72 1 2.000e-01 4.000e-01 1.341e-07 -2.235e-07
ITEM: TIMESTEP
0
ITEM: NUMBER OF ATOMS
24
ITEM: BOX BOUNDS xy xz yz pp pp pp
                     -5.00000000000000e-01 5.00000000000000e-01 0.00000000000000e+00
-5.00000000000000e-01	5.00000000000000e-01	0.00000000000000e+00
-5.00000000000000e-01	5.00000000000000e-01	0.00000000000000e+00
ITEM: ATOMS id type x y DisplacementX DisplacementY
73 1 4.000e-01 0.000e+00 -3.949e-07 1.714e-07
74 1 6.000e-01 0.000e+00 8.941e-08 -2.980e-08
75 1 6.000e-01 2.000e-01 7.078e-07 -3.949e-07
76 1 0.000e+00 6.000e-01 9.686e-07 -6.258e-07
77 1 4.000e-01 4.000e-01 -2.500e-02 -4.694e-07
78 1 0.000e+00 0.000e+00 -1.118e-07 1.565e-07
79 1 4.000e-01 8.000e-01 1.565e-07 -2.980e-08
80 1 4.000e-01 6.000e-01 7.451e-09 -1.863e-07
81 1 2.000e-01 0.000e+00 -1.267e-06 1.006e-06
82 1 2.000e-01 2.000e-01 -6.035e-07 5.000e-02
83 1 4.000e-01 2.000e-01 3.725e-07 -9.686e-08
84 1 8.000e-01 4.000e-01 4.470e-07 2.161e-07
85 1 0.000e+00 4.000e-01 7.500e-02 1.118e-07
86 1 0.000e+00 2.000e-01 -5.141e-07 3.278e-07
87 1 6.000e-01 8.000e-01 5.811e-07 -3.725e-07
88 1 6.000e-01 6.000e-01 1.863e-07 -4.470e-08
89 1 0.000e+00 8.000e-01 -5.364e-07 2.161e-07
90 1 8.000e-01 2.000e-01 1.118e-07 -8.196e-08
91 1 8.000e-01 0.000e+00 -4.321e-07 9.686e-08
92 1 2.000e-01 8.000e-01 3.427e-07 5.215e-08
93 1 8.000e-01 6.000e-01 1.103e-06 -5.364e-07
94 1 6.000e-01 4.000e-01 4.470e-08 5.215e-08
95 1 8.000e-01 8.000e-01 2.086e-07 -1.267e-07
96 1 2.000e-01 6.000e-01 -1.483e-06 -5.000e-02
ITEM: TIMESTEP
0
ITEM: NUMBER OF ATOMS
24
ITEM: BOX BOUNDS xy xz yz pp pp pp
                     -5.00000000000000e-01 5.00000000000000e-01 0.00000000000000e+00
-5.00000000000000e-01	5.00000000000000e-01	0.00000000000000e+00
-5.00000000000000e-01	5.00000000000000e-01	0.00000000000000e+00
ITEM: ATOMS id type x y DisplacementX DisplacementY
73 1 4.000e-01 0.000e+00 2.794e-08 2.794e-08
74 1 6.000e-01 0.000e+00 -2.105e-07 2.012e-07
75 1 6.000e-01 2.000e-01 -6.873e-07 3.371e-07
76 1 0.000e+00 6.000e-01 -6.948e-07 1.024e-07
77 1 4.000e-01 4.000e-01 -5.000e-02 3.949e-07
78 1 0.000e+00 0.000e+00 6.333e-08 -1.509e-07
79 1 4.000e-01 8.000e-01 -9.220e-08 1.770e-08
80 1 4.000e-01 6.000e-01 -6.147e-08 3.818e-08
81 1 2.000e-01 0.000e+00 1.090e-06 -5.458e-07
82 1 2.000e-01 2.000e-01 4.759e-07 7.500e-02
83 1 4.000e-01 2.000e-01 -2.794e-07 2.142e-07
84 1 8.000e-01 4.000e-01 -1.173e-07 8.009e-08
85 1 0.000e+00 4.000e-01 5.000e-02 -9.127e-08
86 1 0.000e+00 2.000e-01 1.956e-07 2.105e-07
87 1 6.000e-01 8.000e-01 -4.750e-07 3.297e-07
88 1 6.000e-01 6.000e-01 -3.148e-07 6.147e-08
89 1 0.000e+00 8.000e-01 3.446e-07 -3.725e-08
90 1 8.000e-01 2.000e-01 -8.009e-08 2.049e-07
91 1 8.000e-01 0.000e+00 2.664e-07 -2.664e-07
92 1 2.000e-01 8.000e-01 -7.823e-08 3.278e-07
93 1 8.000e-01 6.000e-01 -8.196e-07 3.874e-07
94 1 6.000e-01 4.000e-01 3.166e-08 -3.166e-08
95 1 8.000e-01 8.000e-01 -1.695e-07 2.664e-07
96 1 2.000e-01 6.000e-01 1.214e-06 -2.500e-02
ITEM: TIMESTEP
0
ITEM: NUMBER OF ATOMS
24
ITEM: BOX BOUNDS xy xz yz pp pp pp
                     -5.00000000000000e-01 5.00000000000000e-01 0.00000000000000e+00
-5.00000000000000e-01	5.00000000000000e-01	0.00000000000000e+00
-5.00000000000000e-01	5.00000000000000e-01	0.00000000000000e+00
ITEM: ATOMS id type x y DisplacementX DisplacementY
73 1 4.000e-01 0.000e+00 -1.932e-08 -2.878e-07
74 1 6.000e-01 0.000e+00 1.930e-07 2.142e-08
75 1 6.000e-01 2.000e-01 -2.820e-07 2.980e-07
76 1 0.000e+00 6.000e-01 -3.173e-07 7.050e-07
77 1 4.000e-01 4.000e-01 -2.500e-02 4.517e-07
78 1 0.000e+00 0.000e+00 3.048e-07 -9.779e-08
79 1 4.000e-01 8.000e-01 -1.292e-07 4.936e-08
80 1 4.000e-01 6.000e-01 3.488e-07 3.520e-07
81 1 2.000e-01 0.000e+00 3.122e-07 -1.044e-06
82 1 2.000e-01 2.000e-01 1.222e-07 5.000e-02
83 1 4.000e-01 2.000e-01 1.793e-08 2.189e-07
84 1 8.000e-01 4.000e-01 -2.540e-07 -8.009e-08
85 1 0.000e+00 4.000e-01 5.000e-02 -3.725e-09
86 1 0.000e+00 2.000e-01 -9.849e-08 -5.541e-07
87 1 6.000e-01 8.000e-01 -7.707e-08 3.623e-07
88 1 6.000e-01 6.000e-01 -5.472e-08 3.632e-08
89 1 0.000e+00 8.000e-01 2.910e-08 -3.120e-07
90 1 8.000e-01 2.000e-01 1.595e-07 2.133e-07
91 1 8.000e-01 0.000e+00 2.936e-07 -9.499e-08
92 1 2.000e-01 8.000e-01 -2.354e-07 -5.588e-08
93 1 8.000e-01 6.000e-01 -5.651e-07 5.448e-07
94 1 6.000e-01 4.000e-01 1.688e-07 -5.495e-08
95 1 8.000e-01 8.000e-01 3.283e-08 2.515e-08
96 1 2.000e-01 6.000e-01 5.842e-07 -7.500e-02
ITEM: TIMESTEP
0
ITEM: NUMBER OF ATOMS
24
ITEM: BOX BOUNDS xy xz yz pp pp pp
                     -5.00000000000000e-01 5.00000000000000e-01 0.00000000000000e+00
-5.00000000000000e-01	5.00000000000000e-01	0.00000000000000e+00
-5.00000000000000e-01	5.00000000000000e-01	0.00000000000000e+00
ITEM: ATOMS id type x y DisplacementX DisplacementY
73 1 4.000e-01 0.000e+00 6.333e-08 -1.937e-07
74 1 6.000e-01 0.000e+00 2.608e-08 1.490e-08
75 1 6.000e-01 2.000e-01 1.304e-07 -2.086e-07
76 1 0.000e+00 6.000e-01 2.272e-07 -2.086e-07
77 1 4.000e-01 4.000e-01 -1.000e-01 1.118e-07
78 1 0.000e+00 0.000e+00 -4.843e-08 2.980e-08
79 1 4.000e-01 8.000e-01 9.313e-08 -2.086e-07
80 1 4.000e-01 6.000e-01 1.490e-08 2.608e-07
81 1 2.000e-01 0.000e+00 -2.682e-07 2.906e-07
82 1 2.000e-01 2.000e-01 8.568e-08 2.500e-02
83 1 4.000e-01 2.000e-01 -2.384e-07 -1.341e-07
84 1 8.000e-01 4.000e-01 -3.465e-07 -4.694e-07
85 1 0.000e+00 4.000e-01 2.500e-02 3.725e-08
86 1 0.000e+00 2.000e-01 -9.686e-08 -7.451e-09
87 1 6.000e-01 8.000e-01 1.527e-07 4.470e-08
88 1 6.000e-01 6.000e-01 2.161e-07 -7.451e-08
89 1 0.000e+00 8.000e-01 -1.304e-07 1.341e-07
90 1 8.000e-01 2.000e-01 -6.333e-08 1.490e-08
91 1 8.000e-01 0.000e+00 -4.098e-08 1.341e-07
92 1 2.000e-01 8.000e-01 -1.341e-07 1.341e-07
93 1 8.000e-01 6.000e-01 1.341e-07 -2.235e-07
94 1 6.000e-01 4.000e-01 -1.304e-07 7.451e-08
95 1 8.000e-01 8.000e-01 4.098e-08 1.267e-07
96 1 2.000e-01 6.000e-01 -3.763e-07 -5.000e-02
ITEM: TIMESTEP
0
ITEM: NUMBER OF ATOMS
24
ITEM: BOX BOUNDS xy xz yz pp pp pp
                     -5.00000000000000e-01 5.00000000000000e-01 0.00000000000000e+00
-5.00000000000000e-01	5.00000000000000e-01	0.00000000000000e+00
-5.00000000000000e-01	5.00000000000000e-01	0.00000000000000e+00
ITEM: ATOMS id type x y DisplacementX DisplacementY
97 1 4.000e-01 2.000e-01 7.500e-02 1.118e-07
98 1 8.000e-01 4.000e-01 7.451e-09 -1.863e-07
99 1 0.000e+00 4.000e-01 1.863e-07 -4.470e-08
100 1 2.000e-01 0.000e+00 1.118e-07 -8.196e-08
101 1 2.000e-01 2.000e-01 4.470e-07 2.161e-07
102 1 4.000e-01 0.000e+00 -5.141e-07 3.278e-07
103 1 6.000e-01 0.000e+00 -6.035e-07 5.000e-02
104 1 6.000e-01 6.000e-01 3.427e-07 5.215e-08
105 1 8.000e-01 0.000e+00 3.725e-07 -9.686e-08
106 1 8.000e-01 8.000e-01 -3.949e-07 1.714e-07
107 1 4.000e-01 6.000e-01 -5.364e-07 2.161e-07
108 1 4.000e-01 4.000e-01 9.686e-07 -6.258e-07
109 1 2.000e-01 8.000e-01 -4.321e-07 9.686e-08
110 1 0.000e+00 2.000e-01 4.470e-08 5.215e-08
111 1 0.000e+00 0.000e+00 7.078e-07 -3.949e-07
112 1 6.000e-01 4.000e-01 -1.483e-06 -5.000e-02
113 1 0.000e+00 8.000e-01 8.941e-08 -2.980e-08
114 1 8.000e-01 6.000e-01 1.565e-07 -2.980e-08
115 1 0.000e+00 6.000e-01 5.811e-07 -3.725e-07
116 1 6.000e-01 8.000e-01 -1.267e-06 1.006e-06
117 1 8.000e-01 2.000e-01 -2.500e-02 -4.694e-07
118 1 2.000e-01 6.000e-01 2.086e-07 -1.267e-07
119 1 2.000e-01 4.000e-01 1.103e-06 -5.364e-07
120 1 4.000e-01 8.000e-01 -1.118e-07 1.565e-07
ITEM: TIMESTEP
0
ITEM: NUMBER OF ATOMS
24
ITEM: BOX BOUNDS xy xz yz pp pp pp
                     -5.00000000000000e-01 5.00000000000000e-01 0.00000000000000e+00
-5.00000000000000e-01	5.00000000000000e-01	0.00000000000000e+00
-5.00000000000000e-01	5.00000000000000e-01	0.00000000000000e+00
ITEM: ATOMS id type x y DisplacementX DisplacementY
97 1 4.000e-01 2.000e-01 5.000e-02 -9.127e-08
98 1 8.000e-01 4.000e-01 -6.147e-08 3.818e-08
99 1 0.000e+00 4.000e-01 -3.148e-07 6.147e-08
100 1 2.000e-01 0.000e+00 -8.009e-08 2.049e-07
101 1 2.000e-01 2.000e-01 -1.173e-07 8.009e-08
102 1 4.000e-01 0.000e+00 1.956e-07 2.105e-07
103 1 6.000e-01 0.000e+00 4.759e-07 7.500e-02
104 1 6.000e-01 6.000e-01 -7.823e-08 3.278e-07
105 1 8.000e-01 0.000e+00 -2.794e-07 2.142e-07
106 1 8.000e-01 8.000e-01 2.794e-08 2.794e-08
107 1 4.000e-01 6.000e-01 3.446e-07 -3.725e-08
108 1 4.000e-01 4.000e-01 -6.948e-07 1.024e-07
109 1 2.000e-01 8.000e-01 2.664e-07 -2.664e-07
110 1 0.000e+00 2.000e-01 3.166e-08 -3.166e-08
111 1 0.000e+00 0.000e+00 -6.873e-07 3.371e-07
112 1 6.000e-01 4.000e-01 1.214e-06 -2.500e-02
113 1 0.000e+00 8.000e-01 -2.105e-07 2.012e-07
114 1 8.000e-01 6.000e-01 -9.220e-08 1.770e-08
115 1 0.000e+00 6.000e-01 -4.750e-07 3.297e-07
116 1 6.000e-01 8.000e-01 1.090e-06 -5.458e-07
117 1 8.000e-01 2.000e-01 -5.000e-02 3.949e-07
118 1 2.000e-01 6.000e-01 -1.695e-07 2.664e-07
119 1 2.000e-01 4.000e-01 -8.196e-07 3.874e-07
120 1 4.000e-01 8.000e-01 6.333e-08 -1.509e-07
ITEM: TIMESTEP
0
ITEM: NUMBER OF ATOMS
24
ITEM: BOX BOUNDS xy xz yz pp pp pp
                     -5.00000000000000e-01 5.00000000000000e-01 0.00000000000000e+00
-5.00000000000000e-01	5.00000000000000e-01	0.00000000000000e+00
-5.00000000000000e-01	5.00000000000000e-01	0.00000000000000e+00
ITEM: ATOMS id type x y DisplacementX DisplacementY
97 1 4.000e-01 2.000e-01 5.000e-02 -3.725e-09
98 1 8.000e-01 4.000e-01 3.488e-07 3.520e-07
99 1 0.000e+00 4.000e-01 -5.472e-08 3.632e-08
100 1 2.000e-01 0.000e+00 1.595e-07 2.133e-07
101 1 2.000e-01 2.000e-01 -2.540e-07 -8.009e-08
102 1 4.000e-01 0.000e+00 -9.849e-08 -5.541e-07
103 1 6.000e-01 0.000e+00 1.222e-07 5.000e-02
104 1 6.000e-01 6.000e-01 -2.354e-07 -5.588e-08
105 1 8.000e-01 0.000e+00 1.793e-08 2.189e-07
106 1 8.000e-01 8.000e-01 -1.932e-08 -2.878e-07
107 1 4.000e-01 6.000e-01 2.910e-08 -3.120e-07
108 1 4.000e-01 4.000e-01 -3.173e-07 7.050e-07
109 1 2.000e-01 8.000e-01 2.936e-07 -9.499e-08
110 1 0.000e+00 2.000e-01 1.688e-07 -5.495e-08
111 1 0.000e+00 0.000e+00 -2.820e-07 2.980e-07
112 1 6.000e-01 4.000e-01 5.842e-07 -7.500e-02
113 1 0.000e+00 8.000e-01 1.930e-07 2.142e-08
114 1 8.000e-01 6.000e-01 -1.292e-07 4.936e-08
115 1 0.000e+00 6.000e-01 -7.707e-08 3.623e-07
116 1 6.000e-01 8.000e-01 3.122e-07 -1.044e-06
117 1 8.000e-01 2.000e-01 -2.500e-02 4.517e-07
118 1 2.000e-01 6.000e-01 3.283e-08 2.515e-08
119 1 2.000e-01 4.000e-01 -5.651e-07 5.448e-07
120 1 4.000e-01 8.000e-01 3.048e-07 -9.779e-08
ITEM: TIMESTEP
0
ITEM: NUMBER OF ATOMS
24
ITEM: BOX BOUNDS xy xz yz pp pp pp
                     -5.00000000000000e-01 5.00000000000000e-01 0.00000000000000e+00
-5.00000000000000e-01	5.00000000000000e-01	0.00000000000000e+00
-5.00000000000000e-01	5.00000000000000e-01	0.00000000000000e+00
ITEM: ATOMS id type x y DisplacementX DisplacementY
97 1 4.000e-01 2.000e-01 2.500e-02 3.725e-08
98 1 8.000e-01 4.000e-01 1.490e-08 2.608e-07
99 1 0.000e+00 4.000e-01 2.161e-07 -7.451e-08
100 1 2.000e-01 0.000e+00 -6.333e-08 1.490e-08
101 1 2.000e-01 2.000e-01 -3.465e-07 -4.694e-07
102 1 4.000e-01 0.000e+00 -9.686e-08 -7.451e-09
103 1 6.000e-01 0.000e+00 8.568e-08 2.500e-02
104 1 6.000e-01 6.000e-01 -1.341e-07 1.341e-07
105 1 8.000e-01 0.000e+00 -2.384e-07 -1.341e-07
106 1 8.000e-01 8.000e-01 6.333e-08 -1.937e-07
107 1 4.000e-01 6.000e-01 -1.304e-07 1.341e-07
108 1 4.000e-01 4.000e-01 2.272e-07 -2.086e-07
109 1 2.000e-01 8.000e-01 -4.098e-08 1.341e-07
110 1 0.000e+00 2.000e-01 -1.304e-07 7.451e-08
111 1 0.000e+00 0.000e+00 1.304e-07 -2.086e-07
112 1 6.000e-01 4.000e-01 -3.763e-07 -5.000e-02
113 1 0.000e+00 8.000e-01 2.608e-08 1.490e-08
114 1 8.000e-01 6.000e-01 9.313e-08 -2.086e-07
115 1 0.000e+00 6.000e-01 1.527e-07 4.470e-08
116 1 6.000e-01 8.000e-01 -2.682e-07 2.906e-07
117 1 8.000e-01 2.000e-01 -1.000e-01 1.118e-07
118 1 2.000e-01 6.000e-01 4.098e-08 1.267e-07
119 1 2.000e-01 4.000e-01 1.341e-07 -2.235e-07
120 1 4.000e-01 8.000e-01 -4.843e-08 2.980e-08
ITEM: TIMESTEP
0
ITEM: NUMBER OF ATOMS
24
ITEM: BOX BOUNDS xy xz yz pp pp pp
                     -5.00000000000000e-01 5.00000000000000e-01 0.00000000000000e+00
-5.00000000000000e-01	5.00000000000000e-01	0.00000000000000e+00
-5.00000000000000e-01	5.00000000000000e-01	0.00000000000000e+00
ITEM: ATOMS id type x y DisplacementX DisplacementY
121 1 2.000e-01 6.000e-01 -1.483e-06 -5.000e-02
122 1 4.000e-01 8.000e-01 1.565e-07 -2.980e-08
123 1 4.000e-01 6.000e-01 7.451e-09 -1.863e-07
124 1 8.000e-01 6.000e-01 1.103e-06 -5.364e-07
125 1 0.000e+00 4.000e-01 7.500e-02 1.118e-07
126 1 8.000e-01 0.000e+00 -4.321e-07 9.686e-08
127 1 8.000e-01 8.000e-01 2.086e-07 -1.267e-07
128 1 6.000e-01 6.000e-01 1.863e-07 -4.470e-08
129 1 4.000e-01 2.000e-01 3.725e-07 -9.686e-08
130 1 6.000e-01 0.000e+00 8.941e-08 -2.980e-08
131 1 0.000e+00 2.000e-01 -5.141e-07 3.278e-07
132 1 8.000e-01 2.000e-01 1.118e-07 -8.196e-08
133 1 4.000e-01 0.000e+00 -3.949e-07 1.714e-07
134 1 2.000e-01 8.000e-01 3.427e-07 5.215e-08
135 1 0.000e+00 6.000e-01 9.686e-07 -6.258e-07