ITEM: TIMESTEP
0
ITEM: NUMBER OF ATOMS
24
ITEM: BOX BOUNDS xy xz yz pp pp pp
                     -5.00000000000000e-01 5.00000000000000e-01 0.00000000000000e+00
-5.00000000000000e-01	5.00000000000000e-01	0.00000000000000e+00
-5.00000000000000e-01	5.00000000000000e-01	0.00000000000000e+00
ITEM: ATOMS id type x y DisplacementX DisplacementY
1 1 0.000e+00 0.000e+00 3.353e-08 -1.192e-07
2 1 2.000e-01 0.000e+00 6.333e-08 -1.043e-07
3 1 4.000e-01 0.000e+00 4.061e-07 2.608e-07
4 1 6.000e-01 0.000e+00 6.333e-08 -1.043e-07
5 1 8.000e-01 0.000e+00 3.353e-08 -1.192e-07
6 1 0.000e+00 2.000e-01 -6.706e-08 -2.682e-07
7 1 2.000e-01 2.000e-01 -7.078e-08 -1.714e-07
8 1 4.000e-01 2.000e-01 1.341e-07 0.000e+00
9 1 6.000e-01 2.000e-01 2.012e-07 -4.470e-08
10 1 8.000e-01 2.000e-01 3.353e-08 -1.192e-07
11 1 0.000e+00 4.000e-01 1.788e-07 9.462e-07
12 1 2.000e-01 4.000e-01 2.012e-07 -4.470e-08
13 1 6.000e-01 4.000e-01 -5.000e-01 -5.960e-08
14 1 8.000e-01 4.000e-01 1.341e-07 0.000e+00
15 1 0.000e+00 6.000e-01 1.118e-07 2.608e-07
16 1 2.000e-01 6.000e-01 3.353e-08 -5.215e-08
17 1 4.000e-01 6.000e-01 -7.078e-08 -1.714e-07
18 1 6.000e-01 6.000e-01 2.980e-08 -1.937e-07
19 1 8.000e-01 6.000e-01 1.341e-07 0.000e+00
20 1 0.000e+00 8.000e-01 1.341e-07 5.960e-08
21 1 2.000e-01 8.000e-01 -5.000e-01 -5.960e-08
22 1 4.000e-01 8.000e-01 6.333e-08 -1.043e-07
23 1 6.000e-01 8.000e-01 3.353e-08 -5.215e-08
24 1 8.000e-01 8.000e-01 1.341e-07 0.000e+00
ITEM: TIMESTEP
0
ITEM: NUMBER OF ATOMS
24
ITEM: BOX BOUNDS xy xz yz pp pp pp
                     -5.00000000000000e-01 5.00000000000000e-01 0.00000000000000e+00
-5.00000000000000e-01	5.00000000000000e-01	0.00000000000000e+00
-5.00000000000000e-01	5.00000000000000e-01	0.00000000000000e+00
ITEM: ATOMS id type x y DisplacementX DisplacementY
1 1 0.000e+00 0.000e+00 -4.470e-08 -7.078e-08
2 1 2.000e-01 0.000e+00 4.470e-08 4.098e-08
3 1 4.000e-01 0.000e+00 2.980e-08 -1.043e-07
4 1 6.000e-01 0.000e+00 4.470e-08 4.098e-08
5 1 8.000e-01 0.000e+00 -4.470e-08 -7.078e-08
6 1 0.000e+00 2.000e-01 -2.235e-08 1.974e-07
7 1 2.000e-01 2.000e-01 -2.012e-07 -5.000e-01
8 1 4.000e-01 2.000e-01 -1.490e-08 -1.080e-07
9 1 6.000e-01 2.000e-01 2.980e-08 -3.725e-08
10 1 8.000e-01 2.000e-01 -4.470e-08 -7.078e-08
11 1 0.000e+00 4.000e-01 3.800e-07 4.508e-07
12 1 2.000e-01 4.000e-01 2.980e-08 -3.725e-08
13 1 6.000e-01 4.000e-01 -5.215e-08 9.686e-08
14 1 8.000e-01 4.000e-01 -1.490e-08 -1.080e-07
15 1 0.000e+00 6.000e-01 1.043e-07 2.049e-07
16 1 2.000e-01 6.000e-01 -4.470e-08 1.267e-07
17 1 4.000e-01 6.000e-01 -2.012e-07 -5.000e-01
18 1 6.000e-01 6.000e-01 -5.215e-08 -1.043e-07
19 1 8.000e-01 6.000e-01 -1.490e-08 -1.080e-07
20 1 0.000e+00 8.000e-01 -3.725e-08 -2.384e-07
21 1 2.000e-01 8.000e-01 -5.215e-08 9.686e-08
22 1 4.000e-01 8.000e-01 4.470e-08 4.098e-08
23 1 6.000e-01 8.000e-01 -4.470e-08 1.267e-07
24 1 8.000e-01 8.000e-01 -1.490e-08 -1.080e-07
ITEM: TIMESTEP
0
ITEM: NUMBER OF ATOMS
24
ITEM: BOX BOUNDS xy xz yz pp pp pp
                     -5.00000000000000e-01 5.00000000000000e-01 0.00000000000000e+00
-5.00000000000000e-01	5.00000000000000e-01	0.00000000000000e+00
-5.00000000000000e-01	5.00000000000000e-01	0.00000000000000e+00
ITEM: ATOMS id type x y DisplacementX DisplacementY
1 1 0.000e+00 0.000e+00 -8.941e-08 -2.235e-08
2 1 2.000e-01 0.000e+00 1.118e-07 5.960e-08
3 1 4.000e-01 0.000e+00 2.235e-08 3.427e-07
4 1 6.000e-01 0.000e+00 1.118e-07 5.960e-08
5 1 8.000e-01 0.000e+00 -8.941e-08 -2.235e-08
6 1 0.000e+00 2.000e-01 -2.384e-07 -4.619e-07
7 1 2.000e-01 2.000e-01 -2.384e-07 -1.043e-07
8 1 4.000e-01 2.000e-01 -8.941e-08 -2.235e-08
9 1 6.000e-01 2.000e-01 5.000e-01 -7.451e-09
10 1 8.000e-01 2.000e-01 -8.941e-08 -2.235e-08
11 1 0.000e+00 4.000e-01 8.121e-07 1.028e-06
12 1 2.000e-01 4.000e-01 5.000e-01 -7.451e-09
13 1 6.000e-01 4.000e-01 -1.043e-07 -2.980e-08
14 1 8.000e-01 4.000e-01 -8.941e-08 -2.235e-08
15 1 0.000e+00 6.000e-01 -1.267e-07 1.267e-07
16 1 2.000e-01 6.000e-01 -8.941e-08 3.725e-08
17 1 4.000e-01 6.000e-01 -2.384e-07 -1.043e-07
18 1 6.000e-01 6.000e-01 -2.086e-07 -8.941e-08
19 1 8.000e-01 6.000e-01 -8.941e-08 -2.235e-08
20 1 0.000e+00 8.000e-01 -5.960e-08 3.055e-07
21 1 2.000e-01 8.000e-01 -1.043e-07 -2.980e-08
22 1 4.000e-01 8.000e-01 1.118e-07 5.960e-08
23 1 6.000e-01 8.000e-01 -8.941e-08 3.725e-08
24 1 8.000e-01 8.000e-01 -8.941e-08 -2.235e-08
ITEM: TIMESTEP
0
ITEM: NUMBER OF ATOMS
24
ITEM: BOX BOUNDS xy xz yz pp pp pp
                     -5.00000000000000e-01 5.00000000000000e-01 0.00000000000000e+00
-5.00000000000000e-01	5.00000000000000e-01	0.00000000000000e+00
-5.00000000000000e-01	5.00000000000000e-01	0.00000000000000e+00
ITEM: ATOMS id type x y DisplacementX DisplacementY
1 1 0.000e+00 0.000e+00 5.309e-08 -7.451e-09
2 1 2.000e-01 0.000e+00 5.122e-08 -7.451e-09
3 1 4.000e-01 0.000e+00 -2.589e-07 -2.272e-07
4 1 6.000e-01 0.000e+00 5.122e-08 -7.451e-09
5 1 8.000e-01 0.000e+00 5.309e-08 -7.451e-09
6 1 0.000e+00 2.000e-01 1.942e-07 1.211e-07
7 1 2.000e-01 2.000e-01 4.657e-09 2.235e-08
8 1 4.000e-01 2.000e-01 8.335e-08 2.500e-01
9 1 6.000e-01 2.000e-01 2.142e-07 -5.588e-08
10 1 8.000e-01 2.000e-01 5.309e-08 -7.451e-09
11 1 0.000e+00 4.000e-01 -5.332e-07 -3.763e-07
12 1 2.000e-01 4.000e-01 2.142e-07 -5.588e-08
13 1 6.000e-01 4.000e-01 5.867e-08 -2.421e-08
14 1 8.000e-01 4.000e-01 8.335e-08 2.500e-01
15 1 0.000e+00 6.000e-01 -1.467e-07 -3.148e-07
16 1 2.000e-01 6.000e-01 5.076e-08 4.098e-08
17 1 4.000e-01 6.000e-01 4.657e-09 2.235e-08
18 1 6.000e-01 6.000e-01 2.547e-07 2.794e-08
19 1 8.000e-01 6.000e-01 8.335e-08 2.500e-01
20 1 0.000e+00 8.000e-01 -2.533e-07 8.568e-08
21 1 2.000e-01 8.000e-01 5.867e-08 -2.421e-08
22 1 4.000e-01 8.000e-01 5.122e-08 -7.451e-09
23 1 6.000e-01 8.000e-01 5.076e-08 4.098e-08
24 1 8.000e-01 8.000e-01 8.335e-08 2.500e-01
