ITEM: TIMESTEP
0
ITEM: NUMBER OF ATOMS
107
ITEM: BOX BOUNDS xy xz yz pp pp pp
                     0.00000000000000e+00 1.06000000000000e+01 0.00000000000000e+00
0.00000000000000e+00	1.06000000000000e+01	0.00000000000000e+00
0.00000000000000e+00	1.06000000000000e+01	0.00000000000000e+00
ITEM: ATOMS id type x y z DisplacementX DisplacementY DisplacementZ
1 1 3.544e-01 3.546e-01 3.552e-01 -1.541e-03 -5.538e-03 -3.748e-03
2 1 2.123e+00 2.124e+00 3.571e-01 -1.145e-03 -6.563e-03 -5.320e-03
3 1 2.123e+00 3.515e-01 2.124e+00 -1.249e-03 -2.961e-03 -1.731e-03
4 1 3.533e-01 2.122e+00 2.126e+00 -4.752e-04 -6.884e-03 -5.413e-03
5 1 3.895e+00 3.533e-01 3.533e-01 -1.362e-03 -5.629e-03 -4.604e-03
6 1 5.665e+00 2.124e+00 3.549e-01 -1.519e-04 -8.974e-03 -8.690e-03
7 1 5.665e+00 3.522e-01 2.125e+00 1.083e-03 -1.098e-02 -1.084e-02
8 1 3.894e+00 2.126e+00 2.124e+00 -3.380e-04 -7.753e-03 -7.573e-03
9 1 7.432e+00 3.504e-01 3.573e-01 -1.923e-03 -4.379e-03 -2.424e-03
10 1 9.202e+00 2.125e+00 3.541e-01 -6.643e-04 -8.849e-03 -6.870e-03
11 1 9.202e+00 3.495e-01 2.127e+00 -5.834e-04 -4.570e-03 -2.671e-03
12 1 7.435e+00 2.124e+00 2.122e+00 1.159e-03 -4.497e-03 -3.853e-03
13 1 3.524e-01 3.894e+00 3.543e-01 -1.177e-03 -7.821e-03 -6.001e-03
14 1 2.123e+00 3.895e+00 2.125e+00 -7.330e-04 -5.020e-03 -3.485e-03
15 1 3.894e+00 3.895e+00 3.540e-01 -1.239e-03 -7.624e-03 -6.836e-03
16 1 5.665e+00 3.897e+00 2.127e+00 4.867e-04 -5.497e-03 -6.392e-03
17 1 7.434e+00 3.898e+00 3.568e-01 -1.373e-03 -1.406e-02 -1.280e-02
18 1 9.203e+00 3.896e+00 2.126e+00 8.196e-04 -1.125e-02 -9.389e-03
19 1 3.515e-01 3.499e-01 3.893e+00 -7.437e-04 -7.932e-03 -5.557e-03
20 1 2.125e+00 2.124e+00 3.892e+00 -8.045e-04 -5.445e-03 -4.708e-03
21 1 3.896e+00 3.513e-01 3.895e+00 -4.915e-04 -6.947e-03 -6.117e-03
22 1 5.661e+00 2.123e+00 3.893e+00 -4.998e-04 -6.365e-03 -3.695e-03
23 1 7.435e+00 3.631e-01 3.894e+00 5.697e-03 4.782e-03 -3.245e-04
24 1 9.207e+00 2.124e+00 3.894e+00 4.875e-04 -3.778e-03 -4.735e-03
25 1 3.498e-01 3.897e+00 3.895e+00 -1.751e-04 -2.517e-03 -1.046e-03
26 1 3.896e+00 3.895e+00 3.895e+00 5.156e-04 -6.294e-04 -2.482e-03
27 1 7.434e+00 3.886e+00 3.894e+00 4.749e-04 -1.717e-02 -1.332e-02
28 1 2.124e+00 3.522e-01 5.664e+00 -1.278e-03 -5.469e-03 -4.680e-03
29 1 3.532e-01 2.122e+00 5.664e+00 -1.607e-04 -4.869e-03 -4.646e-03
30 1 5.665e+00 3.519e-01 5.663e+00 2.240e-03 -1.028e-02 -8.386e-03
31 1 3.896e+00 2.124e+00 5.663e+00 -2.326e-04 -6.702e-03 -6.000e-03
32 1 9.201e+00 3.513e-01 5.661e+00 1.241e-03 -8.229e-03 -8.217e-03
33 1 7.435e+00 2.125e+00 5.667e+00 -8.736e-04 -3.813e-03 -2.033e-03
34 1 2.122e+00 3.894e+00 5.663e+00 -7.720e-04 -3.617e-03 -2.130e-03
35 1 5.667e+00 3.896e+00 5.664e+00 1.120e-04 -2.920e-03 -4.624e-03
36 1 9.202e+00 3.895e+00 5.662e+00 3.057e-04 -3.195e-03 -3.536e-03
37 1 3.541e-01 3.503e-01 7.434e+00 -9.978e-04 -7.484e-03 -6.637e-03
38 1 2.125e+00 2.123e+00 7.434e+00 -1.141e-03 -6.091e-03 -5.013e-03
39 1 2.126e+00 3.547e-01 9.205e+00 -1.545e-03 -6.238e-03 -4.951e-03
40 1 3.536e-01 2.124e+00 9.205e+00 -1.206e-03 -6.926e-03 -5.684e-03
41 1 3.896e+00 3.527e-01 7.433e+00 -1.732e-03 -7.722e-03 -6.261e-03
42 1 5.666e+00 2.125e+00 7.432e+00 -7.983e-05 -6.991e-03 -6.245e-03
43 1 5.665e+00 3.526e-01 9.203e+00 -2.755e-03 -7.597e-03 -6.160e-03
44 1 3.896e+00 2.123e+00 9.202e+00 -1.258e-03 -7.294e-03 -6.125e-03
45 1 7.433e+00 3.507e-01 7.431e+00 -1.325e-03 -1.401e-02 -1.255e-02
46 1 9.204e+00 2.125e+00 7.434e+00 -4.673e-04 -6.127e-03 -5.960e-03
47 1 9.204e+00 3.523e-01 9.204e+00 -1.607e-03 -7.712e-03 -6.487e-03
48 1 7.433e+00 2.124e+00 9.205e+00 -1.250e-03 -1.044e-02 -9.413e-03
49 1 3.515e-01 3.894e+00 7.433e+00 -1.182e-03 -5.323e-03 -4.199e-03
50 1 2.123e+00 3.894e+00 9.205e+00 -1.409e-03 -6.611e-03 -5.156e-03
51 1 3.894e+00 3.897e+00 7.432e+00 -9.514e-04 -5.631e-03 -4.485e-03
52 1 5.666e+00 3.894e+00 9.204e+00 -1.770e-03 -9.898e-03 -8.264e-03
53 1 7.434e+00 3.896e+00 7.431e+00 7.454e-04 -4.956e-03 -5.239e-03
54 1 9.202e+00 3.893e+00 9.204e+00 -1.719e-03 -9.299e-03 -7.497e-03
55 1 2.123e+00 5.665e+00 3.554e-01 -1.597e-03 -5.140e-03 -3.624e-03
56 1 3.509e-01 5.664e+00 2.126e+00 -2.438e-03 -2.056e-04 1.378e-03
57 1 5.666e+00 5.665e+00 3.563e-01 -4.270e-03 -9.278e-03 -7.999e-03
58 1 3.896e+00 5.666e+00 2.124e+00 -1.758e-04 -6.806e-03 -5.247e-03
59 1 9.202e+00 5.667e+00 3.577e-01 -2.235e-03 -1.256e-02 -1.006e-02
60 1 7.433e+00 5.673e+00 2.132e+00 -1.388e-02 1.409e+00 1.413e+00
61 1 3.506e-01 7.433e+00 3.573e-01 -2.555e-03 -4.197e-03 -7.715e-04
62 1 2.122e+00 9.204e+00 3.562e-01 -2.001e-03 -4.781e-03 -2.902e-03
63 1 2.124e+00 7.434e+00 2.123e+00 -5.074e-04 -9.822e-03 -9.157e-03
64 1 3.519e-01 9.202e+00 2.124e+00 -1.137e-03 -4.785e-03 -1.654e-03
65 1 3.898e+00 7.433e+00 3.557e-01 -3.049e-03 -2.239e-03 -1.373e-03
66 1 5.665e+00 9.202e+00 3.571e-01 -2.525e-03 -5.278e-03 -2.967e-03
67 1 5.674e+00 7.434e+00 2.135e+00 -5.440e-03 -2.962e-02 -2.655e-02
68 1 3.899e+00 9.203e+00 2.127e+00 -2.283e-03 4.277e-03 5.852e-03
69 1 7.434e+00 7.435e+00 3.439e-01 -5.971e-04 -2.172e-02 -2.112e-02
70 1 9.202e+00 9.204e+00 3.568e-01 -3.052e-03 -4.102e-03 -2.552e-03
71 1 9.196e+00 7.433e+00 2.133e+00 1.783e-03 -2.917e-02 -3.216e-02
72 1 7.435e+00 9.193e+00 2.134e+00 -1.053e-02 -5.107e-03 -2.216e-02
73 1 2.124e+00 5.662e+00 3.893e+00 -1.972e-04 -8.803e-03 -5.795e-03
74 1 5.673e+00 5.672e+00 3.894e+00 -5.377e-03 -2.722e-02 -2.418e-02
75 1 9.195e+00 5.674e+00 3.893e+00 -6.651e-03 -1.836e-02 -6.747e-03
76 1 3.642e-01 7.434e+00 3.895e+00 -1.701e-03 9.176e-03 3.299e-03
77 1 2.122e+00 9.206e+00 3.893e+00 6.780e-04 1.618e-03 1.034e-03
78 1 3.885e+00 7.434e+00 3.894e+00 -2.389e-04 -3.021e-03 5.245e-03
79 1 5.674e+00 9.193e+00 3.896e+00 -8.354e-03 -2.401e-02 -3.062e-02
80 1 9.194e+00 9.194e+00 3.894e+00 8.076e-04 -3.805e-02 -3.204e-02
81 1 3.515e-01 5.666e+00 5.663e+00 -8.547e-04 -1.661e-03 -1.190e-03
82 1 3.895e+00 5.665e+00 5.665e+00 -1.328e-03 3.447e-03 5.107e-03
83 1 7.433e+00 5.673e+00 5.654e+00 -1.741e-03 -3.402e-02 -1.023e-02
84 1 2.124e+00 7.431e+00 5.665e+00 -1.623e-03 -1.839e-03 -3.439e-04
85 1 3.508e-01 9.200e+00 5.662e+00 -1.610e-03 -8.228e-03 -6.741e-03
86 1 5.674e+00 7.434e+00 5.657e+00 2.613e-01 -3.360e-02 -3.004e-01
87 1 3.897e+00 9.202e+00 5.661e+00 -1.545e-03 -4.650e-03 -3.267e-03
88 1 9.196e+00 7.434e+00 5.654e+00 5.525e-03 -3.550e-02 -2.207e-02
89 1 7.434e+00 9.195e+00 5.654e+00 -5.286e-03 -9.103e-03 -6.760e-03
90 1 2.124e+00 5.665e+00 7.433e+00 -2.090e-03 -3.094e-03 -1.564e-03
91 1 3.531e-01 5.665e+00 9.205e+00 -1.825e-03 -8.389e-03 -6.197e-03
92 1 5.666e+00 5.666e+00 7.432e+00 -5.018e-04 -1.215e-02 -9.824e-03
93 1 3.896e+00 5.663e+00 9.205e+00 -1.911e-03 -8.791e-03 -7.139e-03
94 1 9.202e+00 5.668e+00 7.433e+00 -1.579e-03 -8.334e-03 -5.626e-03
95 1 7.434e+00 5.661e+00 9.203e+00 -3.217e-03 -3.580e-03 -1.245e-03
96 1 3.508e-01 7.433e+00 7.430e+00 -1.089e-03 -9.321e-03 -7.209e-03
97 1 2.123e+00 9.204e+00 7.433e+00 -1.845e-03 -6.152e-03 -4.776e-03
98 1 2.124e+00 7.435e+00 9.205e+00 -2.772e-03 -5.767e-03 -3.685e-03
99 1 3.539e-01 9.204e+00 9.202e+00 -2.149e-03 -5.976e-03 -4.445e-03
100 1 3.897e+00 7.434e+00 7.430e+00 -3.063e-03 -6.714e-03 -5.218e-03
101 1 5.665e+00 9.202e+00 7.430e+00 -5.516e-03 -1.133e-02 -9.554e-03
102 1 5.661e+00 7.434e+00 9.204e+00 1.179e-03 -8.509e-03 -6.453e-03
103 1 3.895e+00 9.203e+00 9.203e+00 -2.647e-03 -7.163e-03 -5.502e-03
104 1 7.433e+00 7.434e+00 7.443e+00 -8.598e-03 -3.395e-03 2.658e-03
105 1 9.204e+00 9.202e+00 7.430e+00 -2.500e-03 -1.185e-02 -9.257e-03
106 1 9.205e+00 7.433e+00 9.201e+00 -2.182e-03 -5.168e-03 -4.927e-03
107 1 7.436e+00 9.204e+00 9.206e+00 2.362e-04 -6.762e-03 -6.167e-03
ITEM: TIMESTEP
0
ITEM: NUMBER OF ATOMS
107
ITEM: BOX BOUNDS xy xz yz pp pp pp
                     0.00000000000000e+00 1.06000000000000e+01 0.00000000000000e+00
0.00000000000000e+00	1.06000000000000e+01	0.00000000000000e+00
0.00000000000000e+00	1.06000000000000e+01	0.00000000000000e+00
ITEM: ATOMS id type x y z DisplacementX DisplacementY DisplacementZ
1 1 3.544e-01 3.546e-01 3.552e-01 -3.832e-03 -2.103e-03 -2.431e-03
2 1 2.123e+00 2.124e+00 3.571e-01 -3.939e-03 -1.430e-03 -2.468e-03
3 1 2.123e+00 3.515e-01 2.124e+00 -3.998e-03 -2.464e-03 -3.738e-03
4 1 3.533e-01 2.122e+00 2.126e+00 -4.545e-03 -1.246e-03 -8.745e-04
5 1 3.895e+00 3.533e-01 3.533e-01 -3.822e-03 -8.860e-04 -2.671e-03
6 1 5.665e+00 2.124e+00 3.549e-01 -3.733e-03 -1.200e-03 -2.282e-04
7 1 5.665e+00 3.522e-01 2.125e+00 -5.363e-03 -1.067e-03 1.969e-03
8 1 3.894e+00 2.126e+00 2.124e+00 -4.215e-03 -1.882e-03 -3.192e-04
9 1 7.432e+00 3.504e-01 3.573e-01 -3.838e-03 -2.168e-03 6.962e-05
10 1 9.202e+00 2.125e+00 3.541e-01 -3.864e-03 -3.223e-04 -6.213e-04
11 1 9.202e+00 3.495e-01 2.127e+00 -5.455e-03 -2.073e-03 -9.173e-04
12 1 7.435e+00 2.124e+00 2.122e+00 -6.459e-03 -1.608e-03 -6.149e-03
13 1 3.524e-01 3.894e+00 3.543e-01 -3.194e-03 -2.225e-04 -2.099e-03
14 1 2.123e+00 3.895e+00 2.125e+00 -4.569e-03 -2.326e-03 -3.839e-03
15 1 3.894e+00 3.895e+00 3.540e-01 -4.013e-03 -1.295e-03 -2.504e-03
16 1 5.665e+00 3.897e+00 2.127e+00 -5.178e-03 -1.447e-03 -6.807e-05
17 1 7.434e+00 3.898e+00 3.568e-01 -1.133e-03 3.466e-03 2.511e-03
18 1 9.203e+00 3.896e+00 2.126e+00 -3.713e-03 7.417e-04 3.826e-03
19 1 3.515e-01 3.499e-01 3.893e+00 -8.820e-03 -6.244e-03 -2.852e-03
20 1 2.125e+00 2.124e+00 3.892e+00 -4.700e-03 -2.696e-03 -1.521e-03
21 1 3.896e+00 3.513e-01 3.895e+00 -2.666e-03 -2.284e-03 -3.707e-03
22 1 5.661e+00 2.123e+00 3.893e+00 -7.103e-03 -7.299e-04 -1.849e-03
23 1 7.435e+00 3.631e-01 3.894e+00 -3.763e-04 1.185e-02 9.831e-03
24 1 9.207e+00 2.124e+00 3.894e+00 -2.400e-03 -1.091e-03 -3.816e-03
25 1 3.498e-01 3.897e+00 3.895e+00 -4.780e-03 7.768e-04 -7.023e-04
26 1 3.896e+00 3.895e+00 3.895e+00 -3.688e-03 -2.990e-03 -8.917e-04
27 1 7.434e+00 3.886e+00 3.894e+00 -1.564e-02 -1.256e-02 -3.609e-03
28 1 2.124e+00 3.522e-01 5.664e+00 -4.164e-03 -2.532e-03 -2.923e-03
29 1 3.532e-01 2.122e+00 5.664e+00 -5.607e-03 -1.378e-03 -1.354e-03
30 1 5.665e+00 3.519e-01 5.663e+00 -4.966e-03 -8.170e-04 -2.140e-03
31 1 3.896e+00 2.124e+00 5.663e+00 -4.482e-03 -1.195e-03 -1.366e-03
32 1 9.201e+00 3.513e-01 5.661e+00 -8.980e-03 -1.790e-03 -5.372e-04
33 1 7.435e+00 2.125e+00 5.667e+00 -4.364e-03 -8.992e-04 6.078e-04
34 1 2.122e+00 3.894e+00 5.663e+00 -5.038e-03 -3.145e-03 -3.723e-03
35 1 5.667e+00 3.896e+00 5.664e+00 -3.770e-03 -4.892e-04 1.987e-03
36 1 9.202e+00 3.895e+00 5.662e+00 -6.763e-03 -1.171e-04 -1.001e-04
37 1 3.541e-01 3.503e-01 7.434e+00 -5.193e-03 -1.799e-03 -2.376e-03
38 1 2.125e+00 2.123e+00 7.434e+00 -4.193e-03 -1.439e-03 -2.432e-03
39 1 2.126e+00 3.547e-01 9.205e+00 -3.798e-03 -1.191e-03 -2.853e-03
40 1 3.536e-01 2.124e+00 9.205e+00 -3.875e-03 -9.527e-04 -2.256e-03
41 1 3.896e+00 3.527e-01 7.433e+00 -3.214e-03 -8.010e-04 -2.872e-03
42 1 5.666e+00 2.125e+00 7.432e+00 -4.512e-03 -2.455e-04 -1.007e-03
43 1 5.665e+00 3.526e-01 9.203e+00 -2.881e-03 8.512e-04 -2.382e-03
44 1 3.896e+00 2.123e+00 9.202e+00 -3.796e-03 -8.953e-04 -2.288e-03
45 1 7.433e+00 3.507e-01 7.431e+00 -6.403e-03 -9.955e-04 -3.082e-03
46 1 9.204e+00 2.125e+00 7.434e+00 -5.721e-03 -5.542e-04 -8.807e-04
47 1 9.204e+00 3.523e-01 9.204e+00 -3.506e-03 -7.892e-04 -1.559e-03
48 1 7.433e+00 2.124e+00 9.205e+00 -3.220e-03 5.588e-04 -4.466e-04
49 1 3.515e-01 3.894e+00 7.433e+00 -4.298e-03 -1.013e-03 -3.081e-03
50 1 2.123e+00 3.894e+00 9.205e+00 -3.922e-03 -1.232e-03 -3.090e-03
51 1 3.894e+00 3.897e+00 7.432e+00 -3.871e-03 -1.480e-03 -2.620e-03
52 1 5.666e+00 3.894e+00 9.204e+00 -3.313e-03 4.046e-05 -2.952e-03
53 1 7.434e+00 3.896e+00 7.431e+00 -3.158e-03 1.527e-03 -2.942e-03
54 1 9.202e+00 3.893e+00 9.204e+00 -2.844e-03 3.935e-04 -2.909e-03
55 1 2.123e+00 5.665e+00 3.554e-01 -3.677e-03 -1.983e-03 -4.524e-03
56 1 3.509e-01 5.664e+00 2.126e+00 -3.044e-03 -2.186e-03 -5.755e-03
57 1 5.666e+00 5.665e+00 3.563e-01 -3.934e-03 1.162e-03 -3.106e-03
58 1 3.896e+00 5.666e+00 2.124e+00 -4.439e-03 -3.504e-03 -4.429e-03
59 1 9.202e+00 5.667e+00 3.577e-01 -8.650e-04 2.543e-03 -2.172e-03
60 1 7.433e+00 5.673e+00 2.132e+00 -1.420e-02 -6.760e-03 -9.256e-03
61 1 3.506e-01 7.433e+00 3.573e-01 -1.471e-03 -1.862e-03 -2.235e-03
62 1 2.122e+00 9.204e+00 3.562e-01 -3.486e-03 -2.139e-03 -4.634e-03
63 1 2.124e+00 7.434e+00 2.123e+00 -3.972e-03 -3.813e-03 -4.337e-03
64 1 3.519e-01 9.202e+00 2.124e+00 -2.988e-03 -4.891e-03 -4.104e-03
65 1 3.898e+00 7.433e+00 3.557e-01 -3.652e-03 1.102e-03 -6.038e-03
66 1 5.665e+00 9.202e+00 3.571e-01 -2.484e-03 2.122e-03 -4.514e-03
67 1 5.674e+00 7.434e+00 2.135e+00 5.535e-01 -1.132e-02 5.664e-01
68 1 3.899e+00 9.203e+00 2.127e+00 -5.166e-03 -3.241e-03 -8.128e-03
69 1 7.434e+00 7.435e+00 3.439e-01 -6.890e-03 -2.136e-03 -1.552e-02
70 1 9.202e+00 9.204e+00 3.568e-01 -4.331e-03 -2.933e-03 -2.462e-03
71 1 9.196e+00 7.433e+00 2.133e+00 -2.922e-01 -1.626e-03 2.724e-01
72 1 7.435e+00 9.193e+00 2.134e+00 -1.370e-02 2.852e-03 -1.444e-02
73 1 2.124e+00 5.662e+00 3.893e+00 -5.866e-03 -4.360e-03 -6.613e-03
74 1 5.673e+00 5.672e+00 3.894e+00 5.541e-01 5.584e-01 -8.418e-03
75 1 9.195e+00 5.674e+00 3.893e+00 -5.486e-04 -5.799e-03 -1.311e-02
76 1 3.642e-01 7.434e+00 3.895e+00 6.786e-03 -2.825e-03 -1.151e-02
77 1 2.122e+00 9.206e+00 3.893e+00 -3.312e-03 1.065e-03 -2.052e-03
78 1 3.885e+00 7.434e+00 3.894e+00 -1.671e-02 -9.494e-03 -6.680e-03
79 1 5.674e+00 9.193e+00 3.896e+00 -1.533e-02 1.183e-02 -7.813e-03
80 1 9.194e+00 9.194e+00 3.894e+00 -7.831e-03 -5.239e-03 -1.182e-02
81 1 3.515e-01 5.666e+00 5.663e+00 -4.451e-03 -2.901e-03 -5.476e-03
82 1 3.895e+00 5.665e+00 5.665e+00 -5.190e-03 -5.590e-03 -5.471e-03
83 1 7.433e+00 5.673e+00 5.654e+00 -1.370e-02 -6.642e-03 -6.401e-03
84 1 2.124e+00 7.431e+00 5.665e+00 -1.901e-03 -1.001e-03 -1.865e-03
85 1 3.508e-01 9.200e+00 5.662e+00 -7.571e-03 -5.308e-03 -5.798e-03
86 1 5.674e+00 7.434e+00 5.657e+00 -1.412e-02 -1.109e-02 -7.806e-04
87 1 3.897e+00 9.202e+00 5.661e+00 -1.900e-03 -2.766e-03 -4.441e-03
88 1 9.196e+00 7.434e+00 5.654e+00 -1.546e-02 -1.729e-02 8.383e-03
89 1 7.434e+00 9.195e+00 5.654e+00 -1.825e-02 -2.894e-01 -2.947e-01
90 1 2.124e+00 5.665e+00 7.433e+00 -4.325e-03 -2.718e-03 -3.967e-03
91 1 3.531e-01 5.665e+00 9.205e+00 -2.615e-03 -1.458e-04 -3.732e-03
92 1 5.666e+00 5.666e+00 7.432e+00 -4.358e-04 1.457e-04 -4.777e-03
93 1 3.896e+00 5.663e+00 9.205e+00 -3.052e-03 -1.852e-04 -3.951e-03
94 1 9.202e+00 5.668e+00 7.433e+00 -2.159e-03 1.318e-03 -5.203e-03
95 1 7.434e+00 5.661e+00 9.203e+00 -6.646e-03 -4.567e-03 -4.732e-03
96 1 3.508e-01 7.433e+00 7.430e+00 -7.225e-03 -3.104e-03 -6.068e-03
97 1 2.123e+00 9.204e+00 7.433e+00 -3.813e-03 -2.534e-03 -4.065e-03
98 1 2.124e+00 7.435e+00 9.205e+00 -3.632e-03 -1.157e-03 -4.996e-03
99 1 3.539e-01 9.204e+00 9.202e+00 -3.407e-03 -1.300e-03 -2.972e-03
100 1 3.897e+00 7.434e+00 7.430e+00 -4.518e-04 -1.902e-03 -5.912e-03
101 1 5.665e+00 9.202e+00 7.430e+00 -5.981e-04 1.417e-03 -3.155e-03
102 1 5.661e+00 7.434e+00 9.204e+00 -4.336e-03 -2.848e-03 -1.183e-03
103 1 3.895e+00 9.203e+00 9.203e+00 -3.042e-03 6.664e-05 -3.676e-03
104 1 7.433e+00 7.434e+00 7.443e+00 6.032e-03 6.730e-03 6.568e-03
105 1 9.204e+00 9.202e+00 7.430e+00 -3.675e-03 -3.644e-04 -3.046e-03
106 1 9.205e+00 7.433e+00 9.201e+00 -1.054e-03 3.082e-04 -4.385e-03
107 1 7.436e+00 9.204e+00 9.206e+00 -1.673e-03 2.516e-03 -2.359e-03
ITEM: TIMESTEP
0
ITEM: NUMBER OF ATOMS
107
ITEM: BOX BOUNDS xy xz yz pp pp pp
                     0.00000000000000e+00 1.06000000000000e+01 0.00000000000000e+00
0.00000000000000e+00	1.06000000000000e+01	0.00000000000000e+00
0.00000000000000e+00	1.06000000000000e+01	0.00000000000000e+00
ITEM: ATOMS id type x y z DisplacementX DisplacementY DisplacementZ
1 1 3.544e-01 3.546e-01 3.552e-01 5.233e-03 -5.573e-03 7.302e-04
2 1 2.123e+00 2.124e+00 3.571e-01 5.236e-03 -4.722e-03 9.264e-04
3 1 2.123e+00 3.515e-01 2.124e+00 5.627e-03 -5.381e-03 5.603e-04
4 1 3.533e-01 2.122e+00 2.126e+00 4.390e-03 -6.173e-03 2.101e-03
5 1 3.895e+00 3.533e-01 3.533e-01 5.593e-03 -5.364e-03 2.274e-03
6 1 5.665e+00 2.124e+00 3.549e-01 4.353e-03 -4.843e-03 2.480e-03
7 1 5.665e+00 3.522e-01 2.125e+00 2.068e-03 -8.562e-03 6.827e-03
8 1 3.894e+00 2.126e+00 2.124e+00 3.845e-03 -5.006e-03 2.408e-03
9 1 7.432e+00 3.504e-01 3.573e-01 4.798e-03 -9.481e-03 5.997e-03
10 1 9.202e+00 2.125e+00 3.541e-01 3.867e-03 -5.982e-03 1.744e-03
11 1 9.202e+00 3.495e-01 2.127e+00 4.978e-03 -7.090e-03 2.468e-03
12 1 7.435e+00 2.124e+00 2.122e+00 4.633e-03 -1.270e-03 -1.829e-03
13 1 3.524e-01 3.894e+00 3.543e-01 5.449e-03 -4.478e-03 5.661e-04
14 1 2.123e+00 3.895e+00 2.125e+00 5.640e-03 -4.144e-03 -1.961e-04
15 1 3.894e+00 3.895e+00 3.540e-01 5.022e-03 -3.924e-03 9.313e-04
16 1 5.665e+00 3.897e+00 2.127e+00 4.024e-03 -4.175e-03 3.624e-03
17 1 7.434e+00 3.898e+00 3.568e-01 3.664e-03 -3.094e-03 2.422e-03
18 1 9.203e+00 3.896e+00 2.126e+00 5.658e-04 -7.323e-03 3.131e-03
19 1 3.515e-01 3.499e-01 3.893e+00 2.142e-03 -6.359e-03 2.772e-03
20 1 2.125e+00 2.124e+00 3.892e+00 4.979e-03 -5.431e-03 6.149e-04
21 1 3.896e+00 3.513e-01 3.895e+00 6.646e-03 -6.447e-03 2.537e-03
22 1 5.661e+00 2.123e+00 3.893e+00 3.195e-04 -5.163e-03 2.920e-03
23 1 7.435e+00 3.631e-01 3.894e+00 -7.463e-05 -1.770e-03 4.404e-04
24 1 9.207e+00 2.124e+00 3.894e+00 7.429e-03 -4.003e-03 3.075e-03
25 1 3.498e-01 3.897e+00 3.895e+00 2.862e-03 -4.600e-03 1.672e-04
26 1 3.896e+00 3.895e+00 3.895e+00 6.596e-03 -3.077e-03 -3.334e-04
27 1 7.434e+00 3.886e+00 3.894e+00 1.185e-03 -1.608e-02 1.153e-02
28 1 2.124e+00 3.522e-01 5.664e+00 5.312e-03 -3.721e-03 1.290e-05
29 1 3.532e-01 2.122e+00 5.664e+00 4.817e-03 -5.616e-03 1.359e-03
30 1 5.665e+00 3.519e-01 5.663e+00 2.379e-03 -6.692e-03 1.994e-03
31 1 3.896e+00 2.124e+00 5.663e+00 3.618e-03 -6.057e-03 2.039e-03
32 1 9.201e+00 3.513e-01 5.661e+00 3.906e-03 -3.827e-03 3.127e-03
33 1 7.435e+00 2.125e+00 5.667e+00 4.693e-03 -6.075e-03 5.664e-03
34 1 2.122e+00 3.894e+00 5.663e+00 6.270e-03 -3.942e-03 3.067e-04
35 1 5.667e+00 3.896e+00 5.664e+00 4.219e-03 -7.092e-03 2.151e-03
36 1 9.202e+00 3.895e+00 5.662e+00 1.687e-03 -7.441e-03 3.113e-03
37 1 3.541e-01 3.503e-01 7.434e+00 5.325e-03 -4.034e-03 9.000e-04
38 1 2.125e+00 2.123e+00 7.434e+00 5.311e-03 -4.696e-03 9.200e-04
39 1 2.126e+00 3.547e-01 9.205e+00 5.596e-03 -4.461e-03 6.040e-04
40 1 3.536e-01 2.124e+00 9.205e+00 5.443e-03 -4.788e-03 9.674e-04
41 1 3.896e+00 3.527e-01 7.433e+00 5.152e-03 -4.016e-03 -3.298e-05
42 1 5.666e+00 2.125e+00 7.432e+00 4.355e-03 -6.376e-03 1.858e-03
43 1 5.665e+00 3.526e-01 9.203e+00 5.209e-03 -4.173e-03 1.164e-03
44 1 3.896e+00 2.123e+00 9.202e+00 5.055e-03 -4.774e-03 1.216e-03
45 1 7.433e+00 3.507e-01 7.431e+00 4.714e-03 -2.945e-03 -1.225e-03
46 1 9.204e+00 2.125e+00 7.434e+00 4.578e-03 -5.495e-03 2.051e-03
47 1 9.204e+00 3.523e-01 9.204e+00 5.594e-03 -4.675e-03 6.893e-04
48 1 7.433e+00 2.124e+00 9.205e+00 4.768e-03 -6.003e-03 1.728e-03
49 1 3.515e-01 3.894e+00 7.433e+00 5.430e-03 -4.357e-03 9.636e-04
50 1 2.123e+00 3.894e+00 9.205e+00 5.727e-03 -4.404e-03 6.607e-04
51 1 3.894e+00 3.897e+00 7.432e+00 5.794e-03 -5.131e-03 9.349e-04
52 1 5.666e+00 3.894e+00 9.204e+00 5.056e-03 -5.060e-03 1.682e-03
53 1 7.434e+00 3.896e+00 7.431e+00 4.708e-03 -5.825e-03 1.661e-03
54 1 9.202e+00 3.893e+00 9.204e+00 6.291e-03 -3.975e-03 1.136e-03
55 1 2.123e+00 5.665e+00 3.554e-01 6.163e-03 -3.439e-03 -6.159e-04
56 1 3.509e-01 5.664e+00 2.126e+00 7.022e-03 -1.495e-03 -4.049e-03
57 1 5.666e+00 5.665e+00 3.563e-01 5.356e-03 -2.581e-03 -2.074e-04
58 1 3.896e+00 5.666e+00 2.124e+00 5.245e-03 -3.032e-03 9.539e-04
59 1 9.202e+00 5.667e+00 3.577e-01 7.372e-03 -2.556e-03 1.684e-03
60 1 7.433e+00 5.673e+00 2.132e+00 2.173e-02 -1.294e-02 -2.830e-03
61 1 3.506e-01 7.433e+00 3.573e-01 6.228e-03 -5.238e-03 -1.400e-03
62 1 2.122e+00 9.204e+00 3.562e-01 6.096e-03 -4.785e-03 3.959e-04
63 1 2.124e+00 7.434e+00 2.123e+00 4.351e-03 1.376e-03 -2.034e-05
64 1 3.519e-01 9.202e+00 2.124e+00 2.878e-03 -6.294e-03 1.199e-03
65 1 3.898e+00 7.433e+00 3.557e-01 7.124e-03 -5.650e-03 3.638e-03
66 1 5.665e+00 9.202e+00 3.571e-01 5.855e-03 -5.285e-03 3.628e-03
67 1 5.674e+00 7.434e+00 2.135e+00 9.781e-03 -1.583e-02 -5.447e-03
68 1 3.899e+00 9.203e+00 2.127e+00 9.199e-03 -5.315e-03 1.125e-03
69 1 7.434e+00 7.435e+00 3.439e-01 8.430e-03 9.417e-03 -1.112e-02
70 1 9.202e+00 9.204e+00 3.568e-01 6.666e-03 -2.983e-03 -8.614e-05
71 1 9.196e+00 7.433e+00 2.133e+00 -5.561e-01 -1.014e-02 5.803e-01
72 1 7.435e+00 9.193e+00 2.134e+00 2.592e-02 -9.098e-03 1.641e-03
73 1 2.124e+00 5.662e+00 3.893e+00 4.568e-03 -5.892e-03 4.275e-03
74 1 5.673e+00 5.672e+00 3.894e+00 1.949e-02 -1.638e-02 4.037e-03
75 1 9.195e+00 5.674e+00 3.893e+00 -2.638e-01 2.737e-01 6.625e-03
76 1 3.642e-01 7.434e+00 3.895e+00 1.944e-02 -1.534e-03 -2.373e-03
77 1 2.122e+00 9.206e+00 3.893e+00 5.511e-03 -1.678e-03 -1.072e-03
78 1 3.885e+00 7.434e+00 3.894e+00 -5.509e-03 -2.378e-03 -4.341e-04
79 1 5.674e+00 9.193e+00 3.896e+00 1.596e-02 -6.375e-03 8.067e-03
80 1 9.194e+00 9.194e+00 3.894e+00 2.480e-02 -8.676e-03 7.349e-03
81 1 3.515e-01 5.666e+00 5.663e+00 6.018e-03 -2.784e-03 2.581e-03
82 1 3.895e+00 5.665e+00 5.665e+00 8.110e-03 -3.451e-03 -3.598e-03
83 1 7.433e+00 5.673e+00 5.654e+00 1.977e-02 5.552e-01 -5.673e-01
84 1 2.124e+00 7.431e+00 5.665e+00 3.621e-03 -6.710e-03 4.975e-03
85 1 3.508e-01 9.200e+00 5.662e+00 2.937e-03 -1.187e-03 1.040e-03
86 1 5.674e+00 7.434e+00 5.657e+00 1.252e-02 -1.065e-02 2.278e-02
87 1 3.897e+00 9.202e+00 5.661e+00 8.430e-03 -1.391e-03 -2.985e-03
88 1 9.196e+00 7.434e+00 5.654e+00 -2.610e-01 -1.508e-02 -2.776e-01
89 1 7.434e+00 9.195e+00 5.654e+00 2.404e-02 -7.296e-04 5.946e-03
90 1 2.124e+00 5.665e+00 7.433e+00 6.657e-03 -3.431e-03 -3.380e-04
91 1 3.531e-01 5.665e+00 9.205e+00 6.734e-03 -3.464e-03 2.200e-04
92 1 5.666e+00 5.666e+00 7.432e+00 5.773e-03 -4.297e-03 3.226e-03
93 1 3.896e+00 5.663e+00 9.205e+00 5.733e-03 -4.128e-03 9.738e-04
94 1 9.202e+00 5.668e+00 7.433e+00 5.957e-03 -2.923e-03 1.237e-04
95 1 7.434e+00 5.661e+00 9.203e+00 5.578e-03 -4.608e-03 1.940e-03
96 1 3.508e-01 7.433e+00 7.430e+00 4.973e-03 -4.174e-04 4.575e-06
97 1 2.123e+00 9.204e+00 7.433e+00 5.814e-03 -2.901e-03 1.208e-05
98 1 2.124e+00 7.435e+00 9.205e+00 7.470e-03 -3.924e-03 -1.272e-03
99 1 3.539e-01 9.204e+00 9.202e+00 7.209e-03 -3.725e-03 -6.771e-04
100 1 3.897e+00 7.434e+00 7.430e+00 9.006e-03 -1.028e-03 -4.230e-03
101 1 5.665e+00 9.202e+00 7.430e+00 5.931e-03 -1.666e-03 -1.603e-03
102 1 5.661e+00 7.434e+00 9.204e+00 2.809e-03 -2.736e-03 1.834e-03
103 1 3.895e+00 9.203e+00 9.203e+00 5.498e-03 -3.812e-03 5.807e-04
104 1 7.433e+00 7.434e+00 7.443e+00 5.265e-03 -1.001e-02 1.256e-02
105 1 9.204e+00 9.202e+00 7.430e+00 6.422e-03 -2.782e-03 -2.253e-04
106 1 9.205e+00 7.433e+00 9.201e+00 6.204e-03 -2.741e-03 2.459e-03
107 1 7.436e+00 9.204e+00 9.206e+00 4.138e-03 -1.734e-03 2.268e-03
ITEM: TIMESTEP
0
ITEM: NUMBER OF ATOMS
107
ITEM: BOX BOUNDS xy xz yz pp pp pp
                     0.00000000000000e+00 1.06000000000000e+01 0.00000000000000e+00
0.00000000000000e+00	1.06000000000000e+01	0.00000000000000e+00
0.00000000000000e+00	1.06000000000000e+01	0.00000000000000e+00
ITEM: ATOMS id type x y z DisplacementX DisplacementY DisplacementZ
1 1 3.544e-01 3.546e-01 3.552e-01 5.236e-04 9.767e-04 -5.871e-03
2 1 2.123e+00 2.124e+00 3.571e-01 4.870e-04 -2.115e-04 -5.734e-03
3 1 2.123e+00 3.515e-01 2.124e+00 2.112e-04 -9.777e-04 -5.062e-03
4 1 3.533e-01 2.122e+00 2.126e+00 3.021e-03 -1.167e-03 -5.185e-03
5 1 3.895e+00 3.533e-01 3.533e-01 1.118e-04 2.812e-04 -6.947e-03
6 1 5.665e+00 2.124e+00 3.549e-01 8.576e-04 8.647e-04 -5.899e-03
7 1 5.665e+00 3.522e-01 2.125e+00 4.125e-03 -1.289e-03 -5.490e-03
8 1 3.894e+00 2.126e+00 2.124e+00 1.686e-03 -3.698e-04 -5.237e-03
9 1 7.432e+00 3.504e-01 3.573e-01 2.269e-03 3.148e-03 -8.615e-03
10 1 9.202e+00 2.125e+00 3.541e-01 1.989e-03 -2.432e-04 -6.318e-03
11 1 9.202e+00 3.495e-01 2.127e+00 2.544e-03 -5.317e-04 -3.488e-03
12 1 7.435e+00 2.124e+00 2.122e+00 -2.272e-03 -8.408e-04 -6.104e-03
13 1 3.524e-01 3.894e+00 3.543e-01 6.514e-04 -5.850e-04 -5.492e-03
14 1 2.123e+00 3.895e+00 2.125e+00 7.953e-05 -2.523e-03 -4.048e-03
15 1 3.894e+00 3.895e+00 3.540e-01 -2.779e-04 -5.522e-04 -5.323e-03
16 1 5.665e+00 3.897e+00 2.127e+00 9.538e-04 -9.535e-04 -5.220e-03
17 1 7.434e+00 3.898e+00 3.568e-01 1.355e-03 -5.788e-04 -4.184e-03
18 1 9.203e+00 3.896e+00 2.126e+00 6.854e-03 -1.900e-03 -6.525e-03
19 1 3.515e-01 3.499e-01 3.893e+00 -4.076e-04 -3.367e-04 -4.560e-03
20 1 2.125e+00 2.124e+00 3.892e+00 2.677e-03 -2.127e-03 -4.630e-03
21 1 3.896e+00 3.513e-01 3.895e+00 3.110e-03 -5.115e-03 -2.578e-03
22 1 5.661e+00 2.123e+00 3.893e+00 -6.702e-04 1.312e-03 -6.140e-03
23 1 7.435e+00 3.631e-01 3.894e+00 7.200e-03 -2.666e-04 -5.183e-03
24 1 9.207e+00 2.124e+00 3.894e+00 3.736e-04 -2.001e-03 -3.213e-03
25 1 3.498e-01 3.897e+00 3.895e+00 3.714e-03 -2.473e-03 -5.847e-03
26 1 3.896e+00 3.895e+00 3.895e+00 2.217e-03 -1.015e-03 -2.864e-03
27 1 7.434e+00 3.886e+00 3.894e+00 5.004e-03 -7.953e-03 -3.402e-03
28 1 2.124e+00 3.522e-01 5.664e+00 1.138e-03 -1.525e-03 -4.076e-03
29 1 3.532e-01 2.122e+00 5.664e+00 2.451e-03 -2.182e-03 -5.208e-03
30 1 5.665e+00 3.519e-01 5.663e+00 2.963e-03 -4.438e-03 -4.182e-03
31 1 3.896e+00 2.124e+00 5.663e+00 1.430e-03 -9.251e-04 -5.029e-03
32 1 9.201e+00 3.513e-01 5.661e+00 1.802e-03 -3.172e-03 -6.176e-03
33 1 7.435e+00 2.125e+00 5.667e+00 3.068e-03 -1.108e-03 -5.007e-03
34 1 2.122e+00 3.894e+00 5.663e+00 1.246e-03 -1.105e-03 -4.861e-03
35 1 5.667e+00 3.896e+00 5.664e+00 3.160e-03 9.660e-04 -4.542e-03
36 1 9.202e+00 3.895e+00 5.662e+00 3.663e-03 -1.471e-03 -5.796e-03
37 1 3.541e-01 3.503e-01 7.434e+00 6.712e-05 -2.576e-04 -5.955e-03
38 1 2.125e+00 2.123e+00 7.434e+00 7.997e-04 -4.278e-04 -5.583e-03
39 1 2.126e+00 3.547e-01 9.205e+00 2.982e-05 2.301e-04 -6.162e-03
40 1 3.536e-01 2.124e+00 9.205e+00 5.330e-04 1.931e-04 -6.013e-03
41 1 3.896e+00 3.527e-01 7.433e+00 5.331e-04 -5.607e-04 -5.340e-03
42 1 5.666e+00 2.125e+00 7.432e+00 1.889e-03 -6.969e-04 -5.895e-03
43 1 5.665e+00 3.526e-01 9.203e+00 -8.217e-04 2.165e-03 -8.352e-03
44 1 3.896e+00 2.123e+00 9.202e+00 1.636e-04 3.702e-04 -6.217e-03
45 1 7.433e+00 3.507e-01 7.431e+00 -6.676e-04 -7.032e-04 -6.854e-03
46 1 9.204e+00 2.125e+00 7.434e+00 2.113e-03 -8.725e-04 -6.223e-03
47 1 9.204e+00 3.523e-01 9.204e+00 -1.423e-04 2.460e-03 -7.425e-03
48 1 7.433e+00 2.124e+00 9.205e+00 7.564e-04 1.668e-03 -7.332e-03
49 1 3.515e-01 3.894e+00 7.433e+00 2.780e-04 3.889e-04 -6.349e-03
50 1 2.123e+00 3.894e+00 9.205e+00 -7.730e-05 -1.897e-05 -5.981e-03
51 1 3.894e+00 3.897e+00 7.432e+00 5.012e-04 5.538e-04 -6.130e-03
52 1 5.666e+00 3.894e+00 9.204e+00 -9.557e-04 8.453e-04 -7.179e-03
53 1 7.434e+00 3.896e+00 7.431e+00 -1.166e-03 4.051e-03 -8.965e-03
54 1 9.202e+00 3.893e+00 9.204e+00 -1.351e-03 1.949e-03 -6.798e-03
55 1 2.123e+00 5.665e+00 3.554e-01 -9.363e-04 -9.882e-04 -5.345e-03
56 1 3.509e-01 5.664e+00 2.126e+00 -1.072e-03 -5.662e-03 -2.335e-03
57 1 5.666e+00 5.665e+00 3.563e-01 -1.738e-03 -9.123e-04 -6.085e-03
58 1 3.896e+00 5.666e+00 2.124e+00 -5.746e-04 -1.646e-03 -2.124e-03
59 1 9.202e+00 5.667e+00 3.577e-01 -2.423e-03 4.706e-03 -4.972e-03
60 1 7.433e+00 5.673e+00 2.132e+00 -1.435e-03 -5.984e-03 -2.828e-02
61 1 3.506e-01 7.433e+00 3.573e-01 -1.426e-03 2.206e-03 -4.272e-03
62 1 2.122e+00 9.204e+00 3.562e-01 -1.222e-03 1.569e-04 -5.668e-03
63 1 2.124e+00 7.434e+00 2.123e+00 -1.376e-04 3.543e-03 -4.424e-03
64 1 3.519e-01 9.202e+00 2.124e+00 -1.761e-03 1.678e-03 -5.701e-03
65 1 3.898e+00 7.433e+00 3.557e-01 -2.286e-03 -3.270e-03 -7.291e-03
66 1 5.665e+00 9.202e+00 3.571e-01 -2.044e-03 2.673e-03 -1.261e-02
67 1 5.674e+00 7.434e+00 2.135e+00 5.635e-01 1.276e-03 5.571e-01
68 1 3.899e+00 9.203e+00 2.127e+00 -1.001e-03 -3.461e-03 -2.850e-03
69 1 7.434e+00 7.435e+00 3.439e-01 -1.203e-02 1.416e-02 -1.636e-02
70 1 9.202e+00 9.204e+00 3.568e-01 -6.007e-04 5.030e-03 -7.598e-03
71 1 9.196e+00 7.433e+00 2.133e+00 9.433e-03 -5.456e-03 -1.905e-02
72 1 7.435e+00 9.193e+00 2.134e+00 6.350e-03 -5.739e-01 5.568e-01
73 1 2.124e+00 5.662e+00 3.893e+00 -3.032e-03 -1.073e-03 -3.389e-03
74 1 5.673e+00 5.672e+00 3.894e+00 -1.735e-02 -5.912e-03 -1.578e-02
75 1 9.195e+00 5.674e+00 3.893e+00 -5.651e-01 5.730e-01 -2.351e-02
76 1 3.642e-01 7.434e+00 3.895e+00 4.167e-03 -1.282e-02 6.638e-03
77 1 2.122e+00 9.206e+00 3.893e+00 1.202e-03 -3.413e-04 -4.409e-03
78 1 3.885e+00 7.434e+00 3.894e+00 -8.133e-03 5.697e-03 -6.704e-03
79 1 5.674e+00 9.193e+00 3.896e+00 2.140e-03 -1.161e-03 -1.340e-02
80 1 9.194e+00 9.194e+00 3.894e+00 -1.562e-02 1.208e-02 -1.962e-02
81 1 3.515e-01 5.666e+00 5.663e+00 -1.627e-03 2.263e-03 -5.505e-03
82 1 3.895e+00 5.665e+00 5.665e+00 3.261e-03 -3.098e-03 -3.280e-03
83 1 7.433e+00 5.673e+00 5.654e+00 -7.937e-03 -1.590e-02 -4.075e-03
84 1 2.124e+00 7.431e+00 5.665e+00 -1.034e-03 -1.167e-03 -2.262e-03
85 1 3.508e-01 9.200e+00 5.662e+00 -2.244e-03 -1.566e-03 -2.964e-03
86 1 5.674e+00 7.434e+00 5.657e+00 9.956e-03 1.846e-03 -1.612e-02
87 1 3.897e+00 9.202e+00 5.661e+00 1.695e-03 -3.331e-03 -2.058e-03
88 1 9.196e+00 7.434e+00 5.654e+00 2.618e-03 1.178e-02 -8.480e-03
89 1 7.434e+00 9.195e+00 5.654e+00 -2.413e-03 -8.874e-04 -6.331e-03
90 1 2.124e+00 5.665e+00 7.433e+00 5.010e-04 -1.390e-04 -5.210e-03
91 1 3.531e-01 5.665e+00 9.205e+00 -1.393e-03 1.594e-03 -6.326e-03
92 1 5.666e+00 5.666e+00 7.432e+00 -5.258e-03 6.748e-03 -9.252e-03
93 1 3.896e+00 5.663e+00 9.205e+00 -2.292e-03 1.328e-03 -7.092e-03
94 1 9.202e+00 5.668e+00 7.433e+00 -3.321e-03 2.362e-03 -1.022e-02
95 1 7.434e+00 5.661e+00 9.203e+00 -3.757e-04 4.709e-04 -7.735e-03
96 1 3.508e-01 7.433e+00 7.430e+00 -4.426e-03 3.850e-03 -8.650e-03
97 1 2.123e+00 9.204e+00 7.433e+00 -2.858e-04 -8.693e-04 -4.493e-03
98 1 2.124e+00 7.435e+00 9.205e+00 -1.550e-03 2.131e-04 -7.349e-03
99 1 3.539e-01 9.204e+00 9.202e+00 -5.668e-04 1.859e-03 -6.757e-03
100 1 3.897e+00 7.434e+00 7.430e+00 2.251e-04 7.080e-04 -5.168e-03
101 1 5.665e+00 9.202e+00 7.430e+00 -2.161e-03 3.358e-03 -6.279e-03
102 1 5.661e+00 7.434e+00 9.204e+00 -2.808e-03 6.016e-03 -4.438e-03
103 1 3.895e+00 9.203e+00 9.203e+00 -1.730e-03 2.071e-03 -8.351e-03
104 1 7.433e+00 7.434e+00 7.443e+00 -3.345e-04 1.928e-03 -5.833e-03