ITEM: TIMESTEP
0
ITEM: NUMBER OF ATOMS
4
ITEM: BOX BOUNDS xy xz yz pp pp pp
                     -5.00000000000000e-01 5.00000000000000e-01 0.00000000000000e+00
-5.00000000000000e-01	5.00000000000000e-01	0.00000000000000e+00
-5.00000000000000e-01	5.00000000000000e-01	0.00000000000000e+00
ITEM: ATOMS id type x y DisplacementX DisplacementY
1 1 0.000e+00 0.000e+00 3.222e-03 2.084e-01
2 1 0.000e+00 -2.000e-01 2.910e-03 6.487e-03
3 1 2.000e-01 0.000e+00 5.180e-03 1.097e-02
4 1 -2.000e-01 0.000e+00 2.919e-03 6.166e-03
ITEM: TIMESTEP
0
ITEM: NUMBER OF ATOMS
4
ITEM: BOX BOUNDS xy xz yz pp pp pp
                     -5.00000000000000e-01 5.00000000000000e-01 0.00000000000000e+00
-5.00000000000000e-01	5.00000000000000e-01	0.00000000000000e+00
-5.00000000000000e-01	5.00000000000000e-01	0.00000000000000e+00
ITEM: ATOMS id type x y DisplacementX DisplacementY
5 1 -2.000e-01 0.000e+00 2.499e-03 6.033e-03
6 1 0.000e+00 0.000e+00 2.029e-01 8.038e-03
7 1 0.000e+00 2.000e-01 3.072e-03 7.981e-03
8 1 0.000e+00 -2.000e-01 2.268e-03 5.077e-03
ITEM: TIMESTEP
0
ITEM: NUMBER OF ATOMS
4
ITEM: BOX BOUNDS xy xz yz pp pp pp
                     -5.00000000000000e-01 5.00000000000000e-01 0.00000000000000e+00
-5.00000000000000e-01	5.00000000000000e-01	0.00000000000000e+00
-5.00000000000000e-01	5.00000000000000e-01	0.00000000000000e+00
ITEM: ATOMS id type x y DisplacementX DisplacementY
9 1 0.000e+00 0.000e+00 -1.967e-01 7.556e-03
10 1 0.000e+00 -2.000e-01 1.648e-03 7.741e-03
11 1 2.000e-01 0.000e+00 2.490e-03 6.859e-03
12 1 0.000e+00 2.000e-01 2.303e-03 3.875e-03
ITEM: TIMESTEP
0
ITEM: NUMBER OF ATOMS
4
ITEM: BOX BOUNDS xy xz yz pp pp pp
                     -5.00000000000000e-01 5.00000000000000e-01 0.00000000000000e+00
-5.00000000000000e-01	5.00000000000000e-01	0.00000000000000e+00
-5.00000000000000e-01	5.00000000000000e-01	0.00000000000000e+00
ITEM: ATOMS id type x y DisplacementX DisplacementY
13 1 0.000e+00 2.000e-01 2.539e-03 5.123e-03
14 1 0.000e+00 0.000e+00 4.004e-03 -1.909e-01
15 1 2.000e-01 0.000e+00 3.697e-03 6.395e-03
16 1 -2.000e-01 0.000e+00 2.466e-03 7.074e-03
ITEM: TIMESTEP
0
ITEM: NUMBER OF ATOMS
4
ITEM: BOX BOUNDS xy xz yz pp pp pp
                     -5.00000000000000e-01 5.00000000000000e-01 0.00000000000000e+00
-5.00000000000000e-01	5.00000000000000e-01	0.00000000000000e+00
-5.00000000000000e-01	5.00000000000000e-01	0.00000000000000e+00
ITEM: ATOMS id type x y DisplacementX DisplacementY
17 1 -2.000e-01 0.000e+00 2.466e-03 7.074e-03
18 1 0.000e+00 0.000e+00 4.004e-03 -1.909e-01
19 1 0.000e+00 2.000e-01 2.539e-03 5.123e-03
20 1 2.000e-01 0.000e+00 3.697e-03 6.395e-03
ITEM: TIMESTEP
0
ITEM: NUMBER OF ATOMS
4
ITEM: BOX BOUNDS xy xz yz pp pp pp
                     -5.00000000000000e-01 5.00000000000000e-01 0.00000000000000e+00
-5.00000000000000e-01	5.00000000000000e-01	0.00000000000000e+00
-5.00000000000000e-01	5.00000000000000e-01	0.00000000000000e+00
ITEM: ATOMS id type x y DisplacementX DisplacementY
21 1 0.000e+00 -2.000e-01 2.910e-03 6.487e-03
22 1 0.000e+00 0.000e+00 3.222e-03 2.084e-01
23 1 -2.000e-01 0.000e+00 2.919e-03 6.166e-03
24 1 2.000e-01 0.000e+00 5.180e-03 1.097e-02
