ITEM: TIMESTEP
0
ITEM: NUMBER OF ATOMS
99
ITEM: BOX BOUNDS xy xz yz pp pp pp
                     -5.00000000000000e-01 5.00000000000000e-01 0.00000000000000e+00
-5.00000000000000e-01	5.00000000000000e-01	0.00000000000000e+00
-5.00000000000000e-01	5.00000000000000e-01	0.00000000000000e+00
ITEM: ATOMS id type x y z DisplacementX DisplacementY DisplacementZ
1 1 -4.000e-01 1.000e-01 0.000e+00 -2.773e-04 3.038e-04 -1.109e-03
2 1 5.000e-01 5.000e-01 0.000e+00 7.460e-05 -4.231e-05 -7.159e-04
3 1 3.000e-01 -2.000e-01 0.000e+00 -5.762e-05 -1.463e-03 2.387e-04
4 1 3.000e-01 4.000e-01 0.000e+00 -1.579e-03 -1.362e-03 1.270e-03
5 1 -1.000e-01 5.000e-01 0.000e+00 7.624e-04 -3.909e-04 -1.194e-03
6 1 -3.000e-01 1.000e-01 0.000e+00 7.527e-04 1.713e-03 -6.965e-04
7 1 3.000e-01 1.000e-01 0.000e+00 2.430e-04 7.195e-04 7.731e-04
8 1 0.000e+00 0.000e+00 0.000e+00 9.612e-02 1.469e-03 -2.818e-03
9 1 4.000e-01 4.000e-01 0.000e+00 1.552e-03 2.382e-04 1.602e-03
10 1 -2.000e-01 1.000e-01 0.000e+00 3.034e-04 1.543e-03 2.437e-04
11 1 -3.000e-01 3.000e-01 0.000e+00 3.391e-04 1.127e-03 -9.950e-06
12 1 0.000e+00 5.000e-01 0.000e+00 1.818e-03 -8.176e-05 -1.909e-03
13 1 5.000e-01 1.000e-01 0.000e+00 1.521e-03 5.876e-04 -1.235e-03
14 1 -3.000e-01 -2.000e-01 0.000e+00 -5.401e-04 1.497e-03 1.011e-04
15 1 -3.000e-01 -4.000e-01 0.000e+00 2.955e-04 -1.834e-03 -7.617e-04
16 1 4.000e-01 0.000e+00 0.000e+00 8.645e-04 -3.917e-04 1.436e-03
17 1 -2.000e-01 3.000e-01 0.000e+00 7.875e-05 9.684e-04 -8.702e-04
18 1 0.000e+00 -1.000e-01 0.000e+00 -2.032e-03 -6.428e-04 2.098e-03
19 1 -1.000e-01 -1.000e-01 0.000e+00 -1.761e-04 1.144e-03 4.753e-04
20 1 5.000e-01 4.000e-01 0.000e+00 7.791e-04 4.378e-04 -3.763e-04
21 1 5.000e-01 3.000e-01 0.000e+00 -4.963e-04 -7.587e-04 -1.029e-03
22 1 4.000e-01 -1.000e-01 0.000e+00 1.575e-03 1.062e-03 1.195e-03
23 1 2.000e-01 3.000e-01 0.000e+00 9.901e-04 1.967e-04 -1.085e-03
24 1 2.000e-01 2.000e-01 0.000e+00 1.062e-03 -1.731e-03 -1.834e-03
25 1 0.000e+00 2.000e-01 0.000e+00 -1.715e-03 2.314e-04 -1.655e-03
26 1 -4.000e-01 4.000e-01 0.000e+00 -1.002e-03 8.433e-04 -1.878e-03
27 1 2.000e-01 -3.000e-01 0.000e+00 1.997e-03 2.269e-03 3.856e-04
28 1 -3.000e-01 -3.000e-01 0.000e+00 -4.531e-05 6.404e-04 -1.810e-03
29 1 2.000e-01 -1.000e-01 0.000e+00 4.028e-03 -2.913e-05 -1.663e-04
30 1 0.000e+00 -3.000e-01 0.000e+00 -6.365e-04 3.769e-04 7.452e-04
31 1 -4.000e-01 -1.000e-01 0.000e+00 -1.023e-03 5.696e-04 -6.360e-04
32 1 -1.000e-01 -3.000e-01 0.000e+00 -8.149e-04 -6.129e-04 -1.123e-03
33 1 -1.000e-01 0.000e+00 0.000e+00 -7.372e-04 9.944e-04 -1.335e-03
34 1 0.000e+00 -2.000e-01 0.000e+00 -7.242e-04 2.826e-04 -6.257e-04
35 1 -2.000e-01 -3.000e-01 0.000e+00 3.990e-04 9.059e-04 -5.977e-04
36 1 -2.000e-01 -2.000e-01 0.000e+00 1.713e-03 2.996e-04 -1.934e-04
37 1 -3.000e-01 -1.000e-01 0.000e+00 -1.027e-03 -1.754e-04 8.443e-04
38 1 1.000e-01 -3.000e-01 0.000e+00 7.410e-04 9.088e-05 -9.332e-05
39 1 2.000e-01 1.000e-01 0.000e+00 5.412e-05 -1.429e-03 -4.563e-04
40 1 0.000e+00 3.000e-01 0.000e+00 7.079e-04 -2.059e-04 -9.629e-04
41 1 3.000e-01 5.000e-01 0.000e+00 4.794e-04 1.735e-04 -8.830e-04
42 1 5.000e-01 -4.000e-01 0.000e+00 5.531e-05 7.647e-04 5.340e-04
43 1 -2.000e-01 4.000e-01 0.000e+00 1.155e-03 7.911e-04 -6.178e-04
44 1 5.000e-01 0.000e+00 0.000e+00 1.326e-03 -2.319e-03 1.930e-03
45 1 3.000e-01 -4.000e-01 0.000e+00 2.069e-03 8.653e-04 6.903e-04
46 1 -2.000e-01 2.000e-01 0.000e+00 1.051e-03 9.496e-04 1.250e-04
47 1 0.000e+00 1.000e-01 0.000e+00 -1.285e-03 2.827e-03 -2.670e-03
48 1 5.000e-01 -3.000e-01 0.000e+00 4.564e-04 -1.917e-03 -1.755e-03
49 1 -4.000e-01 0.000e+00 0.000e+00 1.141e-03 -5.647e-04 -1.815e-03
50 1 0.000e+00 4.000e-01 0.000e+00 -1.433e-03 -8.798e-05 -2.788e-04
51 1 1.000e-01 -1.000e-01 0.000e+00 1.543e-03 2.386e-03 3.339e-03
52 1 3.000e-01 3.000e-01 0.000e+00 -1.403e-04 -1.635e-03 -1.159e-03
53 1 -2.000e-01 5.000e-01 0.000e+00 1.014e-03 -1.981e-03 -5.423e-04
54 1 4.000e-01 -3.000e-01 0.000e+00 -3.166e-04 6.092e-04 -4.952e-04
55 1 -3.000e-01 2.000e-01 0.000e+00 -6.299e-04 3.501e-04 2.839e-04
56 1 3.000e-01 -1.000e-01 0.000e+00 -1.518e-03 1.159e-04 -1.276e-03
57 1 1.000e-01 1.000e-01 0.000e+00 -2.955e-03 2.930e-03 -6.189e-03
58 1 -1.000e-01 -4.000e-01 0.000e+00 -2.414e-04 5.828e-04 -1.743e-03
59 1 1.000e-01 -2.000e-01 0.000e+00 1.115e-03 9.496e-04 1.095e-03
60 1 -2.000e-01 0.000e+00 0.000e+00 -1.546e-03 -1.217e-03 9.946e-04
61 1 -3.000e-01 5.000e-01 0.000e+00 1.710e-04 9.943e-04 7.555e-04
62 1 2.000e-01 -4.000e-01 0.000e+00 -1.819e-03 -1.591e-03 -1.429e-04
63 1 -4.000e-01 2.000e-01 0.000e+00 4.630e-04 4.338e-04 8.988e-04
64 1 -1.000e-01 4.000e-01 0.000e+00 -6.267e-04 2.945e-04 -1.813e-03
65 1 -1.000e-01 -2.000e-01 0.000e+00 1.363e-03 -9.702e-04 -1.281e-03
66 1 1.000e-01 3.000e-01 0.000e+00 1.246e-04 -5.548e-04 1.058e-03
67 1 1.000e-01 4.000e-01 0.000e+00 -7.303e-04 1.126e-03 -4.642e-04
68 1 -4.000e-01 5.000e-01 0.000e+00 1.376e-03 -1.135e-04 -3.884e-04
69 1 -3.000e-01 0.000e+00 0.000e+00 6.629e-04 -1.445e-03 -2.831e-04
70 1 -4.000e-01 -2.000e-01 0.000e+00 1.665e-03 -3.611e-04 -7.266e-04
71 1 2.000e-01 -2.000e-01 0.000e+00 5.022e-04 4.555e-04 -1.209e-04
72 1 4.000e-01 5.000e-01 0.000e+00 3.530e-04 -7.703e-04 3.427e-04
73 1 -3.000e-01 4.000e-01 0.000e+00 1.859e-03 1.144e-03 1.457e-04
74 1 5.000e-01 2.000e-01 0.000e+00 7.785e-04 -1.027e-03 1.735e-04
75 1 -4.000e-01 -3.000e-01 0.000e+00 -6.197e-04 8.848e-04 8.215e-05
76 1 3.000e-01 -3.000e-01 0.000e+00 -1.319e-03 4.018e-04 1.214e-03
77 1 3.000e-01 0.000e+00 0.000e+00 -8.193e-04 -4.615e-04 1.040e-03
78 1 -1.000e-01 3.000e-01 0.000e+00 3.950e-04 3.290e-04 4.298e-04
79 1 5.000e-01 -2.000e-01 0.000e+00 1.157e-03 9.298e-04 -6.691e-04
80 1 4.000e-01 -2.000e-01 0.000e+00 2.417e-03 -1.141e-03 3.280e-04
81 1 -2.000e-01 -1.000e-01 0.000e+00 -8.946e-05 1.555e-03 -1.413e-03
82 1 4.000e-01 -4.000e-01 0.000e+00 4.041e-04 -8.810e-04 1.039e-03
83 1 2.000e-01 4.000e-01 0.000e+00 -1.016e-03 9.179e-04 -1.229e-03
84 1 5.000e-01 -1.000e-01 0.000e+00 2.420e-04 6.711e-04 8.328e-04
85 1 1.000e-01 5.000e-01 0.000e+00 -1.045e-03 -2.123e-03 -4.052e-04
86 1 -4.000e-01 3.000e-01 0.000e+00 5.423e-05 -5.719e-04 6.945e-04
87 1 1.000e-01 2.000e-01 0.000e+00 -1.892e-03 1.025e-03 1.138e-03
88 1 -4.000e-01 -4.000e-01 0.000e+00 3.586e-05 8.605e-04 -1.588e-03
89 1 3.000e-01 2.000e-01 0.000e+00 4.923e-04 4.730e-04 -2.602e-03
90 1 2.000e-01 5.000e-01 0.000e+00 1.479e-03 1.084e-03 4.604e-04
91 1 4.000e-01 2.000e-01 0.000e+00 2.385e-03 -1.377e-03 1.432e-05
92 1 -1.000e-01 1.000e-01 0.000e+00 9.260e-04 -6.046e-04 -1.980e-03
93 1 -1.000e-01 2.000e-01 0.000e+00 -2.888e-04 1.230e-03 1.538e-03
94 1 0.000e+00 -4.000e-01 0.000e+00 1.777e-03 -6.107e-04 -2.469e-04
95 1 -2.000e-01 -4.000e-01 0.000e+00 8.974e-04 5.584e-05 -6.661e-04
96 1 1.000e-01 -4.000e-01 0.000e+00 1.645e-04 -1.623e-03 -8.288e-04
97 1 2.000e-01 0.000e+00 0.000e+00 3.845e-03 -2.405e-03 1.068e-03
98 1 4.000e-01 1.000e-01 0.000e+00 1.575e-03 2.352e-03 -2.962e-04
99 1 4.000e-01 3.000e-01 0.000e+00 2.069e-03 5.715e-04 1.466e-03
ITEM: TIMESTEP
0
ITEM: NUMBER OF ATOMS
99
ITEM: BOX BOUNDS xy xz yz pp pp pp
                     -5.00000000000000e-01 5.00000000000000e-01 0.00000000000000e+00
-5.00000000000000e-01	5.00000000000000e-01	0.00000000000000e+00
-5.00000000000000e-01	5.00000000000000e-01	0.00000000000000e+00
ITEM: ATOMS id type x y z DisplacementX DisplacementY DisplacementZ
100 1 5.000e-01 2.000e-01 0.000e+00 -1.054e-04 1.059e-03 -1.168e-03
101 1 4.000e-01 -4.000e-01 0.000e+00 7.601e-04 -1.424e-03 1.244e-03
102 1 2.000e-01 -1.000e-01 0.000e+00 5.834e-04 8.458e-04 -3.794e-04
103 1 2.000e-01 5.000e-01 0.000e+00 1.366e-04 1.557e-03 3.399e-04
104 1 -2.000e-01 -4.000e-01 0.000e+00 2.302e-03 -3.693e-04 5.522e-04
105 1 -4.000e-01 2.000e-01 0.000e+00 -1.300e-04 -4.457e-04 -5.866e-04
106 1 2.000e-01 2.000e-01 0.000e+00 -1.349e-03 -6.622e-04 3.703e-04
107 1 -1.000e-01 1.000e-01 0.000e+00 -4.127e-03 1.150e-03 -6.592e-04
108 1 3.000e-01 5.000e-01 0.000e+00 -1.015e-03 -4.411e-04 -1.761e-03
109 1 -3.000e-01 2.000e-01 0.000e+00 4.268e-04 -1.795e-04 -3.807e-04
110 1 -4.000e-01 4.000e-01 0.000e+00 1.293e-03 1.282e-03 1.100e-03
111 1 -1.000e-01 -4.000e-01 0.000e+00 -6.851e-04 1.032e-03 -1.284e-03
112 1 4.000e-01 2.000e-01 0.000e+00 3.843e-04 -8.096e-04 2.085e-03
113 1 -4.000e-01 -1.000e-01 0.000e+00 2.495e-04 -4.724e-04 -1.181e-03
114 1 -4.000e-01 -3.000e-01 0.000e+00 2.107e-04 1.830e-04 6.710e-04
115 1 3.000e-01 1.000e-01 0.000e+00 3.985e-04 -7.071e-04 9.440e-04
116 1 -3.000e-01 4.000e-01 0.000e+00 1.603e-03 -1.673e-03 1.195e-03
117 1 -1.000e-01 0.000e+00 0.000e+00 -2.246e-03 -2.869e-04 -4.801e-04
118 1 -2.000e-01 0.000e+00 0.000e+00 -4.147e-04 -1.893e-03 1.409e-03
119 1 4.000e-01 5.000e-01 0.000e+00 1.242e-03 -5.126e-04 -1.130e-03
120 1 4.000e-01 4.000e-01 0.000e+00 2.250e-04 2.812e-04 -4.390e-04
121 1 3.000e-01 0.000e+00 0.000e+00 -9.002e-04 2.093e-03 -4.505e-04
122 1 1.000e-01 4.000e-01 0.000e+00 -1.508e-04 -1.208e-04 -7.500e-04
123 1 1.000e-01 3.000e-01 0.000e+00 -2.250e-05 7.243e-04 5.508e-04
124 1 -1.000e-01 3.000e-01 0.000e+00 -8.448e-04 -3.585e-04 1.433e-04
125 1 5.000e-01 5.000e-01 0.000e+00 5.884e-04 -1.434e-03 1.604e-03
126 1 1.000e-01 -2.000e-01 0.000e+00 -4.793e-04 1.106e-03 1.001e-03
127 1 -4.000e-01 -2.000e-01 0.000e+00 -1.412e-03 -2.096e-04 -8.372e-04
128 1 1.000e-01 0.000e+00 0.000e+00 4.564e-03 -2.506e-03 8.000e-04
129 1 -1.000e-01 -2.000e-01 0.000e+00 -3.051e-04 9.073e-04 1.340e-04
130 1 5.000e-01 0.000e+00 0.000e+00 -3.051e-04 -1.570e-03 -8.568e-04
131 1 -2.000e-01 -2.000e-01 0.000e+00 -1.550e-03 -1.165e-03 1.266e-03
132 1 -2.000e-01 1.000e-01 0.000e+00 -6.365e-04 1.580e-03 5.276e-04
133 1 -1.000e-01 -1.000e-01 0.000e+00 1.829e-04 -8.508e-04 -1.600e-03
134 1 -3.000e-01 -2.000e-01 0.000e+00 -3.028e-04 3.606e-04 1.818e-03
135 1 -3.000e-01 -1.000e-01 0.000e+00 2.380e-05 -1.258e-03 8.717e-04
136 1 -4.000e-01 0.000e+00 0.000e+00 -9.889e-04 -1.651e-04 9.179e-04
137 1 0.000e+00 -2.000e-01 0.000e+00 -3.306e-04 -2.312e-04 6.358e-04
138 1 1.000e-01 2.000e-01 0.000e+00 1.555e-03 -7.369e-04 -9.454e-04
139 1 -1.000e-01 4.000e-01 0.000e+00 -4.223e-04 1.285e-04 -6.570e-04
140 1 2.000e-01 -4.000e-01 0.000e+00 -1.511e-04 -1.917e-03 2.847e-04
141 1 4.000e-01 -3.000e-01 0.000e+00 -1.419e-05 -5.517e-04 1.053e-03
142 1 -3.000e-01 5.000e-01 0.000e+00 5.083e-05 7.272e-04 9.334e-05
143 1 4.000e-01 1.000e-01 0.000e+00 3.305e-04 -8.426e-04 1.446e-03
144 1 2.000e-01 -3.000e-01 0.000e+00 -3.040e-04 -4.177e-04 2.291e-03
145 1 -3.000e-01 3.000e-01 0.000e+00 -1.292e-03 1.439e-04 1.775e-04
146 1 -1.000e-01 2.000e-01 0.000e+00 -3.173e-03 3.553e-03 -1.482e-03
147 1 4.000e-01 -2.000e-01 0.000e+00 1.309e-03 8.313e-04 -8.998e-04
148 1 5.000e-01 1.000e-01 0.000e+00 6.968e-04 3.161e-04 1.623e-03
149 1 -1.000e-01 5.000e-01 0.000e+00 2.378e-04 9.269e-04 1.244e-03
150 1 0.000e+00 0.000e+00 0.000e+00 4.500e-03 1.023e-01 3.068e-03
151 1 2.000e-01 4.000e-01 0.000e+00 -7.292e-05 -8.232e-04 2.147e-05
152 1 -3.000e-01 -4.000e-01 0.000e+00 2.702e-03 1.627e-04 7.695e-04
153 1 3.000e-01 -2.000e-01 0.000e+00 9.668e-04 5.072e-04 1.562e-03
154 1 -4.000e-01 3.000e-01 0.000e+00 8.186e-04 -1.036e-03 6.163e-04
155 1 2.000e-01 0.000e+00 0.000e+00 -8.205e-04 5.274e-04 -1.189e-03
156 1 0.000e+00 2.000e-01 0.000e+00 -7.999e-04 2.139e-03 -3.590e-03
157 1 -2.000e-01 -3.000e-01 0.000e+00 -8.546e-04 -2.482e-04 2.933e-04
158 1 0.000e+00 -1.000e-01 0.000e+00 1.223e-04 -4.648e-04 2.258e-03
159 1 -3.000e-01 1.000e-01 0.000e+00 -1.072e-03 -1.353e-03 9.971e-04
160 1 -4.000e-01 -4.000e-01 0.000e+00 6.109e-04 -1.690e-03 6.167e-05
161 1 1.000e-01 -3.000e-01 0.000e+00 -1.514e-04 -4.826e-05 -7.777e-04
162 1 5.000e-01 3.000e-01 0.000e+00 8.900e-04 9.510e-04 -2.531e-04
163 1 -2.000e-01 5.000e-01 0.000e+00 3.906e-04 -3.676e-04 -3.372e-04
164 1 -2.000e-01 -1.000e-01 0.000e+00 -1.119e-03 -3.705e-04 8.967e-04
165 1 0.000e+00 4.000e-01 0.000e+00 5.937e-04 -1.640e-03 3.319e-04
166 1 0.000e+00 5.000e-01 0.000e+00 -2.084e-05 6.300e-04 -1.797e-03
167 1 5.000e-01 -4.000e-01 0.000e+00 6.391e-04 1.240e-03 2.699e-04
168 1 -4.000e-01 1.000e-01 0.000e+00 7.797e-04 -4.069e-04 -7.519e-04
169 1 5.000e-01 -1.000e-01 0.000e+00 4.247e-04 -1.676e-03 -6.628e-04
170 1 1.000e-01 -1.000e-01 0.000e+00 1.938e-04 6.927e-04 -4.852e-04
171 1 3.000e-01 -4.000e-01 0.000e+00 1.231e-04 -1.319e-05 -1.157e-03
172 1 -4.000e-01 5.000e-01 0.000e+00 -8.571e-04 -1.406e-04 1.455e-03
173 1 4.000e-01 3.000e-01 0.000e+00 -1.287e-03 -1.378e-03 -1.518e-03
174 1 5.000e-01 -2.000e-01 0.000e+00 4.779e-05 -1.484e-03 -1.009e-03
175 1 2.000e-01 -2.000e-01 0.000e+00 -7.912e-04 1.792e-03 -7.384e-05
176 1 2.000e-01 1.000e-01 0.000e+00 8.997e-04 -7.547e-04 1.802e-04
177 1 -2.000e-01 4.000e-01 0.000e+00 1.619e-04 -2.477e-05 -2.183e-03
178 1 4.000e-01 -1.000e-01 0.000e+00 -7.823e-04 -1.910e-03 1.154e-03
179 1 3.000e-01 -1.000e-01 0.000e+00 -6.456e-04 3.940e-04 2.513e-04
180 1 -3.000e-01 0.000e+00 0.000e+00 -1.079e-03 4.806e-04 -1.263e-03
181 1 3.000e-01 -3.000e-01 0.000e+00 2.407e-03 3.080e-04 1.202e-03
182 1 1.000e-01 5.000e-01 0.000e+00 7.529e-04 4.124e-04 4.986e-04
183 1 4.000e-01 0.000e+00 0.000e+00 6.407e-04 7.292e-04 4.122e-04
184 1 0.000e+00 -4.000e-01 0.000e+00 1.281e-03 -1.865e-04 -6.837e-04
185 1 5.000e-01 4.000e-01 0.000e+00 -1.634e-03 -1.234e-03 1.440e-04
186 1 0.000e+00 3.000e-01 0.000e+00 -1.713e-03 -3.749e-04 1.168e-03
187 1 5.000e-01 -3.000e-01 0.000e+00 -6.691e-04 4.466e-04 -2.616e-03
188 1 2.000e-01 3.000e-01 0.000e+00 2.207e-03 4.887e-04 5.339e-04
189 1 1.000e-01 -4.000e-01 0.000e+00 7.440e-04 -5.127e-04 2.226e-04
190 1 3.000e-01 3.000e-01 0.000e+00 -7.427e-05 1.219e-03 4.316e-04
191 1 -2.000e-01 2.000e-01 0.000e+00 3.574e-04 3.678e-05 2.482e-04
192 1 -2.000e-01 3.000e-01 0.000e+00 7.317e-04 2.430e-04 1.182e-03
193 1 -1.000e-01 -3.000e-01 0.000e+00 -3.155e-04 -1.262e-03 -1.003e-03
194 1 -3.000e-01 -3.000e-01 0.000e+00 1.850e-03 1.977e-05 -5.128e-04
195 1 0.000e+00 -3.000e-01 0.000e+00 -1.515e-03 -4.994e-04 -1.330e-03
196 1 1.000e-01 1.000e-01 0.000e+00 4.227e-03 -4.228e-03 8.289e-04
197 1 3.000e-01 2.000e-01 0.000e+00 -1.770e-03 -2.311e-04 -2.913e-04
198 1 3.000e-01 4.000e-01 0.000e+00 2.236e-04 1.773e-03 -5.050e-04
