ITEM: TIMESTEP
0
ITEM: NUMBER OF ATOMS
107
ITEM: BOX BOUNDS xy xz yz pp pp pp
                     0.00000000000000e+00 1.06000000000000e+01 0.00000000000000e+00
0.00000000000000e+00	1.06000000000000e+01	0.00000000000000e+00
0.00000000000000e+00	1.06000000000000e+01	0.00000000000000e+00
ITEM: ATOMS id type x y z DisplacementX DisplacementY DisplacementZ
1 1 3.526e-01 3.520e-01 3.556e-01 3.370e-03 -5.030e-03 -4.329e-03
2 1 2.126e+00 2.125e+00 3.545e-01 3.112e-03 -5.944e-03 -5.019e-03
3 1 2.125e+00 3.522e-01 2.124e+00 3.117e-03 -2.948e-04 8.035e-05
4 1 3.522e-01 2.122e+00 2.127e+00 3.448e-03 -7.577e-03 -5.969e-03
5 1 3.895e+00 3.533e-01 3.558e-01 2.852e-03 -3.922e-03 -3.827e-03
6 1 5.665e+00 2.125e+00 3.539e-01 2.948e-03 -7.932e-03 -7.584e-03
7 1 5.666e+00 3.527e-01 2.124e+00 2.656e-03 -8.642e-03 -9.900e-03
8 1 3.895e+00 2.124e+00 2.125e+00 2.982e-03 -6.781e-03 -6.631e-03
9 1 7.432e+00 3.502e-01 3.576e-01 3.051e-03 -4.430e-03 -5.685e-03
10 1 9.202e+00 2.123e+00 3.540e-01 3.182e-03 -1.012e-02 -8.574e-03
11 1 9.202e+00 3.503e-01 2.127e+00 3.778e-03 -6.219e-03 -4.902e-03
12 1 7.435e+00 2.123e+00 2.122e+00 2.872e-03 -5.074e-03 -7.739e-03
13 1 3.522e-01 3.896e+00 3.553e-01 3.021e-03 -7.991e-03 -6.194e-03
14 1 2.125e+00 3.895e+00 2.125e+00 2.871e-03 -4.034e-03 -2.618e-03
15 1 3.893e+00 3.896e+00 3.548e-01 3.021e-03 -6.563e-03 -5.997e-03
16 1 5.666e+00 3.897e+00 2.126e+00 2.957e-03 -3.147e-03 -4.034e-03
17 1 7.434e+00 3.898e+00 3.581e-01 3.196e-03 -1.308e-02 -1.106e-02
18 1 9.203e+00 3.895e+00 2.125e+00 3.247e-03 -1.224e-02 -1.048e-02
19 1 3.507e-01 3.497e-01 3.894e+00 3.606e-03 -6.542e-03 -5.440e-03
20 1 2.122e+00 2.123e+00 3.895e+00 3.330e-03 -6.385e-03 -4.036e-03
21 1 3.898e+00 3.524e-01 3.894e+00 2.230e-03 -4.817e-03 -5.517e-03
22 1 5.662e+00 2.125e+00 3.894e+00 3.363e-03 -6.190e-03 -6.363e-03
23 1 7.434e+00 3.614e-01 3.895e+00 4.916e-03 7.668e-03 1.187e-02
24 1 9.204e+00 2.125e+00 3.895e+00 2.364e-03 1.715e-04 -4.350e-03
25 1 3.489e-01 3.897e+00 3.892e+00 3.197e-03 -3.778e-03 -5.367e-04
26 1 3.898e+00 3.897e+00 3.893e+00 3.727e-03 -1.658e-04 -1.971e-04
27 1 7.434e+00 3.883e+00 3.895e+00 2.111e-03 -3.016e-02 -3.638e-02
28 1 2.124e+00 3.513e-01 5.663e+00 3.372e-03 -5.398e-03 -4.541e-03
29 1 3.529e-01 2.125e+00 5.662e+00 3.242e-03 -7.167e-03 -6.536e-03
30 1 5.667e+00 3.515e-01 5.664e+00 2.166e-03 -1.214e-02 -1.236e-02
31 1 3.893e+00 2.123e+00 5.663e+00 3.022e-03 -7.527e-03 -7.200e-03
32 1 9.203e+00 3.512e-01 5.662e+00 2.934e-03 -6.524e-03 -4.763e-03
33 1 7.432e+00 2.124e+00 5.667e+00 3.114e-03 9.196e-04 -1.620e-03
34 1 2.124e+00 3.893e+00 5.663e+00 2.958e-03 -2.231e-03 -1.484e-03
35 1 5.666e+00 3.897e+00 5.663e+00 3.816e-03 -5.597e-03 -6.679e-03
36 1 9.200e+00 3.896e+00 5.662e+00 3.438e-03 -9.728e-03 -1.094e-02
37 1 3.523e-01 3.531e-01 7.432e+00 3.143e-03 -7.528e-03 -7.152e-03
38 1 2.126e+00 2.124e+00 7.434e+00 3.139e-03 -6.300e-03 -5.597e-03
39 1 2.123e+00 3.525e-01 9.204e+00 3.136e-03 -5.854e-03 -5.180e-03
40 1 3.532e-01 2.124e+00 9.203e+00 3.168e-03 -7.217e-03 -6.319e-03
41 1 3.896e+00 3.527e-01 7.432e+00 3.147e-03 -9.409e-03 -8.320e-03
42 1 5.665e+00 2.124e+00 7.432e+00 3.027e-03 -9.381e-03 -9.226e-03
43 1 5.665e+00 3.527e-01 9.202e+00 3.209e-03 -8.788e-03 -8.244e-03
44 1 3.896e+00 2.123e+00 9.204e+00 3.019e-03 -7.087e-03 -6.515e-03
45 1 7.434e+00 3.512e-01 7.431e+00 2.700e-03 -1.937e-02 -1.891e-02
46 1 9.203e+00 2.124e+00 7.431e+00 3.198e-03 -9.112e-03 -8.854e-03
47 1 9.202e+00 3.535e-01 9.205e+00 3.271e-03 -7.636e-03 -7.404e-03
48 1 7.433e+00 2.123e+00 9.202e+00 3.044e-03 -1.300e-02 -1.113e-02
49 1 3.533e-01 3.893e+00 7.434e+00 3.157e-03 -5.672e-03 -4.479e-03
50 1 2.124e+00 3.895e+00 9.203e+00 3.018e-03 -6.059e-03 -5.241e-03
51 1 3.894e+00 3.894e+00 7.431e+00 3.039e-03 -4.523e-03 -4.555e-03
52 1 5.663e+00 3.894e+00 9.203e+00 2.786e-03 -8.792e-03 -8.876e-03
53 1 7.434e+00 3.898e+00 7.431e+00 3.057e-03 -4.041e-03 -3.435e-03
54 1 9.203e+00 3.893e+00 9.203e+00 2.940e-03 -9.562e-03 -7.727e-03
55 1 2.122e+00 5.664e+00 3.560e-01 3.076e-03 -2.747e-03 -1.148e-03
56 1 3.543e-01 5.667e+00 2.125e+00 2.853e-03 -4.958e-04 1.566e-04
57 1 5.666e+00 5.665e+00 3.556e-01 3.434e-03 -1.315e-02 -1.455e-02
58 1 3.895e+00 5.665e+00 2.125e+00 3.245e-03 -1.395e-03 6.820e-04
59 1 9.202e+00 5.666e+00 3.568e-01 2.803e-03 -1.296e-02 -1.133e-02
60 1 7.432e+00 5.673e+00 2.133e+00 2.907e-03 1.711e+00 1.701e+00
61 1 3.511e-01 7.437e+00 3.576e-01 2.964e-03 -2.409e-03 -7.474e-05
62 1 2.125e+00 9.204e+00 3.546e-01 3.119e-03 -6.390e-04 1.276e-04
63 1 2.124e+00 7.434e+00 2.121e+00 4.062e-03 -5.823e-03 -6.548e-03
64 1 3.512e-01 9.203e+00 2.124e+00 2.798e-03 3.878e-03 3.199e-03
65 1 3.898e+00 7.433e+00 3.592e-01 2.276e-03 2.533e-03 1.299e-03
66 1 5.664e+00 9.203e+00 3.561e-01 2.382e-03 -3.549e-03 -3.788e-03
67 1 5.672e+00 7.435e+00 2.132e+00 3.496e-03 -4.512e-02 -5.430e-02
68 1 3.897e+00 9.202e+00 2.124e+00 3.087e-03 8.047e-03 8.123e-03
69 1 7.435e+00 7.435e+00 3.446e-01 4.388e-03 -2.801e-02 -2.604e-02
70 1 9.203e+00 9.201e+00 3.577e-01 3.965e-03 -5.883e-03 -6.467e-03
71 1 9.194e+00 7.435e+00 2.133e+00 1.115e-03 -4.680e-02 -5.835e-02
72 1 7.433e+00 9.193e+00 2.135e+00 5.219e-04 -1.533e-02 -5.557e-02
73 1 2.123e+00 5.663e+00 3.895e+00 2.207e-03 -5.813e-03 -9.539e-03
74 1 5.674e+00 5.673e+00 3.896e+00 1.915e-03 -4.620e-02 -5.364e-02
75 1 9.195e+00 5.671e+00 3.895e+00 1.366e-03 -4.605e-02 -6.082e-02
76 1 3.632e-01 7.435e+00 3.895e+00 4.125e-03 1.003e-02 3.452e-03
77 1 2.124e+00 9.206e+00 3.894e+00 3.446e-03 2.838e-03 2.044e-03
78 1 3.886e+00 7.433e+00 3.896e+00 3.614e-03 -4.120e-04 8.312e-03
79 1 5.673e+00 9.195e+00 3.894e+00 -4.739e-03 -4.917e-02 -7.097e-02
80 1 9.194e+00 9.193e+00 3.893e+00 1.328e-02 -5.083e-02 -7.162e-02
81 1 3.531e-01 5.667e+00 5.663e+00 2.251e-03 6.738e-03 8.380e-03
82 1 3.897e+00 5.666e+00 5.662e+00 4.025e-03 4.076e-04 -1.388e-04
83 1 7.435e+00 5.673e+00 5.656e+00 6.593e-03 -5.461e-02 -3.636e-02
84 1 2.125e+00 7.435e+00 5.666e+00 2.357e-03 3.436e-03 2.457e-03
85 1 3.506e-01 9.202e+00 5.663e+00 3.308e-03 -6.271e-03 -7.841e-03
86 1 5.673e+00 7.434e+00 5.653e+00 -3.896e-03 -5.582e-02 -5.884e-02
87 1 3.896e+00 9.202e+00 5.663e+00 3.988e-03 -5.659e-03 -2.337e-03
88 1 9.195e+00 7.434e+00 5.656e+00 1.093e-02 -5.694e-02 -6.068e-02
89 1 7.431e+00 9.195e+00 5.656e+00 2.366e-03 -3.833e-02 -5.011e-02
90 1 2.122e+00 5.664e+00 7.432e+00 3.050e-03 -3.245e-03 -2.379e-03
91 1 3.536e-01 5.664e+00 9.205e+00 3.164e-03 -8.522e-03 -6.649e-03
92 1 5.668e+00 5.666e+00 7.432e+00 2.230e-03 -7.030e-04 -1.502e-03
93 1 3.896e+00 5.666e+00 9.204e+00 2.566e-03 -5.536e-03 -5.628e-03
94 1 9.202e+00 5.665e+00 7.432e+00 3.019e-03 -6.569e-03 -3.875e-03
95 1 7.434e+00 5.662e+00 9.205e+00 3.157e-03 -4.506e-03 -8.833e-03
96 1 3.514e-01 7.436e+00 7.430e+00 3.032e-03 -6.513e-03 -4.525e-03
97 1 2.123e+00 9.205e+00 7.433e+00 3.131e-03 -5.283e-03 -4.354e-03
98 1 2.125e+00 7.434e+00 9.205e+00 2.880e-03 -5.369e-03 -3.521e-03
99 1 3.537e-01 9.203e+00 9.206e+00 3.352e-03 -5.842e-03 -5.236e-03
100 1 3.897e+00 7.432e+00 7.431e+00 3.363e-03 -7.258e-03 -7.323e-03
101 1 5.668e+00 9.203e+00 7.430e+00 3.652e-03 -1.450e-02 -1.358e-02
102 1 5.662e+00 7.436e+00 9.205e+00 2.971e-03 -3.348e-03 -2.866e-03
103 1 3.896e+00 9.203e+00 9.204e+00 2.912e-03 -7.505e-03 -7.313e-03
104 1 7.434e+00 7.433e+00 7.443e+00 2.517e-03 8.582e-03 7.574e-03
105 1 9.203e+00 9.202e+00 7.433e+00 2.833e-03 -8.163e-03 -8.072e-03
106 1 9.207e+00 7.435e+00 9.205e+00 3.084e-03 -3.075e-03 -7.075e-03
107 1 7.434e+00 9.205e+00 9.205e+00 3.099e-03 1.266e-03 8.632e-04
ITEM: TIMESTEP
0
ITEM: NUMBER OF ATOMS
107
ITEM: BOX BOUNDS xy xz yz pp pp pp
                     0.00000000000000e+00 1.06000000000000e+01 0.00000000000000e+00
0.00000000000000e+00	1.06000000000000e+01	0.00000000000000e+00
0.00000000000000e+00	1.06000000000000e+01	0.00000000000000e+00
ITEM: ATOMS id type x y z DisplacementX DisplacementY DisplacementZ
1 1 3.526e-01 3.520e-01 3.556e-01 -7.350e-03 -3.373e-03 -6.488e-03
2 1 2.126e+00 2.125e+00 3.545e-01 -8.726e-03 -3.230e-03 -7.903e-03
3 1 2.125e+00 3.522e-01 2.124e+00 -1.249e-02 -3.163e-03 -1.143e-02
4 1 3.522e-01 2.122e+00 2.127e+00 -4.532e-04 -3.367e-03 -4.104e-04
5 1 3.895e+00 3.533e-01 3.558e-01 -1.244e-02 -3.203e-03 -1.167e-02
6 1 5.665e+00 2.125e+00 3.539e-01 -6.548e-03 -3.257e-03 -5.966e-03
7 1 5.666e+00 3.527e-01 2.124e+00 -6.480e-03 -3.411e-03 -6.333e-03
8 1 3.895e+00 2.124e+00 2.125e+00 -6.041e-03 -2.988e-03 -5.260e-03
9 1 7.432e+00 3.502e-01 3.576e-01 -2.596e-03 -3.718e-03 -3.164e-03
10 1 9.202e+00 2.123e+00 3.540e-01 -2.581e-03 -3.480e-03 -2.253e-03
11 1 9.202e+00 3.503e-01 2.127e+00 9.598e-03 -3.562e-03 8.152e-03
12 1 7.435e+00 2.123e+00 2.122e+00 -1.587e-02 -2.266e-03 -1.572e-02
13 1 3.522e-01 3.896e+00 3.553e-01 -6.843e-03 -3.429e-03 -6.198e-03
14 1 2.125e+00 3.895e+00 2.125e+00 -8.142e-03 -3.018e-03 -7.697e-03
15 1 3.893e+00 3.896e+00 3.548e-01 -9.419e-03 -3.082e-03 -8.704e-03
16 1 5.666e+00 3.897e+00 2.126e+00 4.929e-04 -2.406e-03 -8.595e-05
17 1 7.434e+00 3.898e+00 3.581e-01 -2.468e-03 -4.022e-03 -2.011e-03
18 1 9.203e+00 3.895e+00 2.125e+00 2.572e-03 -4.469e-03 2.275e-03
19 1 3.507e-01 3.497e-01 3.894e+00 -7.869e-03 -3.592e-03 -7.728e-03
20 1 2.122e+00 2.123e+00 3.895e+00 -5.419e-03 -3.511e-03 -4.321e-03
21 1 3.898e+00 3.524e-01 3.894e+00 -7.679e-03 -3.633e-03 -7.262e-03
22 1 5.662e+00 2.125e+00 3.894e+00 -8.646e-03 -1.197e-03 -9.640e-03
23 1 7.434e+00 3.614e-01 3.895e+00 1.380e-02 -3.311e-03 1.320e-02
24 1 9.204e+00 2.125e+00 3.895e+00 -4.068e-03 -3.225e-03 -5.219e-03
25 1 3.489e-01 3.897e+00 3.892e+00 -6.318e-03 -1.876e-03 -6.160e-03
26 1 3.898e+00 3.897e+00 3.893e+00 3.716e-04 -3.744e-03 5.999e-04
27 1 7.434e+00 3.883e+00 3.895e+00 5.792e-03 -4.526e-03 3.012e-03
28 1 2.124e+00 3.513e-01 5.663e+00 -9.158e-03 -3.312e-03 -8.293e-03
29 1 3.529e-01 2.125e+00 5.662e+00 -6.021e-03 -2.959e-03 -6.162e-03
30 1 5.667e+00 3.515e-01 5.664e+00 7.875e-03 -2.860e-03 6.797e-03
31 1 3.893e+00 2.123e+00 5.663e+00 -5.188e-03 -3.473e-03 -3.894e-03
32 1 9.203e+00 3.512e-01 5.662e+00 -1.067e-02 -4.053e-03 -1.074e-02
33 1 7.432e+00 2.124e+00 5.667e+00 1.316e-03 -3.666e-03 -9.425e-04
34 1 2.124e+00 3.893e+00 5.663e+00 -8.864e-03 -2.659e-03 -8.515e-03
35 1 5.666e+00 3.897e+00 5.663e+00 -6.294e-03 -4.617e-03 -3.404e-03
36 1 9.200e+00 3.896e+00 5.662e+00 -2.024e-03 -2.075e-03 -4.145e-03
37 1 3.523e-01 3.531e-01 7.432e+00 -1.139e-02 -3.383e-03 -1.067e-02
38 1 2.126e+00 2.124e+00 7.434e+00 -8.785e-03 -3.247e-03 -8.020e-03
39 1 2.123e+00 3.525e-01 9.204e+00 -1.065e-02 -3.306e-03 -9.701e-03
40 1 3.532e-01 2.124e+00 9.203e+00 -8.609e-03 -3.313e-03 -7.919e-03
41 1 3.896e+00 3.527e-01 7.432e+00 -7.603e-03 -3.348e-03 -6.592e-03
42 1 5.665e+00 2.124e+00 7.432e+00 -4.693e-03 -3.655e-03 -3.769e-03
43 1 5.665e+00 3.527e-01 9.202e+00 -1.214e-02 -3.427e-03 -1.097e-02
44 1 3.896e+00 2.123e+00 9.204e+00 -9.587e-03 -3.255e-03 -8.610e-03
45 1 7.434e+00 3.512e-01 7.431e+00 -1.067e-02 -3.534e-03 -9.477e-03
46 1 9.203e+00 2.124e+00 7.431e+00 -6.941e-03 -3.128e-03 -7.235e-03
47 1 9.202e+00 3.535e-01 9.205e+00 -1.100e-02 -3.895e-03 -9.945e-03
48 1 7.433e+00 2.123e+00 9.202e+00 -7.618e-03 -3.611e-03 -6.342e-03
49 1 3.533e-01 3.893e+00 7.434e+00 -1.059e-02 -2.561e-03 -1.023e-02
50 1 2.124e+00 3.895e+00 9.203e+00 -1.018e-02 -3.178e-03 -9.345e-03
51 1 3.894e+00 3.894e+00 7.431e+00 -9.535e-03 -3.498e-03 -8.296e-03
52 1 5.663e+00 3.894e+00 9.203e+00 -1.215e-02 -3.327e-03 -1.098e-02
53 1 7.434e+00 3.898e+00 7.431e+00 -1.281e-02 -2.490e-03 -1.167e-02
54 1 9.203e+00 3.893e+00 9.203e+00 -9.516e-03 -3.103e-03 -8.942e-03
55 1 2.122e+00 5.664e+00 3.560e-01 -1.006e-02 -2.828e-03 -9.453e-03
56 1 3.543e-01 5.667e+00 2.125e+00 -1.356e-02 -1.873e-03 -1.245e-02
57 1 5.666e+00 5.665e+00 3.556e-01 -2.311e-02 -3.587e-03 -2.053e-02
58 1 3.895e+00 5.665e+00 2.125e+00 -5.001e-03 -3.413e-03 -6.282e-03
59 1 9.202e+00 5.666e+00 3.568e-01 -6.410e-03 -3.418e-03 -7.613e-03
60 1 7.432e+00 5.673e+00 2.133e+00 -4.777e-02 -1.764e-03 -5.062e-02
61 1 3.511e-01 7.437e+00 3.576e-01 -7.981e-03 -3.948e-03 -6.998e-03
62 1 2.125e+00 9.204e+00 3.546e-01 -1.470e-02 -3.042e-03 -1.332e-02
63 1 2.124e+00 7.434e+00 2.121e+00 -9.223e-03 -1.494e-03 -8.735e-03
64 1 3.512e-01 9.203e+00 2.124e+00 -1.176e-02 -3.256e-03 -1.003e-02
65 1 3.898e+00 7.433e+00 3.592e-01 -1.959e-02 -3.306e-03 -1.990e-02
66 1 5.664e+00 9.203e+00 3.561e-01 -1.338e-02 -3.699e-03 -1.306e-02
67 1 5.672e+00 7.435e+00 2.132e+00 1.710e+00 -4.787e-03 1.707e+00
68 1 3.897e+00 9.202e+00 2.124e+00 -1.935e-02 -2.364e-03 -1.930e-02
69 1 7.435e+00 7.435e+00 3.446e-01 -4.096e-02 -2.467e-03 -3.498e-02
70 1 9.203e+00 9.201e+00 3.577e-01 -1.244e-02 -3.968e-03 -1.186e-02
71 1 9.194e+00 7.435e+00 2.133e+00 -3.208e-02 -1.402e-03 -5.881e-02
72 1 7.433e+00 9.193e+00 2.135e+00 -5.662e-02 -5.138e-03 -5.944e-02
73 1 2.123e+00 5.663e+00 3.895e+00 -1.306e-02 -2.819e-03 -1.382e-02
74 1 5.674e+00 5.673e+00 3.896e+00 -4.958e-02 -1.149e-03 -4.895e-02
75 1 9.195e+00 5.671e+00 3.895e+00 -4.137e-02 -1.102e-02 -5.564e-02
76 1 3.632e-01 7.435e+00 3.895e+00 -1.040e-03 -6.430e-03 -2.268e-03
77 1 2.124e+00 9.206e+00 3.894e+00 -6.346e-03 -1.933e-03 -7.414e-03
78 1 3.886e+00 7.433e+00 3.896e+00 -2.310e-02 1.857e-03 -2.222e-02
79 1 5.673e+00 9.195e+00 3.894e+00 -5.372e-02 1.470e-04 -5.543e-02
80 1 9.194e+00 9.193e+00 3.893e+00 -4.618e-02 1.574e-03 -5.609e-02
81 1 3.531e-01 5.667e+00 5.663e+00 -1.653e-02 -1.187e-03 -1.624e-02
82 1 3.897e+00 5.666e+00 5.662e+00 -5.794e-03 -2.360e-03 -6.449e-03
83 1 7.435e+00 5.673e+00 5.656e+00 -5.251e-02 -1.177e-02 -4.624e-02
84 1 2.125e+00 7.435e+00 5.666e+00 -7.159e-03 -3.853e-03 -7.927e-03
85 1 3.506e-01 9.202e+00 5.663e+00 -1.685e-02 -2.315e-03 -1.631e-02
86 1 5.673e+00 7.434e+00 5.653e+00 -6.001e-02 -7.137e-03 -3.378e-02
87 1 3.896e+00 9.202e+00 5.663e+00 -5.345e-03 -3.826e-03 -3.961e-03
88 1 9.195e+00 7.434e+00 5.656e+00 -5.219e-02 -5.534e-03 -5.851e-02
89 1 7.431e+00 9.195e+00 5.656e+00 -5.225e-02 5.866e-03 -4.623e-02
90 1 2.122e+00 5.664e+00 7.432e+00 -1.188e-02 -2.854e-03 -1.109e-02
91 1 3.536e-01 5.664e+00 9.205e+00 -1.130e-02 -3.357e-03 -1.088e-02
92 1 5.668e+00 5.666e+00 7.432e+00 -1.029e-02 -3.452e-03 -1.004e-02
93 1 3.896e+00 5.666e+00 9.204e+00 -1.650e-02 -3.137e-03 -1.497e-02
94 1 9.202e+00 5.665e+00 7.432e+00 -1.958e-02 -2.077e-03 -1.980e-02
95 1 7.434e+00 5.662e+00 9.205e+00 -8.291e-03 -3.378e-03 -8.523e-03
96 1 3.514e-01 7.436e+00 7.430e+00 -2.333e-02 -1.603e-03 -2.194e-02
97 1 2.123e+00 9.205e+00 7.433e+00 -1.167e-02 -3.201e-03 -1.073e-02
98 1 2.125e+00 7.434e+00 9.205e+00 -1.597e-02 -3.364e-03 -1.444e-02
99 1 3.537e-01 9.203e+00 9.206e+00 -1.253e-02 -3.775e-03 -1.154e-02
100 1 3.897e+00 7.432e+00 7.431e+00 -1.065e-02 -3.638e-03 -8.975e-03
101 1 5.668e+00 9.203e+00 7.430e+00 -1.914e-02 -3.845e-03 -1.647e-02
102 1 5.662e+00 7.436e+00 9.205e+00 -1.008e-02 -2.019e-03 -1.028e-02
103 1 3.896e+00 9.203e+00 9.204e+00 -1.432e-02 -3.216e-03 -1.309e-02
104 1 7.434e+00 7.433e+00 7.443e+00 2.491e-03 -6.955e-03 -2.207e-03
105 1 9.203e+00 9.202e+00 7.433e+00 -1.284e-02 -3.828e-03 -1.194e-02
106 1 9.207e+00 7.435e+00 9.205e+00 -9.380e-03 -4.135e-03 -9.695e-03
107 1 7.434e+00 9.205e+00 9.205e+00 -1.115e-02 -2.461e-03 -1.129e-02
ITEM: TIMESTEP
0
ITEM: NUMBER OF ATOMS
107
ITEM: BOX BOUNDS xy xz yz pp pp pp
                     0.00000000000000e+00 1.06000000000000e+01 0.00000000000000e+00
0.00000000000000e+00	1.06000000000000e+01	0.00000000000000e+00
0.00000000000000e+00	1.06000000000000e+01	0.00000000000000e+00
ITEM: ATOMS id type x y z DisplacementX DisplacementY DisplacementZ
1 1 3.526e-01 3.520e-01 3.556e-01 7.291e-03 7.313e-04 -6.759e-03
2 1 2.126e+00 2.125e+00 3.545e-01 6.194e-03 5.476e-04 -5.563e-03
3 1 2.125e+00 3.522e-01 2.124e+00 8.340e-03 5.490e-04 -7.705e-03
4 1 3.522e-01 2.122e+00 2.127e+00 2.486e-03 7.323e-04 -2.135e-03
5 1 3.895e+00 3.533e-01 3.558e-01 6.854e-03 4.930e-04 -6.318e-03
6 1 5.665e+00 2.125e+00 3.539e-01 3.946e-03 3.169e-04 -3.405e-03
7 1 5.666e+00 3.527e-01 2.124e+00 -4.145e-03 8.141e-04 4.581e-03
8 1 3.895e+00 2.124e+00 2.125e+00 4.963e-04 -2.083e-04 1.719e-04
9 1 7.432e+00 3.502e-01 3.576e-01 2.722e-03 8.896e-04 -2.262e-03
10 1 9.202e+00 2.123e+00 3.540e-01 3.330e-04 7.375e-04 -5.174e-04
11 1 9.202e+00 3.503e-01 2.127e+00 -5.475e-03 -1.375e-03 8.528e-03
12 1 7.435e+00 2.123e+00 2.122e+00 1.338e-02 1.620e-03 -1.328e-02
13 1 3.522e-01 3.896e+00 3.553e-01 7.409e-03 7.212e-04 -7.025e-03
14 1 2.125e+00 3.895e+00 2.125e+00 5.823e-03 7.438e-04 -4.575e-03
15 1 3.893e+00 3.896e+00 3.548e-01 5.567e-03 5.535e-04 -4.753e-03
16 1 5.666e+00 3.897e+00 2.126e+00 7.529e-04 -5.030e-04 -4.258e-04
17 1 7.434e+00 3.898e+00 3.581e-01 3.304e-03 5.242e-04 -3.882e-03
18 1 9.203e+00 3.895e+00 2.125e+00 1.598e-03 1.632e-03 -3.448e-03
19 1 3.507e-01 3.497e-01 3.894e+00 -2.261e-03 -3.980e-04 4.844e-03
20 1 2.122e+00 2.123e+00 3.895e+00 2.061e-03 -2.581e-04 -1.047e-03
21 1 3.898e+00 3.524e-01 3.894e+00 9.566e-03 5.664e-05 -8.855e-03
22 1 5.662e+00 2.125e+00 3.894e+00 -2.937e-03 1.518e-03 3.511e-03
23 1 7.434e+00 3.614e-01 3.895e+00 -4.190e-03 -1.587e-03 4.478e-03
24 1 9.204e+00 2.125e+00 3.895e+00 1.872e-02 4.951e-04 -1.834e-02
25 1 3.489e-01 3.897e+00 3.892e+00 -1.929e-03 6.130e-04 2.594e-03
26 1 3.898e+00 3.897e+00 3.893e+00 8.446e-03 -1.846e-04 -7.317e-03
27 1 7.434e+00 3.883e+00 3.895e+00 -8.170e-03 -1.045e-03 9.386e-03
28 1 2.124e+00 3.513e-01 5.663e+00 6.874e-03 6.178e-04 -5.428e-03
29 1 3.529e-01 2.125e+00 5.662e+00 4.236e-03 4.008e-04 -3.449e-03
30 1 5.667e+00 3.515e-01 5.664e+00 6.047e-03 -1.138e-03 -6.881e-03
31 1 3.893e+00 2.123e+00 5.663e+00 4.300e-03 -2.379e-04 -4.331e-03
32 1 9.203e+00 3.512e-01 5.662e+00 3.251e-03 1.271e-04 -6.319e-04
33 1 7.432e+00 2.124e+00 5.667e+00 3.294e-03 1.404e-03 -2.704e-03
34 1 2.124e+00 3.893e+00 5.663e+00 7.666e-03 1.882e-04 -5.960e-03
35 1 5.666e+00 3.897e+00 5.663e+00 4.149e-03 3.374e-04 -4.081e-03
36 1 9.200e+00 3.896e+00 5.662e+00 -1.857e-03 -3.692e-04 2.170e-03
37 1 3.523e-01 3.531e-01 7.432e+00 7.847e-03 3.793e-04 -6.836e-03
38 1 2.126e+00 2.124e+00 7.434e+00 7.041e-03 4.144e-04 -6.270e-03
39 1 2.123e+00 3.525e-01 9.204e+00 8.401e-03 6.129e-04 -7.760e-03
40 1 3.532e-01 2.124e+00 9.203e+00 7.564e-03 6.286e-04 -6.939e-03
41 1 3.896e+00 3.527e-01 7.432e+00 7.909e-03 6.101e-04 -7.524e-03
42 1 5.665e+00 2.124e+00 7.432e+00 6.145e-03 -7.900e-05 -6.103e-03
43 1 5.665e+00 3.527e-01 9.202e+00 7.648e-03 8.411e-04 -7.865e-03
44 1 3.896e+00 2.123e+00 9.204e+00 6.671e-03 4.369e-04 -6.163e-03
45 1 7.434e+00 3.512e-01 7.431e+00 8.189e-03 3.338e-04 -8.168e-03
46 1 9.203e+00 2.124e+00 7.431e+00 5.702e-03 1.562e-04 -4.748e-03
47 1 9.202e+00 3.535e-01 9.205e+00 1.215e-02 7.441e-04 -1.211e-02
48 1 7.433e+00 2.123e+00 9.202e+00 5.384e-03 5.965e-05 -5.151e-03
49 1 3.533e-01 3.893e+00 7.434e+00 7.176e-03 7.669e-04 -6.068e-03
50 1 2.124e+00 3.895e+00 9.203e+00 8.117e-03 5.899e-04 -7.315e-03
51 1 3.894e+00 3.894e+00 7.431e+00 8.974e-03 1.813e-04 -8.427e-03
52 1 5.663e+00 3.894e+00 9.203e+00 7.445e-03 4.342e-04 -7.273e-03
53 1 7.434e+00 3.898e+00 7.431e+00 1.005e-02 4.558e-04 -9.624e-03
54 1 9.203e+00 3.893e+00 9.203e+00 1.052e-02 1.021e-03 -9.772e-03
55 1 2.122e+00 5.664e+00 3.560e-01 8.246e-03 8.561e-04 -7.159e-03
56 1 3.543e-01 5.667e+00 2.125e+00 2.971e-03 -9.498e-04 -1.859e-03
57 1 5.666e+00 5.665e+00 3.556e-01 4.398e-03 1.856e-04 -4.605e-03
58 1 3.895e+00 5.665e+00 2.125e+00 1.243e-02 3.072e-03 -1.069e-02
59 1 9.202e+00 5.666e+00 3.568e-01 2.116e-02 8.012e-04 -1.930e-02
60 1 7.432e+00 5.673e+00 2.133e+00 4.424e-02 3.312e-03 -5.221e-02
61 1 3.511e-01 7.437e+00 3.576e-01 1.612e-02 9.208e-04 -1.543e-02
62 1 2.125e+00 9.204e+00 3.546e-01 8.814e-03 8.030e-04 -8.089e-03
63 1 2.124e+00 7.434e+00 2.121e+00 7.224e-03 1.682e-03 -5.457e-03
64 1 3.512e-01 9.203e+00 2.124e+00 3.538e-03 1.824e-03 -3.165e-03
65 1 3.898e+00 7.433e+00 3.592e-01 8.372e-03 1.384e-03 -8.177e-03
66 1 5.664e+00 9.203e+00 3.561e-01 1.040e-02 1.920e-03 -1.093e-02
67 1 5.672e+00 7.435e+00 2.132e+00 1.579e-02 4.449e-03 -5.162e-02
68 1 3.897e+00 9.202e+00 2.124e+00 1.548e-02 -6.483e-05 -1.349e-02
69 1 7.435e+00 7.435e+00 3.446e-01 2.994e-02 2.065e-03 -2.924e-02
70 1 9.203e+00 9.201e+00 3.577e-01 2.361e-02 1.261e-03 -2.292e-02
71 1 9.194e+00 7.435e+00 2.133e+00 -1.705e+00 3.995e-03 1.702e+00
72 1 7.433e+00 9.193e+00 2.135e+00 5.464e-02 3.385e-03 -6.192e-02
73 1 2.123e+00 5.663e+00 3.895e+00 9.975e-03 7.311e-04 -8.446e-03
74 1 5.674e+00 5.673e+00 3.896e+00 2.792e-02 -4.755e-03 -4.345e-02
75 1 9.195e+00 5.671e+00 3.895e+00 6.052e-02 4.737e-03 -6.928e-02
76 1 3.632e-01 7.435e+00 3.895e+00 3.037e-02 5.297e-04 -2.950e-02
77 1 2.124e+00 9.206e+00 3.894e+00 1.114e-02 1.981e-03 -9.989e-03
78 1 3.886e+00 7.433e+00 3.896e+00 -1.173e-02 1.104e-03 1.671e-02
79 1 5.673e+00 9.195e+00 3.894e+00 4.207e-02 1.443e-02 -6.220e-02
80 1 9.194e+00 9.193e+00 3.893e+00 6.282e-02 4.522e-03 -7.007e-02
81 1 3.531e-01 5.667e+00 5.663e+00 9.368e-03 1.202e-03 -5.495e-03
82 1 3.897e+00 5.666e+00 5.662e+00 1.125e-02 3.325e-05 -9.929e-03
83 1 7.435e+00 5.673e+00 5.656e+00 5.502e-02 -3.916e-03 -5.165e-02
84 1 2.125e+00 7.435e+00 5.666e+00 6.710e-03 1.655e-03 -7.709e-03
85 1 3.506e-01 9.202e+00 5.663e+00 8.780e-03 -1.217e-03 -7.335e-03
86 1 5.673e+00 7.434e+00 5.653e+00 4.167e-02 3.652e-03 -4.875e-02
87 1 3.896e+00 9.202e+00 5.663e+00 1.001e-02 1.657e-03 -7.060e-03
88 1 9.195e+00 7.434e+00 5.656e+00 6.641e-02 3.615e-03 -4.582e-02
89 1 7.431e+00 9.195e+00 5.656e+00 5.068e-02 1.359e-02 -4.859e-02
90 1 2.122e+00 5.664e+00 7.432e+00 9.901e-03 4.481e-04 -8.418e-03
91 1 3.536e-01 5.664e+00 9.205e+00 1.330e-02 1.192e-03 -1.240e-02
92 1 5.668e+00 5.666e+00 7.432e+00 1.792e-02 1.193e-03 -1.755e-02
93 1 3.896e+00 5.666e+00 9.204e+00 9.504e-03 4.635e-04 -8.776e-03
94 1 9.202e+00 5.665e+00 7.432e+00 1.096e-02 2.028e-03 -1.101e-02
95 1 7.434e+00 5.662e+00 9.205e+00 8.577e-03 2.043e-03 -8.939e-03
96 1 3.514e-01 7.436e+00 7.430e+00 9.037e-03 1.165e-03 -6.673e-03
97 1 2.123e+00 9.205e+00 7.433e+00 1.045e-02 3.813e-04 -9.030e-03
98 1 2.125e+00 7.434e+00 9.205e+00 1.287e-02 4.556e-04 -1.170e-02
99 1 3.537e-01 9.203e+00 9.206e+00 1.390e-02 1.034e-03 -1.300e-02
100 1 3.897e+00 7.432e+00 7.431e+00 1.829e-02 7.320e-04 -1.737e-02
101 1 5.668e+00 9.203e+00 7.430e+00 1.085e-02 1.135e-03 -1.128e-02
102 1 5.662e+00 7.436e+00 9.205e+00 1.012e-02 2.542e-03 -8.720e-03
103 1 3.896e+00 9.203e+00 9.204e+00 9.205e-03 1.067e-03 -9.130e-03
104 1 7.434e+00 7.433e+00 7.443e+00 6.975e-03 3.221e-03 -8.405e-03
105 1 9.203e+00 9.202e+00 7.433e+00 7.096e-03 2.195e-03 -6.584e-03
106 1 9.207e+00 7.435e+00 9.205e+00 7.643e-03 1.600e-03 -8.005e-03
107 1 7.434e+00 9.205e+00 9.205e+00 1.116e-02 1.430e-03 -1.150e-02
ITEM: TIMESTEP
0
ITEM: NUMBER OF ATOMS
107
ITEM: BOX BOUNDS xy xz yz pp pp pp
                     0.00000000000000e+00 1.06000000000000e+01 0.00000000000000e+00
0.00000000000000e+00	1.06000000000000e+01	0.00000000000000e+00
0.00000000000000e+00	1.06000000000000e+01	0.00000000000000e+00
ITEM: ATOMS id type x y z DisplacementX DisplacementY DisplacementZ
1 1 3.526e-01 3.520e-01 3.556e-01 -8.648e-04 9.935e-03 -9.940e-03
2 1 2.126e+00 2.125e+00 3.545e-01 -7.795e-04 8.215e-03 -8.238e-03
3 1 2.125e+00 3.522e-01 2.124e+00 -4.477e-04 4.788e-03 -4.752e-03
4 1 3.522e-01 2.122e+00 2.127e+00 -8.878e-04 1.174e-02 -1.193e-02
5 1 3.895e+00 3.533e-01 3.558e-01 -6.815e-04 7.519e-03 -7.676e-03
6 1 5.665e+00 2.125e+00 3.539e-01 -1.353e-03 1.059e-02 -1.079e-02
7 1 5.666e+00 3.527e-01 2.124e+00 -1.296e-03 9.940e-03 -1.045e-02
8 1 3.895e+00 2.124e+00 2.125e+00 -8.328e-04 9.529e-03 -9.388e-03
9 1 7.432e+00 3.502e-01 3.576e-01 -1.294e-03 1.631e-02 -1.704e-02
10 1 9.202e+00 2.123e+00 3.540e-01 -1.060e-03 1.477e-02 -1.509e-02
11 1 9.202e+00 3.503e-01 2.127e+00 -1.535e-03 2.221e-02 -2.503e-02
12 1 7.435e+00 2.123e+00 2.122e+00 -9.303e-04 4.734e-03 -2.886e-03
13 1 3.522e-01 3.896e+00 3.553e-01 -6.145e-04 7.310e-03 -7.489e-03
14 1 2.125e+00 3.895e+00 2.125e+00 -7.157e-04 5.709e-03 -6.054e-03
15 1 3.893e+00 3.896e+00 3.548e-01 -9.829e-04 6.782e-03 -6.931e-03
16 1 5.666e+00 3.897e+00 2.126e+00 -1.180e-03 8.752e-03 -9.001e-03
17 1 7.434e+00 3.898e+00 3.581e-01 -9.127e-04 4.533e-03 -5.673e-03
18 1 9.203e+00 3.895e+00 2.125e+00 -7.538e-04 6.513e-03 -5.764e-03
19 1 3.507e-01 3.497e-01 3.894e+00 -8.264e-04 7.773e-03 -8.443e-03
20 1 2.122e+00 2.123e+00 3.895e+00 -8.636e-04 8.777e-03 -8.603e-03
21 1 3.898e+00 3.524e-01 3.894e+00 -6.972e-04 -1.547e-03 1.711e-03
22 1 5.662e+00 2.125e+00 3.894e+00 4.178e-04 1.139e-02 -1.017e-02
23 1 7.434e+00 3.614e-01 3.895e+00 -2.292e-03 2.596e-02 -2.986e-02
24 1 9.204e+00 2.125e+00 3.895e+00 -1.318e-03 -1.967e-03 1.555e-03
25 1 3.489e-01 3.897e+00 3.892e+00 9.479e-05 1.135e-02 -1.094e-02
26 1 3.898e+00 3.897e+00 3.893e+00 -1.427e-03 1.006e-02 -1.061e-02
27 1 7.434e+00 3.883e+00 3.895e+00 -1.391e-03 -3.161e-03 6.848e-03
28 1 2.124e+00 3.513e-01 5.663e+00 -4.335e-04 5.297e-03 -5.154e-03
29 1 3.529e-01 2.125e+00 5.662e+00 -1.051e-03 8.577e-03 -8.145e-03
30 1 5.667e+00 3.515e-01 5.664e+00 -2.284e-03 3.036e-03 -2.782e-03
31 1 3.893e+00 2.123e+00 5.663e+00 -8.921e-04 7.689e-03 -7.489e-03
32 1 9.203e+00 3.512e-01 5.662e+00 -7.248e-04 3.707e-03 -4.972e-03
33 1 7.432e+00 2.124e+00 5.667e+00 -4.202e-04 2.558e-03 -4.141e-03
34 1 2.124e+00 3.893e+00 5.663e+00 -6.479e-04 7.749e-03 -7.499e-03
35 1 5.666e+00 3.897e+00 5.663e+00 -4.835e-04 1.280e-02 -1.309e-02
36 1 9.200e+00 3.896e+00 5.662e+00 -2.081e-03 1.532e-02 -1.451e-02
37 1 3.523e-01 3.531e-01 7.432e+00 -8.651e-04 6.278e-03 -6.031e-03
38 1 2.126e+00 2.124e+00 7.434e+00 -7.968e-04 7.544e-03 -7.411e-03
39 1 2.123e+00 3.525e-01 9.204e+00 -7.523e-04 7.308e-03 -7.233e-03
40 1 3.532e-01 2.124e+00 9.203e+00 -9.127e-04 8.767e-03 -8.754e-03
41 1 3.896e+00 3.527e-01 7.432e+00 -7.345e-04 6.771e-03 -6.452e-03
42 1 5.665e+00 2.124e+00 7.432e+00 -1.167e-03 8.745e-03 -8.728e-03
43 1 5.665e+00 3.527e-01 9.202e+00 -7.754e-04 9.895e-03 -9.859e-03
44 1 3.896e+00 2.123e+00 9.204e+00 -8.605e-04 8.481e-03 -8.495e-03
45 1 7.434e+00 3.512e-01 7.431e+00 -1.088e-03 3.872e-03 -3.103e-03
46 1 9.203e+00 2.124e+00 7.431e+00 -1.403e-03 8.737e-03 -8.443e-03
47 1 9.202e+00 3.535e-01 9.205e+00 -9.185e-04 7.896e-03 -7.558e-03
48 1 7.433e+00 2.123e+00 9.202e+00 -1.514e-03 1.385e-02 -1.410e-02
49 1 3.533e-01 3.893e+00 7.434e+00 -8.205e-04 9.354e-03 -8.927e-03
50 1 2.124e+00 3.895e+00 9.203e+00 -7.908e-04 7.506e-03 -7.479e-03
51 1 3.894e+00 3.894e+00 7.431e+00 -8.759e-04 9.174e-03 -9.325e-03
52 1 5.663e+00 3.894e+00 9.203e+00 -1.060e-03 8.404e-03 -8.557e-03
53 1 7.434e+00 3.898e+00 7.431e+00 -1.549e-03 1.803e-02 -1.773e-02
54 1 9.203e+00 3.893e+00 9.203e+00 -9.115e-04 8.998e-03 -8.915e-03
55 1 2.122e+00 5.664e+00 3.560e-01 -3.130e-04 5.340e-03 -5.197e-03
56 1 3.543e-01 5.667e+00 2.125e+00 6.147e-04 1.433e-03 -1.525e-03
57 1 5.666e+00 5.665e+00 3.556e-01 -7.628e-04 4.009e-03 -4.315e-03
58 1 3.895e+00 5.665e+00 2.125e+00 -8.225e-04 3.966e-04 -6.810e-04
59 1 9.202e+00 5.666e+00 3.568e-01 -1.402e-03 3.780e-03 -3.787e-03
60 1 7.432e+00 5.673e+00 2.133e+00 2.063e-04 2.389e-02 -4.070e-02
61 1 3.511e-01 7.437e+00 3.576e-01 1.316e-04 9.789e-04 -7.728e-04
62 1 2.125e+00 9.204e+00 3.546e-01 -2.023e-04 4.440e-03 -4.539e-03
63 1 2.124e+00 7.434e+00 2.121e+00 7.068e-04 1.154e-02 -9.609e-03
64 1 3.512e-01 9.203e+00 2.124e+00 2.727e-04 6.144e-03 -7.052e-03
65 1 3.898e+00 7.433e+00 3.592e-01 -8.254e-04 -1.509e-03 -6.819e-05
66 1 5.664e+00 9.203e+00 3.561e-01 -1.673e-04 1.023e-02 -1.128e-02
67 1 5.672e+00 7.435e+00 2.132e+00 -1.006e-03 4.841e-02 -3.940e-02
68 1 3.897e+00 9.202e+00 2.124e+00 -4.411e-04 -1.373e-03 1.958e-03
69 1 7.435e+00 7.435e+00 3.446e-01 -2.174e-03 3.369e-02 -2.952e-02
70 1 9.203e+00 9.201e+00 3.577e-01 -1.332e-03 4.782e-03 -2.866e-03
71 1 9.194e+00 7.435e+00 2.133e+00 3.392e-03 5.140e-02 -4.299e-02
72 1 7.433e+00 9.193e+00 2.135e+00 1.167e-03 -1.697e+00 1.709e+00
73 1 2.123e+00 5.663e+00 3.895e+00 -8.491e-04 -8.756e-04 1.140e-03
74 1 5.674e+00 5.673e+00 3.896e+00 -6.611e-03 3.538e-02 -3.466e-02
75 1 9.195e+00 5.671e+00 3.895e+00 7.752e-03 4.984e-02 -4.206e-02
76 1 3.632e-01 7.435e+00 3.895e+00 -1.924e-03 -1.025e-02 8.465e-03
77 1 2.124e+00 9.206e+00 3.894e+00 -1.613e-04 9.945e-03 -1.042e-02
78 1 3.886e+00 7.433e+00 3.896e+00 3.338e-03 6.752e-03 -2.844e-03
79 1 5.673e+00 9.195e+00 3.894e+00 1.623e-03 7.760e-02 -5.445e-02
80 1 9.194e+00 9.193e+00 3.893e+00 1.406e-03 6.562e-02 -4.635e-02
81 1 3.531e-01 5.667e+00 5.663e+00 2.624e-04 6.311e-03 -5.855e-03
82 1 3.897e+00 5.666e+00 5.662e+00 -5.176e-04 9.675e-03 -8.899e-03
83 1 7.435e+00 5.673e+00 5.656e+00 1.482e-03 5.158e-02 -3.280e-02
84 1 2.125e+00 7.435e+00 5.666e+00 5.404e-04 -2.570e-03 1.363e-03
85 1 3.506e-01 9.202e+00 5.663e+00 -8.601e-04 -5.185e-03 7.313e-03
86 1 5.673e+00 7.434e+00 5.653e+00 -8.003e-03 5.650e-02 -3.445e-02
87 1 3.896e+00 9.202e+00 5.663e+00 1.146e-03 3.225e-03 -3.146e-03
88 1 9.195e+00 7.434e+00 5.656e+00 1.067e-02 6.344e-02 -3.492e-02
89 1 7.431e+00 9.195e+00 5.656e+00 2.802e-03 6.057e-02 -1.362e-02
90 1 2.122e+00 5.664e+00 7.432e+00 -4.269e-04 6.757e-03 -6.443e-03
91 1 3.536e-01 5.664e+00 9.205e+00 -8.674e-04 6.985e-03 -6.840e-03
92 1 5.668e+00 5.666e+00 7.432e+00 -1.623e-03 1.062e-02 -1.141e-02
93 1 3.896e+00 5.666e+00 9.204e+00 -9.852e-04 6.668e-03 -7.141e-03
94 1 9.202e+00 5.665e+00 7.432e+00 -3.484e-04 8.445e-03 -7.574e-03
95 1 7.434e+00 5.662e+00 9.205e+00 3.251e-04 4.066e-03 -2.889e-03
96 1 3.514e-01 7.436e+00 7.430e+00 -1.787e-04 8.960e-03 -7.527e-03
97 1 2.123e+00 9.205e+00 7.433e+00 -5.251e-04 2.908e-03 -2.399e-03
98 1 2.125e+00 7.434e+00 9.205e+00 -8.951e-04 5.554e-03 -5.404e-03
99 1 3.537e-01 9.203e+00 9.206e+00 -9.110e-04 8.307e-03 -8.335e-03
100 1 3.897e+00 7.432e+00 7.431e+00 -8.011e-04 9.617e-03 -9.173e-03
101 1 5.668e+00 9.203e+00 7.430e+00 -6.477e-04 3.868e-03 -3.284e-03
102 1 5.662e+00 7.436e+00 9.205e+00 5.574e-04 7.382e-03 -6.752e-03
103 1 3.896e+00 9.203e+00 9.204e+00 -5.506e-04 8.188e-03 -8.193e-03
104 1 7.434e+00 7.433e+00 7.443e+00 7.703e-05 -1.554e-02 1.095e-02
105 1 9.203e+00 9.202e+00 7.433e+00 8.821e-05 1.551e-02 -1.700e-02
106 1 9.207e+00 7.435e+00 9.205e+00 -8.624e-04 6.173e-03 -7.662e-03