ITEM: TIMESTEP
0
ITEM: NUMBER OF ATOMS
107
ITEM: BOX BOUNDS xy xz yz pp pp pp
                     0.00000000000000e+00 1.06000000000000e+01 0.00000000000000e+00
0.00000000000000e+00	1.06000000000000e+01	0.00000000000000e+00
0.00000000000000e+00	1.06000000000000e+01	0.00000000000000e+00
ITEM: ATOMS id type x y z DisplacementX DisplacementY DisplacementZ
1 1 3.537e-01 3.539e-01 3.557e-01 1.423e-03 2.621e-03 2.243e-03
2 1 2.122e+00 2.124e+00 3.538e-01 1.334e-03 1.733e-03 2.136e-03
3 1 2.125e+00 3.510e-01 2.124e+00 7.822e-04 2.032e-03 1.958e-03
4 1 3.528e-01 2.125e+00 2.124e+00 1.287e-03 2.037e-03 2.430e-03
5 1 3.894e+00 3.523e-01 3.542e-01 9.659e-04 2.146e-03 2.184e-03
6 1 5.664e+00 2.123e+00 3.538e-01 1.110e-03 1.998e-03 2.356e-03
7 1 5.664e+00 3.530e-01 2.126e+00 1.454e-03 2.944e-03 8.475e-04
8 1 3.895e+00 2.124e+00 2.124e+00 6.758e-04 2.212e-03 2.552e-03
9 1 7.433e+00 3.522e-01 3.574e-01 1.127e-04 5.528e-03 3.304e-03
10 1 9.202e+00 2.123e+00 3.552e-01 1.656e-03 2.219e-03 2.635e-03
11 1 9.203e+00 3.530e-01 2.126e+00 9.536e-04 3.091e-03 3.166e-03
12 1 7.434e+00 2.124e+00 2.122e+00 3.444e-03 -5.785e-04 1.126e-04
13 1 3.537e-01 3.895e+00 3.555e-01 1.618e-03 1.173e-03 2.536e-03
14 1 2.124e+00 3.894e+00 2.124e+00 1.262e-03 8.252e-04 1.883e-03
15 1 3.894e+00 3.896e+00 3.572e-01 1.349e-03 2.204e-03 2.510e-03
16 1 5.665e+00 3.896e+00 2.127e+00 -4.340e-04 3.565e-03 5.690e-03
17 1 7.433e+00 3.898e+00 3.568e-01 1.346e-03 4.356e-03 5.993e-03
18 1 9.201e+00 3.896e+00 2.126e+00 1.593e-03 3.027e-03 4.053e-03
19 1 3.501e-01 3.489e-01 3.894e+00 5.961e-04 3.177e-03 1.869e-03
20 1 2.127e+00 2.127e+00 3.894e+00 5.345e-04 1.270e-03 2.262e-03
21 1 3.898e+00 3.490e-01 3.895e+00 1.019e-04 -1.101e-03 -1.042e-03
22 1 5.661e+00 2.123e+00 3.893e+00 1.424e-03 3.701e-03 4.737e-03
23 1 7.433e+00 3.636e-01 3.894e+00 4.216e-03 9.863e-03 1.815e-02
24 1 9.208e+00 2.126e+00 3.893e+00 2.103e-03 1.341e-03 4.703e-05
25 1 3.515e-01 3.896e+00 3.892e+00 8.727e-04 1.387e-03 4.947e-03
26 1 3.896e+00 3.898e+00 3.894e+00 1.770e-03 2.954e-03 3.296e-03
27 1 7.435e+00 3.886e+00 3.894e+00 -1.968e-03 -1.601e-03 -6.385e-03
28 1 2.124e+00 3.541e-01 5.664e+00 1.171e-03 1.390e-03 1.920e-03
29 1 3.532e-01 2.124e+00 5.663e+00 7.991e-04 2.229e-03 2.879e-03
30 1 5.667e+00 3.510e-01 5.662e+00 7.542e-04 -3.305e-04 1.907e-03
31 1 3.896e+00 2.125e+00 5.663e+00 1.232e-03 1.912e-03 2.521e-03
32 1 9.202e+00 3.512e-01 5.663e+00 1.313e-03 2.718e-03 4.269e-03
33 1 7.433e+00 2.123e+00 5.666e+00 2.181e-04 7.315e-03 5.680e-03
34 1 2.124e+00 3.895e+00 5.664e+00 1.212e-03 1.274e-03 1.703e-03
35 1 5.665e+00 3.898e+00 5.663e+00 2.718e-03 4.245e-03 2.955e-03
36 1 9.205e+00 3.896e+00 5.662e+00 6.374e-04 3.816e-03 4.034e-03
37 1 3.538e-01 3.528e-01 7.434e+00 1.494e-03 1.782e-03 2.205e-03
38 1 2.125e+00 2.123e+00 7.434e+00 1.278e-03 1.894e-03 2.352e-03
39 1 2.124e+00 3.539e-01 9.206e+00 1.435e-03 1.869e-03 2.219e-03
40 1 3.553e-01 2.124e+00 9.205e+00 1.492e-03 1.946e-03 2.350e-03
41 1 3.894e+00 3.535e-01 7.432e+00 1.545e-03 1.050e-03 1.752e-03
42 1 5.665e+00 2.124e+00 7.433e+00 1.694e-03 2.599e-03 2.907e-03
43 1 5.665e+00 3.525e-01 9.202e+00 1.572e-03 2.476e-03 2.926e-03
44 1 3.893e+00 2.124e+00 9.204e+00 1.458e-03 1.996e-03 2.363e-03
45 1 7.434e+00 3.520e-01 7.431e+00 2.925e-03 -1.699e-03 -1.155e-03
46 1 9.202e+00 2.125e+00 7.433e+00 9.755e-04 2.944e-03 3.534e-03
47 1 9.203e+00 3.532e-01 9.205e+00 2.068e-03 2.648e-03 2.475e-03
48 1 7.434e+00 2.125e+00 9.203e+00 1.624e-03 2.206e-03 2.907e-03
49 1 3.515e-01 3.896e+00 7.433e+00 1.308e-03 1.967e-03 2.472e-03
50 1 2.124e+00 3.895e+00 9.205e+00 1.528e-03 1.642e-03 2.117e-03
51 1 3.894e+00 3.896e+00 7.435e+00 1.818e-03 2.024e-03 2.205e-03
52 1 5.665e+00 3.895e+00 9.203e+00 2.087e-03 2.159e-03 2.282e-03
53 1 7.434e+00 3.898e+00 7.432e+00 3.058e-03 2.989e-03 3.919e-03
54 1 9.204e+00 3.896e+00 9.205e+00 2.039e-03 1.585e-03 2.328e-03
55 1 2.125e+00 5.666e+00 3.550e-01 1.578e-03 4.406e-04 1.640e-03
56 1 3.519e-01 5.665e+00 2.125e+00 1.102e-03 -1.338e-03 2.459e-03
57 1 5.667e+00 5.666e+00 3.569e-01 3.471e-03 3.529e-03 2.625e-03
58 1 3.898e+00 5.664e+00 2.125e+00 1.257e-03 1.870e-03 1.267e-03
59 1 9.202e+00 5.666e+00 3.567e-01 1.615e-03 2.926e-03 3.530e-03
60 1 7.435e+00 5.674e+00 2.133e+00 -6.881e-02 4.755e-01 4.891e-01
61 1 3.515e-01 7.434e+00 3.563e-01 1.174e-03 2.907e-03 3.903e-03
62 1 2.125e+00 9.203e+00 3.549e-01 1.304e-03 1.618e-03 1.276e-03
63 1 2.122e+00 7.434e+00 2.121e+00 3.855e-03 -9.825e-04 -1.416e-03
64 1 3.506e-01 9.204e+00 2.125e+00 5.328e-04 3.360e-03 1.823e-03
65 1 3.897e+00 7.433e+00 3.591e-01 4.130e-04 4.175e-03 3.242e-03
66 1 5.665e+00 9.202e+00 3.566e-01 6.916e-04 3.696e-03 4.791e-03
67 1 5.673e+00 7.434e+00 2.132e+00 -1.137e-01 1.384e-01 6.598e-02
68 1 3.896e+00 9.202e+00 2.125e+00 3.043e-04 1.455e-03 1.001e-03
69 1 7.433e+00 7.433e+00 3.423e-01 1.099e-02 -1.093e-02 -7.518e-03
70 1 9.201e+00 9.202e+00 3.569e-01 2.840e-03 4.162e-03 3.026e-03
71 1 9.195e+00 7.434e+00 2.134e+00 -1.053e-01 2.965e-01 2.115e-01
72 1 7.435e+00 9.196e+00 2.133e+00 -1.114e-01 -8.021e-02 -9.040e-02
73 1 2.124e+00 5.663e+00 3.896e+00 1.200e-03 1.672e-03 -6.479e-04
74 1 5.673e+00 5.674e+00 3.893e+00 1.172e-02 -8.718e-02 1.557e-03
75 1 9.194e+00 5.673e+00 3.893e+00 7.958e-02 2.538e-01 2.694e-01
76 1 3.624e-01 7.434e+00 3.895e+00 4.985e-04 -3.596e-03 -4.484e-03
77 1 2.123e+00 9.207e+00 3.894e+00 2.941e-03 2.878e-03 4.913e-03
78 1 3.884e+00 7.434e+00 3.895e+00 1.209e-03 2.794e-03 5.947e-03
79 1 5.673e+00 9.194e+00 3.894e+00 9.784e-03 2.493e-02 -1.094e-01
80 1 9.195e+00 9.194e+00 3.895e+00 -5.196e-02 -1.863e-01 -1.031e-01
81 1 3.521e-01 5.665e+00 5.663e+00 1.130e-03 2.384e-03 2.033e-03
82 1 3.895e+00 5.667e+00 5.663e+00 2.041e-03 -2.740e-04 4.887e-04
83 1 7.433e+00 5.673e+00 5.654e+00 1.052e-01 -1.841e-01 -8.965e-02
84 1 2.126e+00 7.435e+00 5.665e+00 -3.099e-04 6.060e-03 5.210e-03
85 1 3.519e-01 9.203e+00 5.661e+00 1.433e-03 5.228e-04 3.387e-04
86 1 5.674e+00 7.433e+00 5.656e+00 8.215e-02 -5.561e-02 -1.701e-01
87 1 3.895e+00 9.203e+00 5.660e+00 1.372e-03 9.999e-06 1.093e-03
88 1 9.194e+00 7.434e+00 5.653e+00 6.700e-02 -1.640e-01 -1.592e-02
89 1 7.434e+00 9.194e+00 5.656e+00 5.531e-03 -1.683e-01 -2.867e-01
90 1 2.124e+00 5.664e+00 7.433e+00 1.338e-03 1.357e-03 1.658e-03
91 1 3.507e-01 5.664e+00 9.203e+00 2.104e-03 1.515e-03 2.130e-03
92 1 5.665e+00 5.665e+00 7.431e+00 2.194e-03 2.691e-03 3.082e-03
93 1 3.894e+00 5.663e+00 9.203e+00 2.011e-03 2.438e-03 2.373e-03
94 1 9.203e+00 5.666e+00 7.429e+00 3.268e-03 1.062e-03 2.930e-03
95 1 7.434e+00 5.663e+00 9.205e+00 1.750e-03 1.861e-03 -5.897e-04
96 1 3.499e-01 7.433e+00 7.429e+00 3.015e-03 1.581e-04 6.945e-04
97 1 2.124e+00 9.204e+00 7.432e+00 1.055e-03 1.309e-03 2.102e-03
98 1 2.123e+00 7.435e+00 9.205e+00 1.650e-03 8.630e-04 1.760e-03
99 1 3.521e-01 9.203e+00 9.205e+00 2.083e-03 2.018e-03 2.053e-03
100 1 3.898e+00 7.434e+00 7.432e+00 3.204e-03 -1.517e-03 -9.898e-04
101 1 5.666e+00 9.203e+00 7.432e+00 3.718e-03 5.056e-05 -1.098e-03
102 1 5.660e+00 7.436e+00 9.206e+00 2.701e-03 3.553e-03 3.121e-03
103 1 3.895e+00 9.203e+00 9.203e+00 1.851e-03 1.803e-03 2.081e-03
104 1 7.433e+00 7.434e+00 7.443e+00 -3.349e-03 1.889e-02 1.541e-02
105 1 9.200e+00 9.202e+00 7.431e+00 3.424e-03 2.220e-03 1.176e-03
106 1 9.207e+00 7.434e+00 9.203e+00 1.965e-03 2.994e-03 1.359e-03
107 1 7.435e+00 9.205e+00 9.204e+00 2.414e-03 4.705e-03 5.884e-03
ITEM: TIMESTEP
0
ITEM: NUMBER OF ATOMS
107
ITEM: BOX BOUNDS xy xz yz pp pp pp
                     0.00000000000000e+00 1.06000000000000e+01 0.00000000000000e+00
0.00000000000000e+00	1.06000000000000e+01	0.00000000000000e+00
0.00000000000000e+00	1.06000000000000e+01	0.00000000000000e+00
ITEM: ATOMS id type x y z DisplacementX DisplacementY DisplacementZ
1 1 3.537e-01 3.539e-01 3.557e-01 2.650e-03 -6.206e-04 3.355e-03
2 1 2.122e+00 2.124e+00 3.538e-01 2.372e-03 -4.126e-04 3.443e-03
3 1 2.125e+00 3.510e-01 2.124e+00 3.105e-03 -6.487e-04 3.192e-03
4 1 3.528e-01 2.125e+00 2.124e+00 3.622e-03 -3.316e-05 4.563e-03
5 1 3.894e+00 3.523e-01 3.542e-01 2.120e-03 -9.862e-05 2.998e-03
6 1 5.664e+00 2.123e+00 3.538e-01 2.068e-03 -1.088e-04 3.823e-03
7 1 5.664e+00 3.530e-01 2.126e+00 1.214e-03 6.842e-04 3.241e-03
8 1 3.895e+00 2.124e+00 2.124e+00 2.088e-03 -7.736e-05 4.057e-03
9 1 7.433e+00 3.522e-01 3.574e-01 2.233e-03 3.225e-04 3.767e-03
10 1 9.202e+00 2.123e+00 3.552e-01 2.921e-03 7.218e-05 3.888e-03
11 1 9.203e+00 3.530e-01 2.126e+00 2.893e-03 -5.861e-04 5.387e-03
12 1 7.434e+00 2.124e+00 2.122e+00 1.828e-03 -6.607e-05 8.052e-04
13 1 3.537e-01 3.895e+00 3.555e-01 2.944e-03 -2.970e-04 3.809e-03
14 1 2.124e+00 3.894e+00 2.124e+00 2.234e-03 -1.049e-03 3.844e-03
15 1 3.894e+00 3.896e+00 3.572e-01 1.858e-03 -7.558e-04 3.788e-03
16 1 5.665e+00 3.896e+00 2.127e+00 3.929e-03 1.082e-04 6.218e-03
17 1 7.433e+00 3.898e+00 3.568e-01 3.708e-03 -1.773e-04 6.305e-03
18 1 9.201e+00 3.896e+00 2.126e+00 5.504e-03 1.035e-03 5.455e-03
19 1 3.501e-01 3.489e-01 3.894e+00 4.391e-04 -2.905e-03 2.765e-03
20 1 2.127e+00 2.127e+00 3.894e+00 2.564e-03 -2.838e-04 4.362e-03
21 1 3.898e+00 3.490e-01 3.895e+00 5.808e-03 1.685e-03 3.801e-03
22 1 5.661e+00 2.123e+00 3.893e+00 2.024e-04 -2.147e-03 1.589e-03
23 1 7.433e+00 3.636e-01 3.894e+00 5.606e-03 3.032e-03 1.239e-02
24 1 9.208e+00 2.126e+00 3.893e+00 7.667e-03 1.514e-03 4.647e-03
25 1 3.515e-01 3.896e+00 3.892e+00 1.474e-03 -1.594e-05 3.917e-03
26 1 3.896e+00 3.898e+00 3.894e+00 4.931e-03 -2.772e-05 6.012e-03
27 1 7.435e+00 3.886e+00 3.894e+00 3.146e-03 1.381e-03 3.567e-04
28 1 2.124e+00 3.541e-01 5.664e+00 2.612e-03 -2.699e-04 3.928e-03
29 1 3.532e-01 2.124e+00 5.663e+00 2.842e-03 -2.445e-04 4.121e-03
30 1 5.667e+00 3.510e-01 5.662e+00 5.732e-03 1.088e-03 5.843e-03
31 1 3.896e+00 2.125e+00 5.663e+00 2.977e-03 3.482e-05 4.216e-03
32 1 9.202e+00 3.512e-01 5.663e+00 1.512e-03 -9.900e-04 3.807e-03
33 1 7.433e+00 2.123e+00 5.666e+00 4.090e-03 3.544e-04 5.990e-03
34 1 2.124e+00 3.895e+00 5.664e+00 2.273e-03 -3.062e-04 3.232e-03
35 1 5.665e+00 3.898e+00 5.663e+00 3.384e-03 6.514e-04 4.538e-03
36 1 9.205e+00 3.896e+00 5.662e+00 1.888e-03 1.566e-03 4.871e-03
37 1 3.538e-01 3.528e-01 7.434e+00 1.542e-03 -9.515e-04 3.294e-03
38 1 2.125e+00 2.123e+00 7.434e+00 2.395e-03 -2.903e-04 3.564e-03
39 1 2.124e+00 3.539e-01 9.206e+00 2.257e-03 -3.708e-04 3.266e-03
40 1 3.553e-01 2.124e+00 9.205e+00 2.417e-03 -3.182e-04 3.425e-03
41 1 3.894e+00 3.535e-01 7.432e+00 3.016e-03 3.283e-04 3.559e-03
42 1 5.665e+00 2.124e+00 7.433e+00 3.101e-03 4.586e-04 4.394e-03
43 1 5.665e+00 3.525e-01 9.202e+00 1.899e-03 2.262e-04 2.755e-03
44 1 3.893e+00 2.124e+00 9.204e+00 2.104e-03 -3.169e-04 3.366e-03
45 1 7.434e+00 3.520e-01 7.431e+00 1.683e-03 -2.093e-04 1.627e-03
46 1 9.202e+00 2.125e+00 7.433e+00 1.993e-03 -1.581e-04 4.131e-03
47 1 9.203e+00 3.532e-01 9.205e+00 2.021e-03 -3.326e-04 3.133e-03
48 1 7.434e+00 2.125e+00 9.203e+00 1.843e-03 -6.270e-05 3.706e-03
49 1 3.515e-01 3.896e+00 7.433e+00 1.724e-03 -8.039e-05 2.802e-03
50 1 2.124e+00 3.895e+00 9.205e+00 2.123e-03 -4.696e-04 3.229e-03
51 1 3.894e+00 3.896e+00 7.435e+00 2.509e-03 -4.256e-04 3.362e-03
52 1 5.665e+00 3.895e+00 9.203e+00 1.399e-03 -7.310e-04 2.868e-03
53 1 7.434e+00 3.898e+00 7.432e+00 1.164e-03 2.591e-04 2.162e-03
54 1 9.204e+00 3.896e+00 9.205e+00 2.074e-03 -2.951e-04 2.740e-03
55 1 2.125e+00 5.666e+00 3.550e-01 2.293e-03 -1.047e-03 3.363e-03
56 1 3.519e-01 5.665e+00 2.125e+00 2.780e-03 -7.282e-04 3.700e-03
57 1 5.667e+00 5.666e+00 3.569e-01 3.039e-04 -4.203e-05 1.672e-03
58 1 3.898e+00 5.664e+00 2.125e+00 3.173e-03 -2.615e-03 4.121e-03
59 1 9.202e+00 5.666e+00 3.567e-01 1.934e-03 -7.304e-04 3.502e-03
60 1 7.435e+00 5.674e+00 2.133e+00 3.372e-02 5.459e-02 1.928e-01
61 1 3.515e-01 7.434e+00 3.563e-01 3.071e-03 -1.951e-03 4.020e-03
62 1 2.125e+00 9.203e+00 3.549e-01 2.480e-03 -1.136e-03 2.315e-03
63 1 2.122e+00 7.434e+00 2.121e+00 1.848e-03 -2.506e-05 1.446e-04
64 1 3.506e-01 9.204e+00 2.125e+00 2.701e-03 -2.192e-03 1.518e-03
65 1 3.897e+00 7.433e+00 3.591e-01 2.699e-03 -6.212e-04 3.737e-03
66 1 5.665e+00 9.202e+00 3.566e-01 2.080e-03 5.331e-04 2.557e-03
67 1 5.673e+00 7.434e+00 2.132e+00 5.052e-01 2.094e-01 2.750e-01
68 1 3.896e+00 9.202e+00 2.125e+00 3.744e-03 -6.990e-04 2.841e-03
69 1 7.433e+00 7.433e+00 3.423e-01 -5.958e-03 1.339e-03 -1.076e-02
70 1 9.201e+00 9.202e+00 3.569e-01 2.268e-03 -4.596e-04 2.649e-03
71 1 9.195e+00 7.434e+00 2.134e+00 -2.595e-01 -6.311e-02 6.111e-02
72 1 7.435e+00 9.196e+00 2.133e+00 1.082e-01 -1.010e-01 7.273e-02
73 1 2.124e+00 5.663e+00 3.896e+00 3.348e-03 -1.132e-03 1.271e-03
74 1 5.673e+00 5.674e+00 3.893e+00 3.150e-01 2.303e-01 9.021e-02
75 1 9.194e+00 5.673e+00 3.893e+00 -1.756e-01 -8.397e-02 5.037e-02
76 1 3.624e-01 7.434e+00 3.895e+00 1.777e-02 4.853e-03 6.322e-03
77 1 2.123e+00 9.207e+00 3.894e+00 3.511e-03 1.593e-04 4.296e-03
78 1 3.884e+00 7.434e+00 3.895e+00 -1.030e-02 -8.851e-03 -2.708e-03
79 1 5.673e+00 9.194e+00 3.894e+00 2.070e-02 -3.533e-02 -7.638e-02
80 1 9.195e+00 9.194e+00 3.895e+00 -2.014e-01 -7.955e-02 -1.649e-01
81 1 3.521e-01 5.665e+00 5.663e+00 -4.070e-04 -1.349e-03 1.866e-03
82 1 3.895e+00 5.667e+00 5.663e+00 5.130e-03 4.842e-04 2.993e-03
83 1 7.433e+00 5.673e+00 5.654e+00 -4.262e-02 4.528e-02 -6.799e-02
84 1 2.126e+00 7.435e+00 5.665e+00 5.336e-03 -1.527e-03 4.377e-03
85 1 3.519e-01 9.203e+00 5.661e+00 5.235e-04 -1.183e-03 2.818e-03
86 1 5.674e+00 7.433e+00 5.656e+00 2.430e-03 3.174e-02 -1.289e-01
87 1 3.895e+00 9.203e+00 5.660e+00 5.007e-03 -3.390e-04 3.400e-03
88 1 9.194e+00 7.434e+00 5.653e+00 -7.814e-02 -4.503e-02 -7.381e-02
89 1 7.434e+00 9.194e+00 5.656e+00 -1.257e-01 -8.234e-02 -2.648e-01
90 1 2.124e+00 5.664e+00 7.433e+00 2.223e-03 -4.335e-04 2.678e-03
91 1 3.507e-01 5.664e+00 9.203e+00 2.408e-03 -2.003e-04 2.547e-03
92 1 5.665e+00 5.665e+00 7.431e+00 1.699e-03 -2.513e-03 2.558e-03
93 1 3.894e+00 5.663e+00 9.203e+00 7.617e-04 -1.151e-03 2.605e-03
94 1 9.203e+00 5.666e+00 7.429e+00 1.393e-03 8.440e-04 5.844e-04
95 1 7.434e+00 5.663e+00 9.205e+00 2.633e-03 -1.236e-04 1.280e-03
96 1 3.499e-01 7.433e+00 7.429e+00 -2.909e-03 -1.582e-03 -4.892e-04
97 1 2.124e+00 9.204e+00 7.432e+00 2.510e-03 -5.388e-04 3.403e-03
98 1 2.123e+00 7.435e+00 9.205e+00 1.360e-03 -6.498e-04 2.875e-03
99 1 3.521e-01 9.203e+00 9.205e+00 1.925e-03 -7.803e-04 2.735e-03
100 1 3.898e+00 7.434e+00 7.432e+00 4.540e-03 9.686e-04 2.148e-03
101 1 5.666e+00 9.203e+00 7.432e+00 1.279e-03 8.885e-04 6.687e-04
102 1 5.660e+00 7.436e+00 9.206e+00 5.960e-08 -2.246e-03 1.188e-03
103 1 3.895e+00 9.203e+00 9.203e+00 1.466e-03 7.587e-05 2.339e-03
104 1 7.433e+00 7.434e+00 7.443e+00 6.548e-03 -1.691e-03 1.139e-02
105 1 9.200e+00 9.202e+00 7.431e+00 -5.237e-05 -1.680e-03 1.176e-03
106 1 9.207e+00 7.434e+00 9.203e+00 5.450e-03 1.249e-03 3.104e-03
107 1 7.435e+00 9.205e+00 9.204e+00 3.094e-03 -2.490e-04 3.925e-03
ITEM: TIMESTEP
0
ITEM: NUMBER OF ATOMS
107
ITEM: BOX BOUNDS xy xz yz pp pp pp
                     0.00000000000000e+00 1.06000000000000e+01 0.00000000000000e+00
0.00000000000000e+00	1.06000000000000e+01	0.00000000000000e+00
0.00000000000000e+00	1.06000000000000e+01	0.00000000000000e+00
ITEM: ATOMS id type x y z DisplacementX DisplacementY DisplacementZ
1 1 3.537e-01 3.539e-01 3.557e-01 -1.742e-03 2.050e-03 1.888e-03
2 1 2.122e+00 2.124e+00 3.538e-01 -1.994e-03 2.596e-03 1.333e-03
3 1 2.125e+00 3.510e-01 2.124e+00 -1.204e-03 2.258e-03 1.627e-03
4 1 3.528e-01 2.125e+00 2.124e+00 -2.259e-03 3.169e-03 8.320e-04
5 1 3.894e+00 3.523e-01 3.542e-01 -1.525e-03 2.136e-03 1.833e-03
6 1 5.664e+00 2.123e+00 3.538e-01 -2.525e-03 2.886e-03 8.770e-04
7 1 5.664e+00 3.530e-01 2.126e+00 -9.075e-04 3.586e-03 8.449e-04
8 1 3.895e+00 2.124e+00 2.124e+00 -2.695e-03 3.164e-03 1.168e-03
9 1 7.433e+00 3.522e-01 3.574e-01 -1.927e-03 1.650e-04 4.340e-03
10 1 9.202e+00 2.123e+00 3.552e-01 -2.488e-03 3.050e-03 9.744e-04
11 1 9.203e+00 3.530e-01 2.126e+00 -2.019e-03 3.764e-03 1.762e-03
12 1 7.434e+00 2.124e+00 2.122e+00 -8.090e-04 2.876e-03 -7.618e-04
13 1 3.537e-01 3.895e+00 3.555e-01 -2.370e-03 2.725e-03 1.038e-03
14 1 2.124e+00 3.894e+00 2.124e+00 -1.781e-03 2.946e-03 1.293e-03
15 1 3.894e+00 3.896e+00 3.572e-01 -2.166e-03 2.692e-03 1.305e-03
16 1 5.665e+00 3.896e+00 2.127e+00 -3.975e-03 2.361e-03 7.625e-04
17 1 7.433e+00 3.898e+00 3.568e-01 -3.260e-03 3.630e-03 5.534e-04
18 1 9.201e+00 3.896e+00 2.126e+00 -3.737e-03 3.358e-03 -5.728e-04
19 1 3.501e-01 3.489e-01 3.894e+00 -4.478e-03 2.257e-03 3.534e-03
20 1 2.127e+00 2.127e+00 3.894e+00 -2.687e-03 3.494e-03 1.133e-03
21 1 3.898e+00 3.490e-01 3.895e+00 -6.173e-04 1.621e-03 1.800e-05
22 1 5.661e+00 2.123e+00 3.893e+00 -2.714e-03 1.902e-03 3.231e-03
23 1 7.433e+00 3.636e-01 3.894e+00 -1.087e-03 1.236e-02 -5.079e-03
24 1 9.208e+00 2.126e+00 3.893e+00 8.574e-04 1.885e-03 -9.094e-04
25 1 3.515e-01 3.896e+00 3.892e+00 -1.790e-03 4.094e-03 1.259e-03
26 1 3.896e+00 3.898e+00 3.894e+00 -1.180e-03 4.529e-03 -3.633e-04
27 1 7.435e+00 3.886e+00 3.894e+00 -6.481e-03 -5.072e-03 4.049e-03
28 1 2.124e+00 3.541e-01 5.664e+00 -1.980e-03 2.613e-03 9.040e-04
29 1 3.532e-01 2.124e+00 5.663e+00 -2.253e-03 2.962e-03 1.231e-03
30 1 5.667e+00 3.510e-01 5.662e+00 -3.518e-03 2.165e-03 6.263e-04
31 1 3.896e+00 2.125e+00 5.663e+00 -2.823e-03 3.064e-03 1.127e-03
32 1 9.202e+00 3.512e-01 5.663e+00 -5.601e-03 4.066e-03 1.638e-03
33 1 7.433e+00 2.123e+00 5.666e+00 -1.044e-03 1.565e-03 2.642e-03
34 1 2.124e+00 3.895e+00 5.664e+00 -1.384e-03 2.803e-03 2.167e-03
35 1 5.665e+00 3.898e+00 5.663e+00 -2.602e-03 4.534e-03 6.553e-05
36 1 9.205e+00 3.896e+00 5.662e+00 -4.111e-04 2.739e-03 6.230e-04
37 1 3.538e-01 3.528e-01 7.434e+00 -2.710e-03 2.493e-03 1.453e-03
38 1 2.125e+00 2.123e+00 7.434e+00 -2.091e-03 2.527e-03 1.517e-03
39 1 2.124e+00 3.539e-01 9.206e+00 -1.877e-03 2.276e-03 1.459e-03
40 1 3.553e-01 2.124e+00 9.205e+00 -2.052e-03 2.397e-03 1.414e-03
41 1 3.894e+00 3.535e-01 7.432e+00 -2.142e-03 2.337e-03 7.979e-04
42 1 5.665e+00 2.124e+00 7.433e+00 -2.898e-03 2.770e-03 1.241e-03
43 1 5.665e+00 3.525e-01 9.202e+00 -2.044e-03 1.983e-03 1.428e-03
44 1 3.893e+00 2.124e+00 9.204e+00 -2.218e-03 2.483e-03 1.522e-03
45 1 7.434e+00 3.520e-01 7.431e+00 -3.787e-03 2.094e-03 -2.758e-04
46 1 9.202e+00 2.125e+00 7.433e+00 -2.814e-03 2.870e-03 1.541e-03
47 1 9.203e+00 3.532e-01 9.205e+00 -1.990e-03 1.666e-03 1.383e-03
48 1 7.434e+00 2.125e+00 9.203e+00 -3.246e-03 2.684e-03 1.490e-03
49 1 3.515e-01 3.896e+00 7.433e+00 -1.328e-03 2.224e-03 1.784e-03
50 1 2.124e+00 3.895e+00 9.205e+00 -1.897e-03 2.393e-03 1.594e-03
51 1 3.894e+00 3.896e+00 7.435e+00 -1.928e-03 2.837e-03 1.671e-03
52 1 5.665e+00 3.895e+00 9.203e+00 -2.198e-03 2.366e-03 1.938e-03
53 1 7.434e+00 3.898e+00 7.432e+00 -1.198e-03 3.686e-03 6.858e-04
54 1 9.204e+00 3.896e+00 9.205e+00 -1.997e-03 1.902e-03 1.560e-03
55 1 2.125e+00 5.666e+00 3.550e-01 -1.774e-03 2.556e-03 1.113e-03
56 1 3.519e-01 5.665e+00 2.125e+00 -2.013e-03 3.100e-03 1.179e-03
57 1 5.667e+00 5.666e+00 3.569e-01 -1.241e-03 2.429e-03 2.011e-03
58 1 3.898e+00 5.664e+00 2.125e+00 7.245e-05 2.243e-03 8.166e-04
59 1 9.202e+00 5.666e+00 3.567e-01 -8.959e-04 1.608e-03 1.710e-03
60 1 7.435e+00 5.674e+00 2.133e+00 6.670e-02 3.736e-02 1.520e-01
61 1 3.515e-01 7.434e+00 3.563e-01 -2.329e-03 8.979e-04 3.302e-03
62 1 2.125e+00 9.203e+00 3.549e-01 -6.470e-04 2.108e-03 1.596e-03
63 1 2.122e+00 7.434e+00 2.121e+00 -5.765e-04 2.920e-03 -2.877e-04
64 1 3.506e-01 9.204e+00 2.125e+00 -3.384e-04 1.293e-03 2.858e-03
65 1 3.897e+00 7.433e+00 3.591e-01 3.759e-04 1.136e-03 2.765e-03
66 1 5.665e+00 9.202e+00 3.566e-01 -1.678e-03 -6.824e-04 3.742e-03
67 1 5.673e+00 7.434e+00 2.132e+00 4.921e-02 -1.667e-02 -1.843e-02
68 1 3.896e+00 9.202e+00 2.125e+00 6.461e-04 1.835e-03 2.274e-03
69 1 7.433e+00 7.433e+00 3.423e-01 -7.764e-04 4.269e-03 -6.848e-03
70 1 9.201e+00 9.202e+00 3.569e-01 -2.829e-03 2.783e-04 2.970e-03
71 1 9.195e+00 7.434e+00 2.134e+00 -1.896e-01 -1.575e-02 2.960e-01
72 1 7.435e+00 9.196e+00 2.133e+00 -9.226e-02 -6.912e-02 7.554e-02
73 1 2.124e+00 5.663e+00 3.896e+00 -1.521e-03 -2.058e-04 2.941e-03
74 1 5.673e+00 5.674e+00 3.893e+00 1.927e-01 3.145e-02 -1.977e-01
75 1 9.194e+00 5.673e+00 3.893e+00 -2.241e-01 -2.944e-03 4.510e-02
76 1 3.624e-01 7.434e+00 3.895e+00 8.713e-03 3.182e-03 -5.956e-03
77 1 2.123e+00 9.207e+00 3.894e+00 5.733e-04 3.399e-03 2.373e-04
78 1 3.884e+00 7.434e+00 3.895e+00 -6.674e-03 6.603e-04 1.004e-02
79 1 5.673e+00 9.194e+00 3.894e+00 -3.487e-02 -6.937e-02 3.675e-02
80 1 9.195e+00 9.194e+00 3.895e+00 -1.171e-01 -1.835e-01 1.083e-01
81 1 3.521e-01 5.665e+00 5.663e+00 -1.332e-04 2.849e-03 3.385e-03
82 1 3.895e+00 5.667e+00 5.663e+00 6.735e-04 2.040e-03 1.499e-03
83 1 7.433e+00 5.673e+00 5.654e+00 4.626e-02 1.806e-01 -3.211e-01
84 1 2.126e+00 7.435e+00 5.665e+00 -2.689e-04 3.115e-04 3.816e-03
85 1 3.519e-01 9.203e+00 5.661e+00 -2.719e-03 2.561e-03 1.662e-03
86 1 5.674e+00 7.433e+00 5.656e+00 1.405e-01 -3.622e-03 -1.819e-01
87 1 3.895e+00 9.203e+00 5.660e+00 -9.701e-04 2.422e-03 -1.819e-05
88 1 9.194e+00 7.434e+00 5.653e+00 -1.668e-01 1.238e-01 -7.979e-02
89 1 7.434e+00 9.194e+00 5.656e+00 9.714e-02 -3.558e-02 3.247e-03
90 1 2.124e+00 5.664e+00 7.433e+00 -7.100e-04 2.100e-03 2.296e-03
91 1 3.507e-01 5.664e+00 9.203e+00 -1.396e-03 1.580e-03 1.520e-03
92 1 5.665e+00 5.665e+00 7.431e+00 -2.402e-03 1.771e-03 2.373e-03
93 1 3.894e+00 5.663e+00 9.203e+00 -2.060e-03 2.437e-03 2.204e-03
94 1 9.203e+00 5.666e+00 7.429e+00 -1.712e-03 1.040e-03 1.066e-03
95 1 7.434e+00 5.663e+00 9.205e+00 -8.624e-04 -8.349e-04 2.533e-03
96 1 3.499e-01 7.433e+00 7.429e+00 -1.741e-03 1.580e-03 2.202e-03
97 1 2.124e+00 9.204e+00 7.432e+00 -2.227e-03 2.110e-03 1.633e-03
98 1 2.123e+00 7.435e+00 9.205e+00 -1.699e-03 2.059e-03 1.746e-03
99 1 3.521e-01 9.203e+00 9.205e+00 -1.511e-03 1.569e-03 1.619e-03
100 1 3.898e+00 7.434e+00 7.432e+00 -3.929e-04 3.239e-03 -7.908e-04
101 1 5.666e+00 9.203e+00 7.432e+00 -3.831e-04 2.295e-03 -3.176e-04
102 1 5.660e+00 7.436e+00 9.206e+00 -2.206e-03 5.634e-04 3.337e-03
103 1 3.895e+00 9.203e+00 9.203e+00 -1.704e-03 1.594e-03 1.881e-03
104 1 7.433e+00 7.434e+00 7.443e+00 -1.010e-03 -4.160e-03 1.034e-02
105 1 9.200e+00 9.202e+00 7.431e+00 -4.829e-04 1.114e-03 8.570e-04
106 1 9.207e+00 7.434e+00 9.203e+00 9.975e-04 2.458e-03 5.960e-04
107 1 7.435e+00 9.205e+00 9.204e+00 -1.634e-04 3.870e-03 -5.430e-05
ITEM: TIMESTEP
0
ITEM: NUMBER OF ATOMS
107
ITEM: BOX BOUNDS xy xz yz pp pp pp
                     0.00000000000000e+00 1.06000000000000e+01 0.00000000000000e+00
0.00000000000000e+00	1.06000000000000e+01	0.00000000000000e+00
0.00000000000000e+00	1.06000000000000e+01	0.00000000000000e+00
ITEM: ATOMS id type x y z DisplacementX DisplacementY DisplacementZ
1 1 3.537e-01 3.539e-01 3.557e-01 -5.199e-04 -1.270e-03 2.760e-03
2 1 2.122e+00 2.124e+00 3.538e-01 -3.805e-04 -1.041e-03 2.516e-03
3 1 2.125e+00 3.510e-01 2.124e+00 7.200e-04 -1.162e-03 2.873e-03
4 1 3.528e-01 2.125e+00 2.124e+00 -3.584e-04 -1.482e-03 2.871e-03
5 1 3.894e+00 3.523e-01 3.542e-01 -4.708e-04 -1.186e-03 2.474e-03
6 1 5.664e+00 2.123e+00 3.538e-01 -5.265e-04 -6.547e-04 1.889e-03
7 1 5.664e+00 3.530e-01 2.126e+00 -1.820e-04 -1.855e-03 3.065e-03
8 1 3.895e+00 2.124e+00 2.124e+00 -7.963e-04 -9.249e-04 2.200e-03
9 1 7.433e+00 3.522e-01 3.574e-01 -2.721e-03 -3.459e-03 3.686e-03
10 1 9.202e+00 2.123e+00 3.552e-01 -6.814e-04 -1.061e-03 2.176e-03
11 1 9.203e+00 3.530e-01 2.126e+00 -8.289e-04 -3.594e-03 3.280e-03
12 1 7.434e+00 2.124e+00 2.122e+00 -1.471e-04 5.852e-04 7.288e-04
13 1 3.537e-01 3.895e+00 3.555e-01 -1.301e-04 -1.280e-03 2.492e-03
14 1 2.124e+00 3.894e+00 2.124e+00 4.808e-04 -1.623e-03 2.981e-03
15 1 3.894e+00 3.896e+00 3.572e-01 -6.551e-04 -4.997e-04 2.430e-03
16 1 5.665e+00 3.896e+00 2.127e+00 -1.775e-03 2.804e-04 1.324e-03
17 1 7.433e+00 3.898e+00 3.568e-01 -1.504e-04 4.496e-04 2.108e-03
18 1 9.201e+00 3.896e+00 2.126e+00 -2.612e-04 9.492e-05 1.707e-03
19 1 3.501e-01 3.489e-01 3.894e+00 -8.981e-04 -2.471e-03 2.947e-03
20 1 2.127e+00 2.127e+00 3.894e+00 -3.070e-05 -1.478e-03 3.349e-03
21 1 3.898e+00 3.490e-01 3.895e+00 6.569e-04 -4.962e-03 5.762e-03
22 1 5.661e+00 2.123e+00 3.893e+00 -1.500e-03 -1.357e-04 6.928e-05
23 1 7.433e+00 3.636e-01 3.894e+00 1.952e-03 1.478e-02 -6.809e-03
24 1 9.208e+00 2.126e+00 3.893e+00 8.190e-04 -2.004e-03 3.981e-03
25 1 3.515e-01 3.896e+00 3.892e+00 9.174e-05 5.050e-04 1.155e-03
26 1 3.896e+00 3.898e+00 3.894e+00 9.746e-04 7.668e-04 2.462e-03
27 1 7.435e+00 3.886e+00 3.894e+00 -5.146e-03 -1.753e-02 1.216e-02
28 1 2.124e+00 3.541e-01 5.664e+00 3.076e-04 -1.162e-03 3.087e-03
29 1 3.532e-01 2.124e+00 5.663e+00 -4.893e-04 -1.003e-03 2.835e-03
30 1 5.667e+00 3.510e-01 5.662e+00 -2.513e-03 -2.289e-03 4.427e-03
31 1 3.896e+00 2.125e+00 5.663e+00 -5.412e-04 -1.100e-03 2.832e-03
32 1 9.202e+00 3.512e-01 5.663e+00 -2.047e-03 -1.107e-03 8.720e-04
33 1 7.433e+00 2.123e+00 5.666e+00 -1.049e-03 -3.033e-03 3.198e-03
34 1 2.124e+00 3.895e+00 5.664e+00 -5.216e-04 -1.882e-03 3.120e-03
35 1 5.665e+00 3.898e+00 5.663e+00 1.394e-03 -6.968e-04 2.037e-03
36 1 9.205e+00 3.896e+00 5.662e+00 -5.685e-04 2.561e-04 3.404e-03
37 1 3.538e-01 3.528e-01 7.434e+00 -6.344e-04 -6.969e-04 2.264e-03
38 1 2.125e+00 2.123e+00 7.434e+00 -5.826e-04 -1.109e-03 2.807e-03
39 1 2.124e+00 3.539e-01 9.206e+00 -4.712e-04 -8.861e-04 2.552e-03
40 1 3.553e-01 2.124e+00 9.205e+00 -6.787e-04 -9.659e-04 2.562e-03
41 1 3.894e+00 3.535e-01 7.432e+00 -6.023e-04 -1.463e-03 3.195e-03
42 1 5.665e+00 2.124e+00 7.433e+00 -1.231e-03 -1.191e-03 2.953e-03
43 1 5.665e+00 3.525e-01 9.202e+00 -1.098e-03 -4.168e-04 1.966e-03
44 1 3.893e+00 2.124e+00 9.204e+00 -7.584e-04 -8.526e-04 2.452e-03
45 1 7.434e+00 3.520e-01 7.431e+00 -1.401e-03 -2.345e-03 3.237e-03
46 1 9.202e+00 2.125e+00 7.433e+00 -1.234e-03 -7.211e-04 2.725e-03
47 1 9.203e+00 3.532e-01 9.205e+00 -1.057e-03 -1.726e-04 1.814e-03
48 1 7.434e+00 2.125e+00 9.203e+00 -1.478e-03 -4.264e-04 2.344e-03
49 1 3.515e-01 3.896e+00 7.433e+00 -1.060e-03 -7.127e-04 2.452e-03
50 1 2.124e+00 3.895e+00 9.205e+00 -6.174e-04 -1.096e-03 2.628e-03
51 1 3.894e+00 3.896e+00 7.435e+00 -4.825e-04 -8.251e-04 2.445e-03
52 1 5.665e+00 3.895e+00 9.203e+00 -1.638e-03 -4.270e-04 2.302e-03
53 1 7.434e+00 3.898e+00 7.432e+00 -1.613e-03 3.299e-03 -9.895e-04
54 1 9.204e+00 3.896e+00 9.205e+00 -1.305e-03 -1.109e-03 2.208e-03
55 1 2.125e+00 5.666e+00 3.550e-01 -2.833e-05 -9.624e-04 2.301e-03
56 1 3.519e-01 5.665e+00 2.125e+00 8.275e-04 -2.369e-03 2.736e-03
57 1 5.667e+00 5.666e+00 3.569e-01 -1.883e-03 -1.084e-04 3.736e-03
58 1 3.898e+00 5.664e+00 2.125e+00 2.181e-03 -5.653e-04 3.583e-03
59 1 9.202e+00 5.666e+00 3.567e-01 2.679e-04 -1.783e-03 2.961e-03
60 1 7.435e+00 5.674e+00 2.133e+00 3.476e-02 1.357e-01 -9.245e-03
61 1 3.515e-01 7.434e+00 3.563e-01 7.840e-04 -2.277e-03 2.891e-03
62 1 2.125e+00 9.203e+00 3.549e-01 8.441e-04 -1.284e-03 2.708e-03
63 1 2.122e+00 7.434e+00 2.121e+00 -1.410e-03 5.990e-05 2.631e-04
64 1 3.506e-01 9.204e+00 2.125e+00 1.661e-03 -1.316e-03 2.957e-03
65 1 3.897e+00 7.433e+00 3.591e-01 -9.264e-05 -1.116e-03 3.970e-03
66 1 5.665e+00 9.202e+00 3.566e-01 -3.735e-03 -6.563e-04 1.843e-03
67 1 5.673e+00 7.434e+00 2.132e+00 1.068e-01 -1.979e-01 3.024e-01
68 1 3.896e+00 9.202e+00 2.125e+00 1.514e-03 -2.566e-03 3.203e-03
69 1 7.433e+00 7.433e+00 3.423e-01 -5.472e-03 6.943e-03 -6.828e-03
70 1 9.201e+00 9.202e+00 3.569e-01 -2.695e-03 -3.057e-04 2.127e-03
71 1 9.195e+00 7.434e+00 2.134e+00 -9.153e-02 1.268e-02 1.187e-02
72 1 7.435e+00 9.196e+00 2.133e+00 8.111e-02 -3.052e-01 3.374e-01
73 1 2.124e+00 5.663e+00 3.896e+00 -2.124e-04 -4.861e-03 4.120e-03
74 1 5.673e+00 5.674e+00 3.893e+00 9.542e-02 3.440e-02 3.369e-02
75 1 9.194e+00 5.673e+00 3.893e+00 -4.730e-02 3.218e-01 -2.306e-01
76 1 3.624e-01 7.434e+00 3.895e+00 6.349e-03 -6.009e-03 1.104e-02
77 1 2.123e+00 9.207e+00 3.894e+00 9.870e-04 2.138e-03 4.731e-04
78 1 3.884e+00 7.434e+00 3.895e+00 -8.456e-04 7.302e-04 -3.264e-03
79 1 5.673e+00 9.194e+00 3.894e+00 -7.315e-02 -1.131e-01 4.713e-02
80 1 9.195e+00 9.194e+00 3.895e+00 -7.330e-02 -1.602e-01 4.067e-02
81 1 3.521e-01 5.665e+00 5.663e+00 4.611e-04 -1.285e-03 1.212e-03
82 1 3.895e+00 5.667e+00 5.663e+00 -4.705e-04 -1.792e-03 5.082e-03
83 1 7.433e+00 5.673e+00 5.654e+00 1.243e-01 1.414e-01 -1.137e-01
84 1 2.126e+00 7.435e+00 5.665e+00 1.330e-03 -2.315e-03 3.418e-03
85 1 3.519e-01 9.203e+00 5.661e+00 -4.270e-04 -4.305e-04 3.394e-03
86 1 5.674e+00 7.433e+00 5.656e+00 -3.879e-02 1.124e-01 -5.898e-02
87 1 3.895e+00 9.203e+00 5.660e+00 1.753e-03 -3.557e-03 3.412e-03
88 1 9.194e+00 7.434e+00 5.653e+00 5.697e-03 4.821e-02 -1.213e-01
89 1 7.434e+00 9.194e+00 5.656e+00 -4.926e-02 -6.024e-02 -6.485e-02
90 1 2.124e+00 5.664e+00 7.433e+00 -1.775e-04 -1.668e-03 3.624e-03
91 1 3.507e-01 5.664e+00 9.203e+00 -9.739e-04 -9.037e-04 2.513e-03
92 1 5.665e+00 5.665e+00 7.431e+00 -1.416e-03 1.285e-03 -8.215e-04
93 1 3.894e+00 5.663e+00 9.203e+00 -8.966e-04 -3.063e-04 1.804e-03
94 1 9.203e+00 5.666e+00 7.429e+00 -3.744e-03 1.172e-03 -6.518e-04
95 1 7.434e+00 5.663e+00 9.205e+00 -2.272e-03 -4.978e-03 4.526e-03
96 1 3.499e-01 7.433e+00 7.429e+00 -2.150e-03 1.033e-03 -2.409e-04
97 1 2.124e+00 9.204e+00 7.432e+00 -4.283e-04 -1.135e-03 2.970e-03
98 1 2.123e+00 7.435e+00 9.205e+00 -4.255e-04 -9.724e-04 2.891e-03
99 1 3.521e-01 9.203e+00 9.205e+00 -6.159e-04 -8.655e-04 2.304e-03
100 1 3.898e+00 7.434e+00 7.432e+00 3.708e-04 -1.566e-03 3.261e-03
101 1 5.666e+00 9.203e+00 7.432e+00 4.430e-04 -1.342e-03 3.007e-03
102 1 5.660e+00 7.436e+00 9.206e+00 -9.074e-04 -3.706e-04 -7.492e-04
103 1 3.895e+00 9.203e+00 9.203e+00 -1.099e-03 -6.584e-04 2.388e-03
104 1 7.433e+00 7.434e+00 7.443e+00 -1.127e-03 -5.870e-03 7.414e-03
105 1 9.200e+00 9.202e+00 7.431e+00 4.059e-04 -8.955e-04 9.923e-04
106 1 9.207e+00 7.434e+00 9.203e+00 6.287e-05 -1.405e-03 3.774e-03
107 1 7.435e+00 9.205e+00 9.204e+00 2.179e-04 3.009e-03 -1.028e-03
ITEM: TIMESTEP
0
ITEM: NUMBER OF ATOMS
107
ITEM: BOX BOUNDS xy xz yz pp pp pp
                     0.00000000000000e+00 1.06000000000000e+01 0.00000000000000e+00
0.00000000000000e+00	1.06000000000000e+01	0.00000000000000e+00
0.00000000000000e+00	1.06000000000000e+01	0.00000000000000e+00