ITEM: TIMESTEP
0
ITEM: NUMBER OF ATOMS
12
ITEM: BOX BOUNDS xy xz yz pp pp pp
                     -5.00000000000000e-01 5.00000000000000e-01 0.00000000000000e+00
-5.00000000000000e-01	5.00000000000000e-01	0.00000000000000e+00
-5.00000000000000e-01	5.00000000000000e-01	0.00000000000000e+00
ITEM: ATOMS id type x y z DisplacementX DisplacementY DisplacementZ
1 1 0.000e+00 0.000e+00 0.000e+00 9.971e-02 -1.214e-03 -1.336e-03
2 1 0.000e+00 1.000e-01 0.000e+00 -3.762e-04 -1.420e-04 -6.564e-04
3 1 -1.000e-01 1.000e-01 0.000e+00 6.634e-04 -6.098e-04 1.047e-03
4 1 1.000e-01 -1.000e-01 0.000e+00 6.352e-04 -2.960e-04 -9.167e-04
5 1 1.000e-01 1.000e-01 0.000e+00 -5.976e-04 -1.621e-03 1.218e-03
6 1 2.000e-01 0.000e+00 0.000e+00 -1.550e-03 -6.336e-05 5.786e-04
7 1 -2.000e-01 0.000e+00 0.000e+00 -1.605e-03 8.044e-04 6.206e-04
8 1 -1.000e-01 0.000e+00 0.000e+00 9.499e-04 -5.843e-04 -1.998e-04
9 1 0.000e+00 2.000e-01 0.000e+00 -2.565e-04 6.342e-04 -1.789e-03
10 1 0.000e+00 -2.000e-01 0.000e+00 2.953e-04 -3.512e-04 5.892e-04
11 1 0.000e+00 -1.000e-01 0.000e+00 2.412e-04 1.186e-03 -1.550e-03
12 1 -1.000e-01 -1.000e-01 0.000e+00 6.375e-04 -1.547e-03 -1.236e-03
