ITEM: TIMESTEP
0
ITEM: NUMBER OF ATOMS
12
ITEM: BOX BOUNDS xy xz yz pp pp pp
                     -5.00000000000000e-01 5.00000000000000e-01 0.00000000000000e+00
-5.00000000000000e-01	5.00000000000000e-01	0.00000000000000e+00
-5.00000000000000e-01	5.00000000000000e-01	0.00000000000000e+00
ITEM: ATOMS id type x y z DisplacementX DisplacementY DisplacementZ
1 1 0.000e+00 -2.000e-01 0.000e+00 -7.322e-04 5.339e-04 1.234e-04
2 1 0.000e+00 0.000e+00 0.000e+00 -7.093e-04 1.004e-01 6.627e-04
3 1 -2.000e-01 0.000e+00 0.000e+00 1.321e-03 7.660e-04 -5.647e-05
4 1 0.000e+00 2.000e-01 0.000e+00 -5.655e-04 -3.944e-04 -4.475e-04
5 1 -1.000e-01 1.000e-01 0.000e+00 6.468e-04 -1.241e-03 -1.520e-03
6 1 1.000e-01 0.000e+00 0.000e+00 9.943e-04 1.215e-03 1.504e-03
7 1 -1.000e-01 0.000e+00 0.000e+00 2.259e-03 -2.860e-04 1.363e-03
8 1 1.000e-01 -1.000e-01 0.000e+00 -1.466e-04 -3.784e-04 -1.789e-04
9 1 0.000e+00 -1.000e-01 0.000e+00 5.337e-04 1.122e-03 1.249e-03
10 1 -1.000e-01 -1.000e-01 0.000e+00 5.037e-04 -3.534e-04 2.379e-04
11 1 2.000e-01 0.000e+00 0.000e+00 1.237e-06 -3.727e-04 -8.419e-05
12 1 1.000e-01 1.000e-01 0.000e+00 -5.807e-04 4.845e-04 -2.371e-04
ITEM: TIMESTEP
0
ITEM: NUMBER OF ATOMS
12
ITEM: BOX BOUNDS xy xz yz pp pp pp
                     -5.00000000000000e-01 5.00000000000000e-01 0.00000000000000e+00
-5.00000000000000e-01	5.00000000000000e-01	0.00000000000000e+00
-5.00000000000000e-01	5.00000000000000e-01	0.00000000000000e+00
ITEM: ATOMS id type x y z DisplacementX DisplacementY DisplacementZ
13 1 0.000e+00 2.000e-01 0.000e+00 -7.368e-04 3.556e-05 -2.373e-04
14 1 1.000e-01 1.000e-01 0.000e+00 5.751e-04 -3.507e-04 2.836e-04
15 1 0.000e+00 -2.000e-01 0.000e+00 -2.300e-04 -1.001e-03 -1.192e-03
16 1 0.000e+00 0.000e+00 0.000e+00 -1.717e-04 -1.007e-01 1.348e-03
17 1 -1.000e-01 -1.000e-01 0.000e+00 1.383e-04 -1.216e-03 -1.754e-03
18 1 -1.000e-01 0.000e+00 0.000e+00 4.253e-05 -1.104e-04 2.474e-04
19 1 0.000e+00 1.000e-01 0.000e+00 6.371e-04 2.529e-04 7.640e-04
20 1 -2.000e-01 0.000e+00 0.000e+00 2.486e-04 8.883e-04 -1.442e-03
21 1 -1.000e-01 1.000e-01 0.000e+00 -6.903e-04 -3.992e-04 -5.274e-04
22 1 2.000e-01 0.000e+00 0.000e+00 2.117e-04 -2.122e-04 -9.637e-05
23 1 1.000e-01 0.000e+00 0.000e+00 -6.132e-04 -3.963e-04 -4.780e-04
24 1 1.000e-01 -1.000e-01 0.000e+00 -3.916e-05 1.431e-03 7.776e-04
ITEM: TIMESTEP
0
ITEM: NUMBER OF ATOMS
12
ITEM: BOX BOUNDS xy xz yz pp pp pp
                     -5.00000000000000e-01 5.00000000000000e-01 0.00000000000000e+00
-5.00000000000000e-01	5.00000000000000e-01	0.00000000000000e+00
-5.00000000000000e-01	5.00000000000000e-01	0.00000000000000e+00
ITEM: ATOMS id type x y z DisplacementX DisplacementY DisplacementZ
25 1 1.000e-01 -1.000e-01 0.000e+00 9.882e-04 -1.114e-03 -5.408e-04
26 1 -1.000e-01 -1.000e-01 0.000e+00 5.275e-04 -1.426e-04 4.070e-04
27 1 1.000e-01 1.000e-01 0.000e+00 -2.180e-04 -3.811e-04 -2.247e-04
28 1 0.000e+00 0.000e+00 0.000e+00 9.881e-02 -2.005e-03 1.156e-03
29 1 0.000e+00 1.000e-01 0.000e+00 -8.902e-04 -8.246e-04 6.925e-04
30 1 -1.000e-01 0.000e+00 0.000e+00 -4.582e-05 -3.745e-04 -1.144e-04
31 1 -1.000e-01 1.000e-01 0.000e+00 2.968e-04 9.028e-04 1.032e-03
32 1 0.000e+00 2.000e-01 0.000e+00 -1.933e-04 1.458e-03 1.138e-03
33 1 0.000e+00 -1.000e-01 0.000e+00 -2.483e-04 -8.218e-04 -6.099e-04
34 1 0.000e+00 -2.000e-01 0.000e+00 1.067e-04 -2.343e-05 2.364e-04
35 1 -2.000e-01 0.000e+00 0.000e+00 -2.146e-06 -3.728e-04 -8.637e-05
36 1 2.000e-01 0.000e+00 0.000e+00 2.264e-03 -9.297e-04 2.534e-03
ITEM: TIMESTEP
0
ITEM: NUMBER OF ATOMS
12
ITEM: BOX BOUNDS xy xz yz pp pp pp
                     -5.00000000000000e-01 5.00000000000000e-01 0.00000000000000e+00
-5.00000000000000e-01	5.00000000000000e-01	0.00000000000000e+00
-5.00000000000000e-01	5.00000000000000e-01	0.00000000000000e+00
ITEM: ATOMS id type x y z DisplacementX DisplacementY DisplacementZ
37 1 0.000e+00 2.000e-01 0.000e+00 -9.185e-04 -4.080e-04 -6.737e-04
38 1 -1.000e-01 -1.000e-01 0.000e+00 -3.810e-04 5.641e-04 -1.298e-04
39 1 -1.000e-01 1.000e-01 0.000e+00 9.873e-04 -3.348e-04 5.478e-04
40 1 1.000e-01 0.000e+00 0.000e+00 -6.792e-04 -2.172e-04 -5.780e-04
41 1 -2.000e-01 0.000e+00 0.000e+00 3.067e-03 -1.121e-03 8.669e-05
42 1 2.000e-01 0.000e+00 0.000e+00 6.295e-04 -3.486e-04 3.185e-04
43 1 0.000e+00 -1.000e-01 0.000e+00 7.906e-04 3.554e-04 4.671e-04
44 1 0.000e+00 -2.000e-01 0.000e+00 -7.650e-04 1.326e-03 6.912e-04
45 1 1.000e-01 1.000e-01 0.000e+00 -7.731e-04 2.302e-03 1.401e-03
46 1 1.000e-01 -1.000e-01 0.000e+00 -6.408e-04 2.458e-04 -2.442e-05
47 1 0.000e+00 1.000e-01 0.000e+00 -6.725e-04 5.591e-04 -1.440e-03
48 1 0.000e+00 0.000e+00 0.000e+00 -9.994e-02 -6.462e-04 7.570e-04
ITEM: TIMESTEP
0
ITEM: NUMBER OF ATOMS
12
ITEM: BOX BOUNDS xy xz yz pp pp pp
                     -5.00000000000000e-01 5.00000000000000e-01 0.00000000000000e+00
-5.00000000000000e-01	5.00000000000000e-01	0.00000000000000e+00
-5.00000000000000e-01	5.00000000000000e-01	0.00000000000000e+00
ITEM: ATOMS id type x y z DisplacementX DisplacementY DisplacementZ
49 1 -1.000e-01 0.000e+00 0.000e+00 4.314e-04 1.071e-03 8.795e-04
50 1 -2.000e-01 0.000e+00 0.000e+00 -1.140e-03 -1.444e-03 -7.178e-04
51 1 0.000e+00 1.000e-01 0.000e+00 -9.117e-04 1.003e-03 3.647e-04
52 1 2.000e-01 0.000e+00 0.000e+00 1.250e-03 -3.247e-04 7.161e-04
53 1 0.000e+00 2.000e-01 0.000e+00 1.504e-03 3.874e-04 1.511e-04
54 1 1.000e-01 0.000e+00 0.000e+00 -5.290e-04 -3.930e-04 -4.241e-04
55 1 1.000e-01 1.000e-01 0.000e+00 -7.047e-04 -3.998e-04 -5.367e-04
56 1 0.000e+00 0.000e+00 0.000e+00 -1.089e-04 -9.892e-02 -5.482e-04
57 1 -1.000e-01 1.000e-01 0.000e+00 9.393e-04 -3.367e-04 5.171e-04
58 1 -1.000e-01 -1.000e-01 0.000e+00 1.531e-03 -7.943e-04 -5.084e-04
59 1 1.000e-01 -1.000e-01 0.000e+00 1.047e-03 -5.834e-04 7.249e-04
60 1 0.000e+00 -2.000e-01 0.000e+00 1.655e-03 -4.874e-05 6.857e-04
ITEM: TIMESTEP
0
ITEM: NUMBER OF ATOMS
12
ITEM: BOX BOUNDS xy xz yz pp pp pp
                     -5.00000000000000e-01 5.00000000000000e-01 0.00000000000000e+00
-5.00000000000000e-01	5.00000000000000e-01	0.00000000000000e+00
-5.00000000000000e-01	5.00000000000000e-01	0.00000000000000e+00
ITEM: ATOMS id type x y z DisplacementX DisplacementY DisplacementZ
61 1 0.000e+00 1.000e-01 0.000e+00 -1.861e-04 -2.042e-04 4.864e-04
62 1 -2.000e-01 0.000e+00 0.000e+00 1.960e-03 -2.975e-04 1.172e-03
63 1 -1.000e-01 0.000e+00 0.000e+00 1.223e-03 -3.258e-04 6.988e-04
64 1 -1.000e-01 1.000e-01 0.000e+00 -9.341e-04 -2.003e-04 -8.512e-04
65 1 -1.000e-01 -1.000e-01 0.000e+00 9.945e-04 -3.346e-04 5.525e-04
66 1 0.000e+00 -2.000e-01 0.000e+00 1.230e-03 -3.255e-04 7.033e-04
67 1 1.000e-01 1.000e-01 0.000e+00 2.757e-04 -3.621e-04 9.175e-05
68 1 0.000e+00 2.000e-01 0.000e+00 6.502e-04 -6.784e-04 -3.532e-04
69 1 0.000e+00 0.000e+00 0.000e+00 9.908e-02 2.223e-04 2.233e-04
70 1 2.000e-01 0.000e+00 0.000e+00 -1.411e-04 4.399e-04 -9.201e-06
71 1 1.000e-01 -1.000e-01 0.000e+00 7.153e-04 8.430e-04 7.406e-04
72 1 0.000e+00 -1.000e-01 0.000e+00 -6.663e-04 -3.983e-04 -5.120e-04
ITEM: TIMESTEP
0
ITEM: NUMBER OF ATOMS
12
ITEM: BOX BOUNDS xy xz yz pp pp pp
                     -5.00000000000000e-01 5.00000000000000e-01 0.00000000000000e+00
-5.00000000000000e-01	5.00000000000000e-01	0.00000000000000e+00
-5.00000000000000e-01	5.00000000000000e-01	0.00000000000000e+00
ITEM: ATOMS id type x y z DisplacementX DisplacementY DisplacementZ
73 1 1.000e-01 0.000e+00 0.000e+00 -1.275e-04 -1.435e-04 -1.771e-04
74 1 1.000e-01 1.000e-01 0.000e+00 -1.547e-03 1.388e-04 -7.606e-04
75 1 0.000e+00 -1.000e-01 0.000e+00 1.326e-03 -7.844e-04 2.278e-04
76 1 0.000e+00 1.000e-01 0.000e+00 -2.352e-04 1.168e-03 1.393e-04
77 1 0.000e+00 2.000e-01 0.000e+00 -1.488e-04 -3.784e-04 -1.803e-04
78 1 -1.000e-01 1.000e-01 0.000e+00 1.425e-03 -3.180e-04 8.287e-04
79 1 -2.000e-01 0.000e+00 0.000e+00 -3.470e-04 -9.704e-04 -1.518e-03
80 1 1.000e-01 -1.000e-01 0.000e+00 -2.052e-03 1.220e-03 -1.755e-04
81 1 0.000e+00 0.000e+00 0.000e+00 -1.016e-01 -7.501e-04 -1.511e-03
82 1 -1.000e-01 -1.000e-01 0.000e+00 1.039e-03 -7.134e-04 -2.019e-04
83 1 0.000e+00 -2.000e-01 0.000e+00 5.176e-04 -3.529e-04 2.468e-04
84 1 2.000e-01 0.000e+00 0.000e+00 -5.827e-04 -2.271e-04 -3.354e-04
ITEM: TIMESTEP
0
ITEM: NUMBER OF ATOMS
12
ITEM: BOX BOUNDS xy xz yz pp pp pp
                     -5.00000000000000e-01 5.00000000000000e-01 0.00000000000000e+00
-5.00000000000000e-01	5.00000000000000e-01	0.00000000000000e+00
-5.00000000000000e-01	5.00000000000000e-01	0.00000000000000e+00
ITEM: ATOMS id type x y z DisplacementX DisplacementY DisplacementZ
85 1 1.000e-01 0.000e+00 0.000e+00 1.330e-04 -3.726e-04 -2.056e-04
86 1 0.000e+00 -1.000e-01 0.000e+00 9.644e-04 -8.772e-04 4.821e-05
87 1 -2.000e-01 0.000e+00 0.000e+00 -6.709e-04 1.007e-03 -4.882e-04
88 1 -1.000e-01 -1.000e-01 0.000e+00 8.369e-04 -3.406e-04 4.515e-04
89 1 0.000e+00 2.000e-01 0.000e+00 9.832e-04 -3.350e-04 5.452e-04
90 1 -1.000e-01 1.000e-01 0.000e+00 6.043e-04 -3.495e-04 3.024e-04
91 1 0.000e+00 -2.000e-01 0.000e+00 7.297e-04 2.551e-04 8.223e-04
92 1 2.000e-01 0.000e+00 0.000e+00 -2.804e-04 -3.835e-04 -2.647e-04
93 1 1.000e-01 1.000e-01 0.000e+00 7.397e-05 7.901e-05 1.688e-03
94 1 0.000e+00 0.000e+00 0.000e+00 -1.629e-04 9.955e-02 -1.774e-03
95 1 -1.000e-01 0.000e+00 0.000e+00 -1.304e-03 -8.205e-04 2.050e-04
96 1 1.000e-01 -1.000e-01 0.000e+00 -9.187e-04 -4.080e-04 -6.739e-04
ITEM: TIMESTEP
0
ITEM: NUMBER OF ATOMS
12
ITEM: BOX BOUNDS xy xz yz pp pp pp
                     -5.00000000000000e-01 5.00000000000000e-01 0.00000000000000e+00
-5.00000000000000e-01	5.00000000000000e-01	0.00000000000000e+00
-5.00000000000000e-01	5.00000000000000e-01	0.00000000000000e+00
ITEM: ATOMS id type x y z DisplacementX DisplacementY DisplacementZ
97 1 -1.000e-01 1.000e-01 0.000e+00 -1.533e-03 -8.999e-04 -1.426e-03
98 1 -1.000e-01 0.000e+00 0.000e+00 -5.634e-04 -1.358e-04 -1.221e-03
99 1 2.000e-01 0.000e+00 0.000e+00 1.032e-03 7.976e-04 -5.146e-04
100 1 1.000e-01 0.000e+00 0.000e+00 1.437e-04 -3.268e-04 -3.187e-05
101 1 0.000e+00 0.000e+00 0.000e+00 1.500e-03 -1.006e-01 -7.930e-05
102 1 0.000e+00 -2.000e-01 0.000e+00 1.606e-03 -6.478e-04 1.906e-04
103 1 -1.000e-01 -1.000e-01 0.000e+00 -1.540e-03 -4.318e-04 -1.072e-03
104 1 0.000e+00 1.000e-01 0.000e+00 -5.160e-04 5.464e-04 2.724e-04
105 1 1.000e-01 -1.000e-01 0.000e+00 3.718e-04 1.294e-03 9.378e-04
106 1 1.000e-01 1.000e-01 0.000e+00 9.343e-06 -3.724e-04 -7.901e-05
107 1 -2.000e-01 0.000e+00 0.000e+00 1.412e-04 -3.301e-04 -8.948e-04
108 1 0.000e+00 2.000e-01 0.000e+00 7.436e-04 4.229e-04 -8.614e-04
ITEM: TIMESTEP
0
ITEM: NUMBER OF ATOMS
12
ITEM: BOX BOUNDS xy xz yz pp pp pp
                     -5.00000000000000e-01 5.00000000000000e-01 0.00000000000000e+00
-5.00000000000000e-01	5.00000000000000e-01	0.00000000000000e+00
-5.00000000000000e-01	5.00000000000000e-01	0.00000000000000e+00
ITEM: ATOMS id type x y z DisplacementX DisplacementY DisplacementZ
109 1 2.000e-01 0.000e+00 0.000e+00 1.319e-03 -1.950e-04 8.539e-04
110 1 1.000e-01 0.000e+00 0.000e+00 1.237e-04 -3.993e-04 -1.060e-03
111 1 0.000e+00 -2.000e-01 0.000e+00 -9.485e-04 7.442e-04 1.523e-04
112 1 0.000e+00 2.000e-01 0.000e+00 -3.101e-04 -3.846e-04 -2.838e-04
113 1 -2.000e-01 0.000e+00 0.000e+00 8.067e-04 1.262e-03 -1.267e-03
114 1 0.000e+00 0.000e+00 0.000e+00 -1.119e-03 9.871e-02 -7.357e-05
115 1 -1.000e-01 1.000e-01 0.000e+00 4.569e-04 -3.552e-04 2.078e-04
116 1 -1.000e-01 0.000e+00 0.000e+00 -1.440e-03 1.951e-03 -3.289e-05
117 1 1.000e-01 1.000e-01 0.000e+00 -1.135e-03 4.812e-04 -5.806e-04
118 1 -1.000e-01 -1.000e-01 0.000e+00 1.273e-03 -3.239e-04 7.310e-04
119 1 1.000e-01 -1.000e-01 0.000e+00 -6.986e-04 1.294e-03 7.085e-04
120 1 0.000e+00 -1.000e-01 0.000e+00 4.901e-04 -6.427e-04 -7.529e-05
ITEM: TIMESTEP
0
ITEM: NUMBER OF ATOMS
12
ITEM: BOX BOUNDS xy xz yz pp pp pp
                     -5.00000000000000e-01 5.00000000000000e-01 0.00000000000000e+00
-5.00000000000000e-01	5.00000000000000e-01	0.00000000000000e+00
-5.00000000000000e-01	5.00000000000000e-01	0.00000000000000e+00
ITEM: ATOMS id type x y z DisplacementX DisplacementY DisplacementZ
121 1 0.000e+00 2.000e-01 0.000e+00 -8.647e-04 -4.059e-04 -6.393e-04
122 1 0.000e+00 1.000e-01 0.000e+00 -1.384e-03 5.481e-04 -1.288e-03
123 1 1.000e-01 1.000e-01 0.000e+00 1.376e-04 -3.675e-04 3.181e-06
124 1 -1.000e-01 -1.000e-01 0.000e+00 -2.220e-04 1.112e-04 1.336e-04
125 1 1.000e-01 -1.000e-01 0.000e+00 -4.571e-04 -1.003e-03 -1.308e-03
126 1 0.000e+00 0.000e+00 0.000e+00 1.006e-01 2.317e-03 5.193e-04
127 1 0.000e+00 -1.000e-01 0.000e+00 5.017e-04 1.482e-03 -1.033e-03
128 1 -1.000e-01 0.000e+00 0.000e+00 -9.209e-05 -3.763e-04 -1.440e-04
129 1 -2.000e-01 0.000e+00 0.000e+00 -8.205e-04 -8.329e-04 -9.076e-05
130 1 2.000e-01 0.000e+00 0.000e+00 4.002e-04 -7.302e-04 -5.436e-04
131 1 0.000e+00 -2.000e-01 0.000e+00 -4.425e-04 -3.897e-04 -3.686e-04
132 1 -1.000e-01 1.000e-01 0.000e+00 1.329e-04 5.983e-04 7.080e-04
ITEM: TIMESTEP
0
ITEM: NUMBER OF ATOMS
12
ITEM: BOX BOUNDS xy xz yz pp pp pp
                     -5.00000000000000e-01 5.00000000000000e-01 0.00000000000000e+00
-5.00000000000000e-01	5.00000000000000e-01	0.00000000000000e+00
-5.00000000000000e-01	5.00000000000000e-01	0.00000000000000e+00
ITEM: ATOMS id type x y z DisplacementX DisplacementY DisplacementZ
133 1 2.000e-01 0.000e+00 0.000e+00 -2.112e-03 3.157e-04 -8.749e-04
134 1 1.000e-01 -1.000e-01 0.000e+00 -2.083e-04 -3.807e-04 -2.185e-04
135 1 1.000e-01 0.000e+00 0.000e+00 -1.517e-04 2.838e-04 1.080e-04
136 1 0.000e+00 -1.000e-01 0.000e+00 3.975e-04 -3.091e-04 1.908e-05
137 1 1.000e-01 1.000e-01 0.000e+00 1.397e-03 -2.009e-04 6.964e-04
138 1 0.000e+00 1.000e-01 0.000e+00 2.317e-03 1.194e-03 1.069e-03
139 1 -1.000e-01 1.000e-01 0.000e+00 1.350e-03 -3.209e-04 7.806e-04
140 1 -1.000e-01 -1.000e-01 0.000e+00 -1.089e-04 -5.144e-04 -7.542e-04
141 1 -2.000e-01 0.000e+00 0.000e+00 1.204e-03 -4.977e-04 -6.312e-04
142 1 0.000e+00 0.000e+00 0.000e+00 -9.970e-02 -4.161e-05 -1.483e-04
143 1 0.000e+00 2.000e-01 0.000e+00 9.823e-05 -3.690e-04 -2.203e-05
144 1 0.000e+00 -2.000e-01 0.000e+00 5.802e-04 -1.320e-04 4.470e-04
ITEM: TIMESTEP
0
ITEM: NUMBER OF ATOMS
12
ITEM: BOX BOUNDS xy xz yz pp pp pp
                     -5.00000000000000e-01 5.00000000000000e-01 0.00000000000000e+00
-5.00000000000000e-01	5.00000000000000e-01	0.00000000000000e+00
-5.00000000000000e-01	5.00000000000000e-01	0.00000000000000e+00
ITEM: ATOMS id type x y z DisplacementX DisplacementY DisplacementZ
145 1 0.000e+00 0.000e+00 0.000e+00 1.145e-03 -9.831e-02 1.082e-03
146 1 0.000e+00 -2.000e-01 0.000e+00 4.930e-04 -1.603e-04 -1.215e-04
147 1 0.000e+00 1.000e-01 0.000e+00 -7.662e-04 6.790e-04 2.018e-04
148 1 -2.000e-01 0.000e+00 0.000e+00 -6.307e-04 5.258e-04 1.869e-04
149 1 0.000e+00 2.000e-01 0.000e+00 7.330e-04 -4.511e-04 1.643e-04
150 1 -1.000e-01 -1.000e-01 0.000e+00 -2.262e-04 1.179e-03 9.133e-04
151 1 1.000e-01 0.000e+00 0.000e+00 2.386e-04 1.447e-03 -1.238e-03
152 1 1.000e-01 1.000e-01 0.000e+00 1.500e-04 9.653e-04 9.875e-04
153 1 -1.000e-01 0.000e+00 0.000e+00 1.429e-03 1.894e-03 1.119e-03
154 1 -1.000e-01 1.000e-01 0.000e+00 7.784e-04 9.155e-04 1.336e-03
155 1 1.000e-01 -1.000e-01 0.000e+00 -8.538e-04 -1.613e-03 -6.078e-04
156 1 2.000e-01 0.000e+00 0.000e+00 -1.055e-03 8.279e-04 1.480e-04
ITEM: TIMESTEP
0
ITEM: NUMBER OF ATOMS
12
ITEM: BOX BOUNDS xy xz yz pp pp pp
                     -5.00000000000000e-01 5.00000000000000e-01 0.00000000000000e+00
-5.00000000000000e-01	5.00000000000000e-01	0.00000000000000e+00
-5.00000000000000e-01	5.00000000000000e-01	0.00000000000000e+00
ITEM: ATOMS id type x y z DisplacementX DisplacementY DisplacementZ
157 1 0.000e+00 2.000e-01 0.000e+00 2.502e-04 -3.631e-04 7.538e-05
158 1 0.000e+00 0.000e+00 0.000e+00 8.881e-04 1.009e-01 -1.364e-04
159 1 -1.000e-01 -1.000e-01 0.000e+00 -7.024e-04 9.289e-05 -1.742e-04
160 1 0.000e+00 -2.000e-01 0.000e+00 -7.787e-04 -4.026e-04 -5.841e-04
161 1 1.000e-01 -1.000e-01 0.000e+00 1.410e-04 -3.585e-05 2.483e-04
162 1 -1.000e-01 1.000e-01 0.000e+00 -5.815e-04 -1.052e-03 -1.819e-03
163 1 -2.000e-01 0.000e+00 0.000e+00 1.221e-03 -7.023e-05 4.507e-04
164 1 -1.000e-01 0.000e+00 0.000e+00 -7.720e-04 -4.024e-04 -5.798e-04
165 1 2.000e-01 0.000e+00 0.000e+00 -6.663e-04 -1.715e-04 -3.459e-04
166 1 1.000e-01 1.000e-01 0.000e+00 -1.868e-03 1.435e-03 -3.119e-04
167 1 1.000e-01 0.000e+00 0.000e+00 -1.386e-04 3.171e-04 1.481e-04
168 1 0.000e+00 -1.000e-01 0.000e+00 -6.525e-04 8.772e-04 3.474e-04
ITEM: TIMESTEP
0
ITEM: NUMBER OF ATOMS
12
ITEM: BOX BOUNDS xy xz yz pp pp pp
                     -5.00000000000000e-01 5.00000000000000e-01 0.00000000000000e+00
-5.00000000000000e-01	5.00000000000000e-01	0.00000000000000e+00
-5.00000000000000e-01	5.00000000000000e-01	0.00000000000000e+00
ITEM: ATOMS id type x y z DisplacementX DisplacementY DisplacementZ
169 1 -2.000e-01 0.000e+00 0.000e+00 6.126e-04 -3.492e-04 3.076e-04
170 1 -1.000e-01 0.000e+00 0.000e+00 1.946e-04 2.186e-03 -4.471e-04
171 1 1.000e-01 1.000e-01 0.000e+00 7.457e-04 -3.441e-04 3.930e-04
172 1 1.000e-01 -1.000e-01 0.000e+00 -9.054e-04 3.087e-04 -6.290e-04
173 1 0.000e+00 -2.000e-01 0.000e+00 1.809e-04 6.074e-04 7.442e-04
174 1 -1.000e-01 1.000e-01 0.000e+00 9.620e-04 4.500e-04 -3.108e-04
175 1 0.000e+00 0.000e+00 0.000e+00 1.008e-01 -5.181e-05 -8.101e-04
176 1 0.000e+00 1.000e-01 0.000e+00 -4.626e-04 -1.610e-03 -6.538e-04
177 1 0.000e+00 2.000e-01 0.000e+00 6.804e-04 2.335e-05 6.186e-04
178 1 -1.000e-01 -1.000e-01 0.000e+00 -8.502e-04 1.350e-03 -6.129e-04
179 1 0.000e+00 -1.000e-01 0.000e+00 2.817e-04 -1.126e-03 -1.486e-03
180 1 2.000e-01 0.000e+00 0.000e+00 7.156e-04 2.352e-04 3.819e-04
ITEM: TIMESTEP
0
ITEM: NUMBER OF ATOMS
12
ITEM: BOX BOUNDS xy xz yz pp pp pp
                     -5.00000000000000e-01 5.00000000000000e-01 0.00000000000000e+00
-5.00000000000000e-01	5.00000000000000e-01	0.00000000000000e+00
-5.00000000000000e-01	5.00000000000000e-01	0.00000000000000e+00
ITEM: ATOMS id type x y z DisplacementX DisplacementY DisplacementZ
181 1 -1.000e-01 1.000e-01 0.000e+00 -4.975e-04 -3.918e-04 -4.039e-04
182 1 -1.000e-01 -1.000e-01 0.000e+00 -4.714e-04 1.373e-03 4.086e-04
183 1 1.000e-01 0.000e+00 0.000e+00 7.290e-04 -2.037e-04 2.886e-04
184 1 0.000e+00 -2.000e-01 0.000e+00 6.621e-04 -6.616e-05 5.454e-04
185 1 -2.000e-01 0.000e+00 0.000e+00 -7.282e-04 -4.007e-04 -5.517e-04
186 1 0.000e+00 1.000e-01 0.000e+00 -5.345e-04 3.353e-04 -5.564e-04
187 1 0.000e+00 2.000e-01 0.000e+00 -1.519e-03 7.955e-04 -2.242e-03
188 1 2.000e-01 0.000e+00 0.000e+00 -2.337e-03 5.169e-04 -8.655e-04
189 1 1.000e-01 -1.000e-01 0.000e+00 -8.659e-04 5.568e-05 2.388e-03
190 1 0.000e+00 0.000e+00 0.000e+00 -9.956e-02 -5.228e-05 -1.314e-03
191 1 0.000e+00 -1.000e-01 0.000e+00 1.604e-03 -6.187e-04 5.200e-04
192 1 1.000e-01 1.000e-01 0.000e+00 1.942e-04 5.267e-04 6.932e-04
ITEM: TIMESTEP
0
ITEM: NUMBER OF ATOMS
12
ITEM: BOX BOUNDS xy xz yz pp pp pp
                     -5.00000000000000e-01 5.00000000000000e-01 0.00000000000000e+00
-5.00000000000000e-01	5.00000000000000e-01	0.00000000000000e+00
-5.00000000000000e-01	5.00000000000000e-01	0.00000000000000e+00
ITEM: ATOMS id type x y z DisplacementX DisplacementY DisplacementZ
193 1 0.000e+00 1.000e-01 0.000e+00 2.331e-04 -5.552e-04 -7.670e-05
194 1 0.000e+00 2.000e-01 0.000e+00 4.176e-04 6.008e-04 8.844e-04
195 1 1.000e-01 1.000e-01 0.000e+00 6.708e-04 -5.696e-05 5.575e-04
196 1 0.000e+00 0.000e+00 0.000e+00 5.140e-04 -1.007e-01 4.568e-04
197 1 -1.000e-01 0.000e+00 0.000e+00 2.568e-03 8.490e-04 -8.093e-04
198 1 1.000e-01 -1.000e-01 0.000e+00 -2.087e-03 -4.915e-04 -4.667e-04
199 1 1.000e-01 0.000e+00 0.000e+00 1.004e-03 1.776e-04 3.297e-04
200 1 0.000e+00 -2.000e-01 0.000e+00 1.217e-04 1.176e-04 -1.529e-04
201 1 -1.000e-01 -1.000e-01 0.000e+00 -3.759e-04 3.000e-04 -9.360e-04
202 1 -2.000e-01 0.000e+00 0.000e+00 1.285e-03 1.498e-03 -1.744e-03
203 1 -1.000e-01 1.000e-01 0.000e+00 1.528e-03 -3.838e-05 1.088e-03
204 1 2.000e-01 0.000e+00 0.000e+00 5.346e-04 2.915e-04 -3.634e-04
ITEM: TIMESTEP
0
ITEM: NUMBER OF ATOMS
12
ITEM: BOX BOUNDS xy xz yz pp pp pp
                     -5.00000000000000e-01 5.00000000000000e-01 0.00000000000000e+00
-5.00000000000000e-01	5.00000000000000e-01	0.00000000000000e+00
-5.00000000000000e-01	5.00000000000000e-01	0.00000000000000e+00
ITEM: ATOMS id type x y z DisplacementX DisplacementY DisplacementZ
205 1 0.000e+00 2.000e-01 0.000e+00 -6.432e-04 -1.055e-03 1.364e-03
206 1 -1.000e-01 1.000e-01 0.000e+00 2.728e-04 -3.623e-04 8.989e-05
207 1 2.000e-01 0.000e+00 0.000e+00 6.885e-04 -3.463e-04 3.563e-04
208 1 0.000e+00 0.000e+00 0.000e+00 -1.010e-01 2.950e-04 1.061e-04
209 1 0.000e+00 1.000e-01 0.000e+00 3.762e-04 -3.583e-04 1.561e-04
210 1 1.000e-01 -1.000e-01 0.000e+00 6.068e-04 -3.494e-04 3.040e-04
211 1 -1.000e-01 -1.000e-01 0.000e+00 -7.741e-05 3.256e-05 -3.391e-04
212 1 1.000e-01 0.000e+00 0.000e+00 -1.935e-04 -1.176e-03 -9.710e-04
213 1 -2.000e-01 0.000e+00 0.000e+00 1.353e-03 -9.876e-04 -5.990e-04
214 1 0.000e+00 -1.000e-01 0.000e+00 3.773e-04 1.097e-03 1.042e-03
215 1 0.000e+00 -2.000e-01 0.000e+00 -1.724e-03 1.203e-03 1.368e-05
216 1 1.000e-01 1.000e-01 0.000e+00 1.003e-03 -2.230e-04 8.403e-04
ITEM: TIMESTEP
0
ITEM: NUMBER OF ATOMS
12
ITEM: BOX BOUNDS xy xz yz pp pp pp
                     -5.00000000000000e-01 5.00000000000000e-01 0.00000000000000e+00
-5.00000000000000e-01	5.00000000000000e-01	0.00000000000000e+00
-5.00000000000000e-01	5.00000000000000e-01	0.00000000000000e+00
ITEM: ATOMS id type x y z DisplacementX DisplacementY DisplacementZ
217 1 -1.000e-01 0.000e+00 0.000e+00 6.557e-04 -3.476e-04 3.353e-04
218 1 0.000e+00 2.000e-01 0.000e+00 -9.187e-05 -3.763e-04 -1.439e-04
219 1 1.000e-01 1.000e-01 0.000e+00 -6.325e-04 -3.339e-04 -8.150e-05
220 1 0.000e+00 -2.000e-01 0.000e+00 -3.151e-04 -3.848e-04 -2.869e-04
221 1 -2.000e-01 0.000e+00 0.000e+00 1.128e-03 1.957e-03 -1.568e-03
222 1 2.000e-01 0.000e+00 0.000e+00 -4.622e-04 4.749e-04 2.529e-04
223 1 0.000e+00 0.000e+00 0.000e+00 -1.832e-03 9.980e-02 -4.740e-04
224 1 -1.000e-01 1.000e-01 0.000e+00 8.317e-04 4.332e-04 1.015e-03
225 1 1.000e-01 0.000e+00 0.000e+00 3.403e-04 -5.427e-04 -1.930e-04
226 1 -1.000e-01 -1.000e-01 0.000e+00 2.360e-04 2.640e-04 5.263e-04
227 1 0.000e+00 -1.000e-01 0.000e+00 1.076e-03 -4.012e-04 4.507e-04
228 1 1.000e-01 -1.000e-01 0.000e+00 4.424e-04 -3.557e-04 1.986e-04
ITEM: TIMESTEP
0
ITEM: NUMBER OF ATOMS
12
ITEM: BOX BOUNDS xy xz yz pp pp pp
                     -5.00000000000000e-01 5.00000000000000e-01 0.00000000000000e+00
-5.00000000000000e-01	5.00000000000000e-01	0.00000000000000e+00
-5.00000000000000e-01	5.00000000000000e-01	0.00000000000000e+00
ITEM: ATOMS id type x y z DisplacementX DisplacementY DisplacementZ
229 1 0.000e+00 -1.000e-01 0.000e+00 5.649e-04 -3.334e-04 2.601e-04
230 1 1.000e-01 1.000e-01 0.000e+00 2.400e-04 -3.635e-04 6.882e-05
231 1 0.000e+00 1.000e-01 0.000e+00 2.032e-04 -7.477e-04 1.058e-03
232 1 2.000e-01 0.000e+00 0.000e+00 -1.749e-03 1.085e-03 -5.066e-04
233 1 -1.000e-01 -1.000e-01 0.000e+00 4.804e-04 -5.747e-04 -1.302e-03
234 1 -2.000e-01 0.000e+00 0.000e+00 1.865e-03 -3.011e-04 1.111e-03
235 1 1.000e-01 -1.000e-01 0.000e+00 -4.525e-04 -1.309e-03 -1.552e-03
236 1 0.000e+00 0.000e+00 0.000e+00 9.831e-02 2.990e-05 -1.497e-03
237 1 -1.000e-01 0.000e+00 0.000e+00 3.119e-04 -3.608e-04 1.149e-04
238 1 -1.000e-01 1.000e-01 0.000e+00 1.569e-03 7.909e-04 -1.671e-03
239 1 0.000e+00 -2.000e-01 0.000e+00 -1.480e-03 9.788e-04 -1.334e-06
240 1 0.000e+00 2.000e-01 0.000e+00 -8.942e-05 -3.169e-04 -9.891e-05
ITEM: TIMESTEP
0
ITEM: NUMBER OF ATOMS
12
ITEM: BOX BOUNDS xy xz yz pp pp pp
                     -5.00000000000000e-01 5.00000000000000e-01 0.00000000000000e+00
-5.00000000000000e-01	5.00000000000000e-01	0.00000000000000e+00
-5.00000000000000e-01	5.00000000000000e-01	0.00000000000000e+00
ITEM: ATOMS id type x y z DisplacementX DisplacementY DisplacementZ
241 1 0.000e+00 2.000e-01 0.000e+00 -7.001e-04 -1.445e-04 -7.799e-04
242 1 1.000e-01 0.000e+00 0.000e+00 8.727e-04 8.907e-04 1.192e-03
243 1 0.000e+00 -1.000e-01 0.000e+00 2.978e-04 8.849e-04 8.368e-04
244 1 0.000e+00 0.000e+00 0.000e+00 -9.984e-02 9.321e-04 1.034e-03
245 1 -1.000e-01 1.000e-01 0.000e+00 7.015e-04 -3.458e-04 3.646e-04
246 1 2.000e-01 0.000e+00 0.000e+00 7.237e-05 9.805e-04 9.511e-04
247 1 1.000e-01 -1.000e-01 0.000e+00 -1.140e-03 -4.165e-04 -8.155e-04
248 1 0.000e+00 -2.000e-01 0.000e+00 -1.501e-04 -3.785e-04 -1.812e-04
249 1 -2.000e-01 0.000e+00 0.000e+00 -2.404e-03 4.991e-04 -9.196e-04
250 1 1.000e-01 1.000e-01 0.000e+00 1.529e-03 3.175e-04 2.860e-04
251 1 -1.000e-01 -1.000e-01 0.000e+00 2.595e-04 8.196e-04 4.518e-04
252 1 0.000e+00 1.000e-01 0.000e+00 -2.713e-04 -6.177e-05 -1.046e-04
ITEM: TIMESTEP
0
ITEM: NUMBER OF ATOMS
12
ITEM: BOX BOUNDS xy xz yz pp pp pp
                     -5.00000000000000e-01 5.00000000000000e-01 0.00000000000000e+00
-5.00000000000000e-01	5.00000000000000e-01	0.00000000000000e+00
-5.00000000000000e-01	5.00000000000000e-01	0.00000000000000e+00
ITEM: ATOMS id type x y z DisplacementX DisplacementY DisplacementZ
253 1 1.000e-01 1.000e-01 0.000e+00 1.288e-04 -3.678e-04 -2.436e-06
254 1 -1.000e-01 1.000e-01 0.000e+00 7.013e-04 2.597e-04 8.082e-04
255 1 0.000e+00 2.000e-01 0.000e+00 1.005e-04 2.362e-04 4.229e-04
256 1 -1.000e-01 0.000e+00 0.000e+00 2.276e-04 1.072e-03 1.711e-04
257 1 1.000e-01 -1.000e-01 0.000e+00 -1.378e-03 -3.180e-04 -3.869e-04
258 1 0.000e+00 0.000e+00 0.000e+00 -1.206e-03 -1.001e-01 2.069e-03
259 1 0.000e+00 1.000e-01 0.000e+00 -4.520e-04 2.474e-04 8.965e-05
260 1 -1.000e-01 -1.000e-01 0.000e+00 -3.418e-04 3.519e-04 2.366e-04
261 1 2.000e-01 0.000e+00 0.000e+00 7.912e-04 1.034e-03 -9.062e-04
262 1 0.000e+00 -2.000e-01 0.000e+00 2.079e-04 2.943e-04 3.427e-05
263 1 1.000e-01 0.000e+00 0.000e+00 -4.560e-04 1.162e-03 7.603e-04
264 1 -2.000e-01 0.000e+00 0.000e+00 -1.207e-03 -5.613e-04 -1.154e-03
ITEM: TIMESTEP
0
ITEM: NUMBER OF ATOMS
12
ITEM: BOX BOUNDS xy xz yz pp pp pp
                     -5.00000000000000e-01 5.00000000000000e-01 0.00000000000000e+00
-5.00000000000000e-01	5.00000000000000e-01	0.00000000000000e+00
-5.00000000000000e-01	5.00000000000000e-01	0.00000000000000e+00
ITEM: ATOMS id type x y z DisplacementX DisplacementY DisplacementZ
265 1 0.000e+00 2.000e-01 0.000e+00 -1.326e-04 5.887e-04 5.384e-04
266 1 0.000e+00 1.000e-01 0.000e+00 -3.882e-04 2.531e-04 -5.543e-04
267 1 2.000e-01 0.000e+00 0.000e+00 1.603e-04 -6.421e-04 -6.245e-04
268 1 -2.000e-01 0.000e+00 0.000e+00 4.954e-04 -3.537e-04 2.325e-04
269 1 1.000e-01 1.000e-01 0.000e+00 9.373e-04 -3.368e-04 5.158e-04
270 1 0.000e+00 -1.000e-01 0.000e+00 -2.003e-05 9.008e-04 -1.327e-03
271 1 -1.000e-01 0.000e+00 0.000e+00 2.729e-04 1.557e-04 4.696e-04
272 1 0.000e+00 0.000e+00 0.000e+00 1.029e-01 -9.213e-04 -9.202e-04
273 1 0.000e+00 -2.000e-01 0.000e+00 -4.561e-04 -3.902e-04 -3.773e-04
274 1 1.000e-01 -1.000e-01 0.000e+00 7.371e-04 4.973e-04 4.943e-04
275 1 -1.000e-01 -1.000e-01 0.000e+00 6.891e-04 -6.795e-05 4.385e-04
276 1 -1.000e-01 1.000e-01 0.000e+00 3.089e-04 1.591e-03 1.544e-03
ITEM: TIMESTEP
0
ITEM: NUMBER OF ATOMS
12
ITEM: BOX BOUNDS xy xz yz pp pp pp
                     -5.00000000000000e-01 5.00000000000000e-01 0.00000000000000e+00
-5.00000000000000e-01	5.00000000000000e-01	0.00000000000000e+00
-5.00000000000000e-01	5.00000000000000e-01	0.00000000000000e+00
ITEM: ATOMS id type x y z DisplacementX DisplacementY DisplacementZ
277 1 1.000e-01 0.000e+00 0.000e+00 5.876e-04 -7.016e-04 -1.627e-04
278 1 1.000e-01 1.000e-01 0.000e+00 -6.640e-04 -1.434e-03 -1.686e-03
279 1 0.000e+00 -1.000e-01 0.000e+00 1.377e-03 -2.253e-03 -6.991e-04
280 1 0.000e+00 2.000e-01 0.000e+00 -1.030e-04 -3.767e-04 -1.510e-04
281 1 2.000e-01 0.000e+00 0.000e+00 -1.990e-03 1.033e-03 -2.742e-04
282 1 -1.000e-01 0.000e+00 0.000e+00 7.166e-04 -5.034e-04 8.228e-04
283 1 1.000e-01 -1.000e-01 0.000e+00 -9.038e-05 -3.762e-04 -1.429e-04
284 1 -1.000e-01 1.000e-01 0.000e+00 9.921e-04 -8.359e-04 -4.875e-04
285 1 0.000e+00 -2.000e-01 0.000e+00 -7.917e-04 -1.465e-04 -4.044e-04
286 1 -1.000e-01 -1.000e-01 0.000e+00 1.429e-04 -2.769e-04 7.287e-05
287 1 0.000e+00 0.000e+00 0.000e+00 2.797e-03 9.932e-02 8.662e-04
288 1 -2.000e-01 0.000e+00 0.000e+00 -3.246e-03 -2.286e-04 -7.127e-05
ITEM: TIMESTEP
0
ITEM: NUMBER OF ATOMS
12
ITEM: BOX BOUNDS xy xz yz pp pp pp
                     -5.00000000000000e-01 5.00000000000000e-01 0.00000000000000e+00
-5.00000000000000e-01	5.00000000000000e-01	0.00000000000000e+00
-5.00000000000000e-01	5.00000000000000e-01	0.00000000000000e+00
ITEM: ATOMS id type x y z DisplacementX DisplacementY DisplacementZ
289 1 0.000e+00 0.000e+00 0.000e+00 2.452e-04 -1.021e-01 -5.336e-04
290 1 -2.000e-01 0.000e+00 0.000e+00 8.325e-04 8.034e-04 1.520e-03
291 1 0.000e+00 2.000e-01 0.000e+00 -5.092e-04 2.730e-04 7.617e-05
292 1 -1.000e-01 0.000e+00 0.000e+00 -2.624e-04 -6.060e-04 1.855e-03
293 1 0.000e+00 -2.000e-01 0.000e+00 -1.427e-03 4.708e-04 -8.526e-04
294 1 1.000e-01 0.000e+00 0.000e+00 9.490e-04 4.563e-04 1.104e-03
295 1 1.000e-01 1.000e-01 0.000e+00 1.209e-03 1.993e-04 1.827e-04
296 1 -1.000e-01 -1.000e-01 0.000e+00 1.223e-03 -3.258e-04 6.991e-04
297 1 1.000e-01 -1.000e-01 0.000e+00 -2.045e-04 -3.584e-04 -6.327e-04
298 1 0.000e+00 1.000e-01 0.000e+00 -6.805e-04 1.008e-03 5.095e-04
299 1 -1.000e-01 1.000e-01 0.000e+00 -1.707e-04 4.619e-05 1.174e-04
300 1 2.000e-01 0.000e+00 0.000e+00 -3.933e-04 1.435e-04 5.229e-05
ITEM: TIMESTEP
0
ITEM: NUMBER OF ATOMS
12
ITEM: BOX BOUNDS xy xz yz pp pp pp
                     -5.00000000000000e-01 5.00000000000000e-01 0.00000000000000e+00
-5.00000000000000e-01	5.00000000000000e-01	0.00000000000000e+00
-5.00000000000000e-01	5.00000000000000e-01	0.00000000000000e+00
ITEM: ATOMS id type x y z DisplacementX DisplacementY DisplacementZ
301 1 0.000e+00 2.000e-01 0.000e+00 -5.135e-05 -3.747e-04 -1.179e-04
302 1 1.000e-01 0.000e+00 0.000e+00 5.889e-04 -1.712e-03 -9.021e-04
303 1 0.000e+00 0.000e+00 0.000e+00 -2.161e-03 9.920e-02 2.110e-03
304 1 1.000e-01 -1.000e-01 0.000e+00 -1.386e-03 -2.477e-04 -8.429e-04
305 1 0.000e+00 -2.000e-01 0.000e+00 4.102e-04 2.969e-04 6.571e-04