ITEM: TIMESTEP
0
ITEM: NUMBER OF ATOMS
107
ITEM: BOX BOUNDS xy xz yz pp pp pp
                     0.00000000000000e+00 1.06000000000000e+01 0.00000000000000e+00
0.00000000000000e+00	1.06000000000000e+01	0.00000000000000e+00
0.00000000000000e+00	1.06000000000000e+01	0.00000000000000e+00
ITEM: ATOMS id type x y z DisplacementX DisplacementY DisplacementZ
1 1 3.509e-01 3.524e-01 3.546e-01 3.573e-03 5.662e-03 6.014e-03
2 1 2.125e+00 2.123e+00 3.555e-01 3.192e-03 5.008e-03 5.703e-03
3 1 2.125e+00 3.535e-01 2.125e+00 4.008e-03 7.443e-03 8.331e-03
4 1 3.518e-01 2.124e+00 2.123e+00 3.541e-03 5.352e-03 5.420e-03
5 1 3.895e+00 3.524e-01 3.567e-01 2.757e-03 4.931e-03 6.454e-03
6 1 5.666e+00 2.123e+00 3.547e-01 2.536e-03 2.723e-03 3.754e-03
7 1 5.666e+00 3.512e-01 2.125e+00 8.414e-04 3.660e-03 3.017e-03
8 1 3.897e+00 2.123e+00 2.126e+00 2.113e-03 4.421e-03 4.718e-03
9 1 7.434e+00 3.514e-01 3.562e-01 2.030e-03 6.468e-03 6.204e-03
10 1 9.203e+00 2.123e+00 3.553e-01 3.329e-03 3.553e-03 4.222e-03
11 1 9.203e+00 3.528e-01 2.125e+00 2.336e-03 4.687e-03 5.258e-03
12 1 7.433e+00 2.123e+00 2.122e+00 1.013e-03 -1.052e-03 5.856e-04
13 1 3.532e-01 3.895e+00 3.548e-01 3.266e-03 4.145e-03 5.007e-03
14 1 2.125e+00 3.895e+00 2.125e+00 3.588e-03 7.257e-03 7.222e-03
15 1 3.894e+00 3.894e+00 3.559e-01 2.745e-03 4.191e-03 4.651e-03
16 1 5.666e+00 3.897e+00 2.126e+00 1.110e-03 2.007e-03 1.741e-03
17 1 7.435e+00 3.898e+00 3.566e-01 1.745e-03 1.453e-03 2.075e-03
18 1 9.201e+00 3.897e+00 2.124e+00 2.587e-03 4.193e-03 2.695e-03
19 1 3.515e-01 3.507e-01 3.894e+00 3.501e-03 7.852e-03 4.733e-03
20 1 2.124e+00 2.123e+00 3.894e+00 4.257e-03 7.889e-03 8.050e-03
21 1 3.897e+00 3.496e-01 3.895e+00 2.681e-03 4.064e-03 5.124e-03
22 1 5.662e+00 2.126e+00 3.893e+00 3.320e-04 4.884e-03 3.153e-03
23 1 7.435e+00 3.637e-01 3.894e+00 -3.591e-04 1.268e-02 1.427e-02
24 1 9.206e+00 2.124e+00 3.895e+00 9.267e-04 8.743e-04 2.128e-03
25 1 3.524e-01 3.900e+00 3.896e+00 2.879e-03 9.427e-03 9.766e-03
26 1 3.898e+00 3.896e+00 3.893e+00 3.552e-03 8.655e-03 8.713e-03
27 1 7.432e+00 3.885e+00 3.894e+00 -2.653e-04 -7.777e-03 -1.562e-02
28 1 2.125e+00 3.541e-01 5.664e+00 3.341e-03 6.768e-03 6.987e-03
29 1 3.531e-01 2.125e+00 5.663e+00 2.881e-03 4.105e-03 4.583e-03
30 1 5.666e+00 3.507e-01 5.664e+00 2.668e-03 2.350e-03 1.536e-03
31 1 3.893e+00 2.123e+00 5.663e+00 2.959e-03 5.499e-03 5.745e-03
32 1 9.204e+00 3.506e-01 5.659e+00 9.318e-04 9.673e-04 -1.245e-05
33 1 7.433e+00 2.123e+00 5.667e+00 -1.112e-03 8.900e-03 7.221e-03
34 1 2.124e+00 3.894e+00 5.662e+00 3.218e-03 8.428e-03 8.105e-03
35 1 5.665e+00 3.897e+00 5.664e+00 2.491e-03 6.115e-03 5.322e-03
36 1 9.202e+00 3.897e+00 5.662e+00 2.869e-03 5.647e-03 7.021e-03
37 1 3.529e-01 3.539e-01 7.434e+00 2.835e-03 3.487e-03 4.016e-03
38 1 2.124e+00 2.124e+00 7.434e+00 3.077e-03 5.074e-03 5.798e-03
39 1 2.123e+00 3.540e-01 9.204e+00 3.174e-03 4.673e-03 5.676e-03
40 1 3.527e-01 2.124e+00 9.204e+00 3.127e-03 3.958e-03 4.920e-03
41 1 3.894e+00 3.540e-01 7.434e+00 3.092e-03 3.238e-03 4.337e-03
42 1 5.664e+00 2.123e+00 7.432e+00 2.647e-03 3.548e-03 4.092e-03
43 1 5.665e+00 3.534e-01 9.205e+00 2.460e-03 1.794e-03 3.754e-03
44 1 3.895e+00 2.124e+00 9.205e+00 2.937e-03 4.096e-03 5.062e-03
45 1 7.434e+00 3.515e-01 7.430e+00 1.961e-03 -9.030e-03 -7.034e-03
46 1 9.205e+00 2.123e+00 7.433e+00 2.120e-03 3.650e-03 4.533e-03
47 1 9.204e+00 3.549e-01 9.204e+00 2.715e-03 1.681e-03 2.913e-03
48 1 7.433e+00 2.124e+00 9.204e+00 3.654e-03 1.363e-03 2.963e-03
49 1 3.536e-01 3.894e+00 7.434e+00 2.905e-03 5.097e-03 6.128e-03
50 1 2.124e+00 3.894e+00 9.204e+00 3.098e-03 4.730e-03 5.527e-03
51 1 3.896e+00 3.896e+00 7.434e+00 3.165e-03 5.485e-03 6.427e-03
52 1 5.665e+00 3.896e+00 9.205e+00 2.275e-03 1.496e-03 2.899e-03
53 1 7.434e+00 3.898e+00 7.428e+00 2.556e-03 4.331e-03 6.607e-03
54 1 9.203e+00 3.894e+00 9.204e+00 2.756e-03 1.004e-03 2.741e-03
55 1 2.123e+00 5.665e+00 3.540e-01 3.408e-03 6.580e-03 6.714e-03
56 1 3.530e-01 5.666e+00 2.126e+00 3.471e-03 6.598e-03 5.997e-03
57 1 5.665e+00 5.666e+00 3.546e-01 1.634e-03 -1.235e-03 -1.027e-03
58 1 3.898e+00 5.666e+00 2.127e+00 3.570e-03 1.155e-02 9.480e-03
59 1 9.202e+00 5.667e+00 3.569e-01 2.734e-03 -2.286e-04 3.479e-03
60 1 7.434e+00 5.673e+00 2.131e+00 2.520e-03 1.270e+00 1.165e+00
61 1 3.489e-01 7.431e+00 3.556e-01 3.898e-03 7.951e-03 7.145e-03
62 1 2.125e+00 9.203e+00 3.535e-01 3.831e-03 6.717e-03 7.694e-03
63 1 2.126e+00 7.435e+00 2.123e+00 4.915e-04 -8.901e-04 -5.689e-04
64 1 3.510e-01 9.202e+00 2.126e+00 4.427e-03 8.136e-03 7.038e-03
65 1 3.899e+00 7.434e+00 3.578e-01 2.404e-03 6.629e-03 8.156e-03
66 1 5.665e+00 9.202e+00 3.565e-01 1.324e-03 -1.338e-03 1.408e-03
67 1 5.674e+00 7.434e+00 2.132e+00 -4.969e-03 1.186e-01 4.700e-02
68 1 3.896e+00 9.202e+00 2.126e+00 4.064e-03 1.042e-02 1.299e-02
69 1 7.434e+00 7.435e+00 3.455e-01 9.047e-04 -3.353e-02 -2.258e-02
70 1 9.202e+00 9.204e+00 3.581e-01 2.059e-03 3.317e-03 4.682e-03
71 1 9.195e+00 7.432e+00 2.133e+00 -1.274e-02 1.324e-01 1.170e-01
72 1 7.435e+00 9.195e+00 2.133e+00 -1.214e-02 -1.240e-01 -1.849e-01
73 1 2.123e+00 5.663e+00 3.894e+00 1.362e-03 2.352e-03 1.597e-03
74 1 5.673e+00 5.673e+00 3.894e+00 -2.483e-03 -2.678e-02 2.071e-02
75 1 9.195e+00 5.672e+00 3.895e+00 2.506e-03 -3.450e-02 4.684e-03
76 1 3.630e-01 7.434e+00 3.896e+00 3.637e-03 6.998e-03 9.617e-03
77 1 2.125e+00 9.206e+00 3.893e+00 1.324e-03 7.254e-03 7.954e-03
78 1 3.884e+00 7.435e+00 3.893e+00 3.173e-03 1.951e-02 1.137e-02
79 1 5.672e+00 9.196e+00 3.894e+00 -4.850e-03 -3.206e-01 -2.464e-01
80 1 9.194e+00 9.195e+00 3.894e+00 1.790e-02 -3.127e-01 -3.321e-01
81 1 3.524e-01 5.666e+00 5.661e+00 1.674e-03 1.139e-02 1.250e-02
82 1 3.897e+00 5.665e+00 5.663e+00 4.516e-03 1.193e-02 9.112e-03
83 1 7.435e+00 5.674e+00 5.655e+00 -1.821e-03 -1.549e-01 -1.576e-01
84 1 2.124e+00 7.435e+00 5.666e+00 1.679e-03 7.938e-03 6.909e-03
85 1 3.515e-01 9.201e+00 5.662e+00 2.941e-03 1.113e-02 9.747e-03
86 1 5.674e+00 7.433e+00 5.655e+00 -1.986e-02 -2.197e-01 -3.221e-01
87 1 3.897e+00 9.202e+00 5.663e+00 2.968e-03 2.355e-03 2.641e-03
88 1 9.195e+00 7.435e+00 5.654e+00 -1.572e-02 -1.682e-01 -1.792e-01
89 1 7.436e+00 9.196e+00 5.655e+00 8.841e-03 1.720e-01 1.416e-01
90 1 2.124e+00 5.663e+00 7.433e+00 3.448e-03 7.430e-03 7.887e-03
91 1 3.532e-01 5.665e+00 9.206e+00 3.215e-03 3.186e-03 4.556e-03
92 1 5.668e+00 5.667e+00 7.432e+00 1.682e-03 3.063e-03 5.893e-03
93 1 3.894e+00 5.664e+00 9.203e+00 2.629e-03 3.089e-03 4.574e-03
94 1 9.204e+00 5.665e+00 7.431e+00 2.387e-03 -3.982e-04 -1.722e-04
95 1 7.436e+00 5.664e+00 9.203e+00 -4.667e-04 -1.367e-03 -1.487e-03
96 1 3.492e-01 7.433e+00 7.432e+00 2.742e-03 2.557e-03 3.075e-03
97 1 2.126e+00 9.203e+00 7.434e+00 3.287e-03 6.242e-03 6.570e-03
98 1 2.124e+00 7.435e+00 9.202e+00 4.153e-03 5.643e-03 6.886e-03
99 1 3.536e-01 9.203e+00 9.204e+00 2.912e-03 2.396e-03 3.858e-03
100 1 3.897e+00 7.435e+00 7.431e+00 3.027e-03 9.989e-04 3.756e-03
101 1 5.665e+00 9.202e+00 7.431e+00 2.213e-03 -1.231e-03 1.626e-03
102 1 5.663e+00 7.433e+00 9.205e+00 1.323e-03 1.764e-03 4.064e-04
103 1 3.894e+00 9.202e+00 9.202e+00 2.756e-03 2.437e-03 4.559e-03
104 1 7.435e+00 7.434e+00 7.444e+00 7.095e-04 1.407e-02 1.243e-02
105 1 9.203e+00 9.204e+00 7.432e+00 2.722e-03 -5.652e-03 -3.808e-03
106 1 9.207e+00 7.435e+00 9.204e+00 3.846e-05 1.120e-03 4.365e-03
107 1 7.434e+00 9.207e+00 9.203e+00 -3.131e-04 5.772e-03 6.304e-03
ITEM: TIMESTEP
0
ITEM: NUMBER OF ATOMS
107
ITEM: BOX BOUNDS xy xz yz pp pp pp
                     0.00000000000000e+00 1.06000000000000e+01 0.00000000000000e+00
0.00000000000000e+00	1.06000000000000e+01	0.00000000000000e+00
0.00000000000000e+00	1.06000000000000e+01	0.00000000000000e+00
ITEM: ATOMS id type x y z DisplacementX DisplacementY DisplacementZ
1 1 3.509e-01 3.524e-01 3.546e-01 4.558e-03 2.290e-03 5.430e-03
2 1 2.125e+00 2.123e+00 3.555e-01 3.527e-03 2.676e-03 4.529e-03
3 1 2.125e+00 3.535e-01 2.125e+00 2.716e-03 2.436e-03 5.136e-03
4 1 3.518e-01 2.124e+00 2.123e+00 5.750e-03 2.665e-03 6.514e-03
5 1 3.895e+00 3.524e-01 3.567e-01 3.429e-03 2.913e-03 4.913e-03
6 1 5.666e+00 2.123e+00 3.547e-01 5.458e-03 3.203e-03 5.846e-03
7 1 5.666e+00 3.512e-01 2.125e+00 7.068e-03 4.665e-03 6.835e-03
8 1 3.897e+00 2.123e+00 2.126e+00 5.041e-03 3.180e-03 6.061e-03
9 1 7.434e+00 3.514e-01 3.562e-01 6.845e-03 3.222e-03 8.366e-03
10 1 9.203e+00 2.123e+00 3.553e-01 6.519e-03 2.384e-03 6.971e-03
11 1 9.203e+00 3.528e-01 2.125e+00 1.149e-02 2.665e-03 1.121e-02
12 1 7.433e+00 2.123e+00 2.122e+00 4.148e-03 2.938e-03 3.995e-03
13 1 3.532e-01 3.895e+00 3.548e-01 3.999e-03 2.389e-03 4.206e-03
14 1 2.125e+00 3.895e+00 2.125e+00 1.716e-03 2.923e-03 3.351e-03
15 1 3.894e+00 3.894e+00 3.559e-01 2.759e-03 2.879e-03 3.488e-03
16 1 5.666e+00 3.897e+00 2.126e+00 7.779e-03 3.350e-03 8.449e-03
17 1 7.435e+00 3.898e+00 3.566e-01 8.241e-03 1.992e-03 6.040e-03
18 1 9.201e+00 3.897e+00 2.124e+00 7.699e-03 1.887e-03 8.355e-03
19 1 3.515e-01 3.507e-01 3.894e+00 1.046e-03 3.554e-03 3.456e-03
20 1 2.124e+00 2.123e+00 3.894e+00 3.584e-03 3.059e-03 6.052e-03
21 1 3.897e+00 3.496e-01 3.895e+00 5.195e-03 3.559e-03 8.762e-03
22 1 5.662e+00 2.126e+00 3.893e+00 1.148e-04 2.192e-03 -5.272e-04
23 1 7.435e+00 3.637e-01 3.894e+00 2.210e-02 9.458e-04 1.684e-02
24 1 9.206e+00 2.124e+00 3.895e+00 7.880e-03 3.347e-03 9.585e-03
25 1 3.524e-01 3.900e+00 3.896e+00 2.205e-03 2.139e-03 3.468e-03
26 1 3.898e+00 3.896e+00 3.893e+00 6.808e-03 3.030e-03 9.013e-03
27 1 7.432e+00 3.885e+00 3.894e+00 1.094e-02 9.726e-03 1.634e-02
28 1 2.125e+00 3.541e-01 5.664e+00 2.223e-03 2.455e-03 4.756e-03
29 1 3.531e-01 2.125e+00 5.663e+00 5.038e-03 3.194e-03 6.491e-03
30 1 5.666e+00 3.507e-01 5.664e+00 9.632e-03 3.159e-03 9.776e-03
31 1 3.893e+00 2.123e+00 5.663e+00 5.972e-03 2.591e-03 6.573e-03
32 1 9.204e+00 3.506e-01 5.659e+00 5.102e-03 3.494e-03 5.188e-03
33 1 7.433e+00 2.123e+00 5.667e+00 6.785e-03 2.752e-03 7.360e-03
34 1 2.124e+00 3.894e+00 5.662e+00 3.452e-03 2.785e-03 5.337e-03
35 1 5.665e+00 3.897e+00 5.664e+00 1.090e-02 2.577e-03 1.148e-02
36 1 9.202e+00 3.897e+00 5.662e+00 7.396e-03 3.770e-03 9.169e-03
37 1 3.529e-01 3.539e-01 7.434e+00 2.403e-03 3.142e-03 3.726e-03
38 1 2.124e+00 2.124e+00 7.434e+00 3.883e-03 2.576e-03 4.942e-03
39 1 2.123e+00 3.540e-01 9.204e+00 3.328e-03 2.472e-03 4.339e-03
40 1 3.527e-01 2.124e+00 9.204e+00 4.169e-03 2.590e-03 4.798e-03
41 1 3.894e+00 3.540e-01 7.434e+00 4.363e-03 2.255e-03 5.111e-03
42 1 5.664e+00 2.123e+00 7.432e+00 7.242e-03 2.540e-03 7.692e-03
43 1 5.665e+00 3.534e-01 9.205e+00 4.401e-03 2.257e-03 4.376e-03
44 1 3.895e+00 2.124e+00 9.205e+00 4.038e-03 2.551e-03 4.655e-03
45 1 7.434e+00 3.515e-01 7.430e+00 4.018e-03 3.958e-03 3.528e-03
46 1 9.205e+00 2.123e+00 7.433e+00 5.931e-03 3.202e-03 6.580e-03
47 1 9.204e+00 3.549e-01 9.204e+00 4.502e-03 2.831e-03 4.680e-03
48 1 7.433e+00 2.124e+00 9.204e+00 6.228e-03 2.681e-03 6.281e-03
49 1 3.536e-01 3.894e+00 7.434e+00 2.995e-03 2.630e-03 3.844e-03
50 1 2.124e+00 3.894e+00 9.204e+00 3.253e-03 2.551e-03 3.950e-03
51 1 3.896e+00 3.896e+00 7.434e+00 5.258e-03 2.405e-03 6.100e-03
52 1 5.665e+00 3.896e+00 9.205e+00 4.232e-03 2.897e-03 3.801e-03
53 1 7.434e+00 3.898e+00 7.428e+00 7.030e-03 2.057e-03 6.211e-03
54 1 9.203e+00 3.894e+00 9.204e+00 3.848e-03 2.328e-03 2.541e-03
55 1 2.123e+00 5.665e+00 3.540e-01 -6.721e-04 2.959e-03 1.130e-03
56 1 3.530e-01 5.666e+00 2.126e+00 7.946e-04 9.834e-04 3.924e-03
57 1 5.665e+00 5.666e+00 3.546e-01 4.742e-03 2.222e-03 4.106e-03
58 1 3.898e+00 5.666e+00 2.127e+00 -4.792e-03 4.638e-03 -2.514e-03
59 1 9.202e+00 5.667e+00 3.569e-01 6.321e-03 3.094e-03 2.525e-03
60 1 7.434e+00 5.673e+00 2.131e+00 7.609e-02 8.447e-03 1.308e-01
61 1 3.489e-01 7.431e+00 3.556e-01 4.025e-03 1.292e-03 3.501e-03
62 1 2.125e+00 9.203e+00 3.535e-01 1.098e-03 2.473e-03 2.938e-03
63 1 2.126e+00 7.435e+00 2.123e+00 1.295e-03 3.639e-03 1.846e-03
64 1 3.510e-01 9.202e+00 2.126e+00 2.673e-04 1.851e-03 1.522e-03
65 1 3.899e+00 7.434e+00 3.578e-01 5.209e-05 3.389e-03 2.427e-03
66 1 5.665e+00 9.202e+00 3.565e-01 2.816e-03 2.769e-03 2.420e-03
67 1 5.674e+00 7.434e+00 2.132e+00 1.146e+00 2.315e-02 1.135e+00
68 1 3.896e+00 9.202e+00 2.126e+00 5.788e-04 2.921e-03 4.993e-03
69 1 7.434e+00 7.435e+00 3.455e-01 -4.640e-03 3.766e-03 -8.140e-03
70 1 9.202e+00 9.204e+00 3.581e-01 5.018e-03 1.782e-03 5.597e-03
71 1 9.195e+00 7.432e+00 2.133e+00 -2.665e-01 -5.760e-03 -2.708e-01
72 1 7.435e+00 9.195e+00 2.133e+00 -3.548e-02 1.643e-02 -4.492e-02
73 1 2.123e+00 5.663e+00 3.894e+00 2.918e-03 3.331e-03 5.162e-03
74 1 5.673e+00 5.673e+00 3.894e+00 6.292e-02 -2.181e-02 1.988e-02
75 1 9.195e+00 5.672e+00 3.895e+00 -1.877e-01 -3.152e-02 -2.773e-01
76 1 3.630e-01 7.434e+00 3.896e+00 1.092e-02 5.499e-03 2.110e-02
77 1 2.125e+00 9.206e+00 3.893e+00 4.392e-03 1.796e-03 4.995e-03
78 1 3.884e+00 7.435e+00 3.893e+00 -1.971e-02 2.347e-03 -1.748e-02
79 1 5.672e+00 9.196e+00 3.894e+00 1.871e-01 -6.185e-02 2.340e-01
80 1 9.194e+00 9.195e+00 3.894e+00 -9.963e-02 -1.439e-02 -1.550e-01
81 1 3.524e-01 5.666e+00 5.661e+00 -2.586e-03 2.749e-03 4.190e-04
82 1 3.897e+00 5.665e+00 5.663e+00 4.175e-03 2.631e-03 9.007e-03
83 1 7.435e+00 5.674e+00 5.655e+00 -2.870e-01 -3.411e-02 -2.224e-01
84 1 2.124e+00 7.435e+00 5.666e+00 3.913e-03 2.775e-03 4.074e-03
85 1 3.515e-01 9.201e+00 5.662e+00 -3.826e-03 3.456e-03 6.109e-04
86 1 5.674e+00 7.433e+00 5.655e+00 -1.672e-01 5.521e-02 -1.947e-01
87 1 3.897e+00 9.202e+00 5.663e+00 3.051e-03 1.869e-03 4.769e-03
88 1 9.195e+00 7.435e+00 5.654e+00 6.157e-02 3.470e-02 3.613e-02
89 1 7.436e+00 9.196e+00 5.655e+00 -3.353e-01 -9.148e-03 -3.149e-01
90 1 2.124e+00 5.663e+00 7.433e+00 2.152e-03 2.481e-03 4.119e-03
91 1 3.532e-01 5.665e+00 9.206e+00 3.166e-03 2.595e-03 3.034e-03
92 1 5.668e+00 5.667e+00 7.432e+00 2.503e-03 3.006e-03 1.181e-03
93 1 3.894e+00 5.664e+00 9.203e+00 3.245e-03 1.952e-03 3.531e-03
94 1 9.204e+00 5.665e+00 7.431e+00 3.223e-04 1.504e-03 6.836e-04
95 1 7.436e+00 5.664e+00 9.203e+00 9.921e-04 3.971e-03 2.231e-03
96 1 3.492e-01 7.433e+00 7.432e+00 -6.799e-03 3.036e-03 -5.310e-03
97 1 2.126e+00 9.203e+00 7.434e+00 1.236e-03 2.395e-03 3.330e-03
98 1 2.124e+00 7.435e+00 9.202e+00 1.137e-03 2.374e-03 2.519e-03
99 1 3.536e-01 9.203e+00 9.204e+00 3.422e-03 2.447e-03 3.988e-03
100 1 3.897e+00 7.435e+00 7.431e+00 7.729e-03 2.258e-03 8.510e-03
101 1 5.665e+00 9.202e+00 7.431e+00 3.405e-03 2.255e-03 2.645e-03
102 1 5.663e+00 7.433e+00 9.205e+00 1.782e-03 1.975e-03 -3.863e-05
103 1 3.894e+00 9.202e+00 9.202e+00 2.293e-03 2.374e-03 2.699e-03
104 1 7.435e+00 7.434e+00 7.444e+00 1.104e-02 2.493e-03 7.346e-03
105 1 9.203e+00 9.204e+00 7.432e+00 2.149e-03 3.644e-03 5.511e-04
106 1 9.207e+00 7.435e+00 9.204e+00 8.502e-03 3.347e-03 9.440e-03
107 1 7.434e+00 9.207e+00 9.203e+00 6.254e-03 1.922e-03 3.104e-03
ITEM: TIMESTEP
0
ITEM: NUMBER OF ATOMS
107
ITEM: BOX BOUNDS xy xz yz pp pp pp
                     0.00000000000000e+00 1.06000000000000e+01 0.00000000000000e+00
0.00000000000000e+00	1.06000000000000e+01	0.00000000000000e+00
0.00000000000000e+00	1.06000000000000e+01	0.00000000000000e+00
ITEM: ATOMS id type x y z DisplacementX DisplacementY DisplacementZ
1 1 3.509e-01 3.524e-01 3.546e-01 1.192e-03 3.570e-04 3.157e-03
2 1 2.125e+00 2.123e+00 3.555e-01 -1.441e-03 2.281e-04 4.503e-03
3 1 2.125e+00 3.535e-01 2.125e+00 -1.875e-04 1.722e-04 4.236e-03
4 1 3.518e-01 2.124e+00 2.123e+00 -1.503e-03 9.052e-06 4.760e-03
5 1 3.895e+00 3.524e-01 3.567e-01 -4.313e-03 2.590e-04 6.727e-03
6 1 5.666e+00 2.123e+00 3.547e-01 -5.120e-03 1.600e-04 7.149e-03
7 1 5.666e+00 3.512e-01 2.125e+00 -1.092e-02 1.557e-03 1.068e-02
8 1 3.897e+00 2.123e+00 2.126e+00 -6.515e-03 3.932e-04 8.048e-03
9 1 7.434e+00 3.514e-01 3.562e-01 -7.330e-03 5.173e-04 9.058e-03
10 1 9.203e+00 2.123e+00 3.553e-01 -2.162e-03 -3.987e-04 4.606e-03
11 1 9.203e+00 3.528e-01 2.125e+00 -5.621e-03 -5.167e-04 7.366e-03
12 1 7.433e+00 2.123e+00 2.122e+00 3.988e-03 1.028e-03 -2.021e-03
13 1 3.532e-01 3.895e+00 3.548e-01 -5.895e-05 -1.990e-05 3.450e-03
14 1 2.125e+00 3.895e+00 2.125e+00 7.617e-05 2.840e-04 3.459e-03
15 1 3.894e+00 3.894e+00 3.559e-01 -2.886e-03 5.337e-04 5.508e-03
16 1 5.666e+00 3.897e+00 2.126e+00 -1.200e-02 -1.007e-04 1.167e-02
17 1 7.435e+00 3.898e+00 3.566e-01 -5.962e-03 9.189e-04 8.380e-03
18 1 9.201e+00 3.897e+00 2.124e+00 -3.374e-03 -1.425e-04 5.569e-03
19 1 3.515e-01 3.507e-01 3.894e+00 -1.332e-03 3.360e-04 4.801e-03
20 1 2.124e+00 2.123e+00 3.894e+00 -3.055e-03 -4.999e-06 5.867e-03
21 1 3.897e+00 3.496e-01 3.895e+00 -2.410e-03 4.583e-04 3.979e-03
22 1 5.662e+00 2.126e+00 3.893e+00 -3.097e-03 8.591e-04 5.886e-03
23 1 7.435e+00 3.637e-01 3.894e+00 -2.382e-02 -2.925e-03 2.268e-02
24 1 9.206e+00 2.124e+00 3.895e+00 -7.785e-04 1.242e-03 2.144e-03
25 1 3.524e-01 3.900e+00 3.896e+00 -5.805e-03 -2.518e-04 8.167e-03
26 1 3.898e+00 3.896e+00 3.893e+00 -1.729e-03 9.180e-04 4.221e-03
27 1 7.432e+00 3.885e+00 3.894e+00 -1.019e-02 3.555e-03 4.888e-03
28 1 2.125e+00 3.541e-01 5.664e+00 -1.105e-03 3.045e-04 4.497e-03
29 1 3.531e-01 2.125e+00 5.663e+00 -4.173e-03 6.296e-04 5.772e-03
30 1 5.666e+00 3.507e-01 5.664e+00 -9.941e-04 6.862e-04 2.843e-03
31 1 3.893e+00 2.123e+00 5.663e+00 -2.230e-03 3.415e-04 4.841e-03
32 1 9.204e+00 3.506e-01 5.659e+00 -6.779e-03 1.189e-03 6.529e-03
33 1 7.433e+00 2.123e+00 5.667e+00 -8.034e-03 1.743e-03 8.792e-03
34 1 2.124e+00 3.894e+00 5.662e+00 -8.984e-04 1.115e-03 4.497e-03
35 1 5.665e+00 3.897e+00 5.664e+00 -9.626e-04 9.927e-04 3.009e-03
36 1 9.202e+00 3.897e+00 5.662e+00 -9.999e-03 9.191e-04 9.491e-03
37 1 3.529e-01 3.539e-01 7.434e+00 -2.705e-03 2.682e-04 5.373e-03
38 1 2.124e+00 2.124e+00 7.434e+00 -1.749e-03 5.154e-04 4.732e-03
39 1 2.123e+00 3.540e-01 9.204e+00 -1.032e-03 3.465e-04 4.384e-03
40 1 3.527e-01 2.124e+00 9.204e+00 -1.362e-03 3.672e-04 4.484e-03
41 1 3.894e+00 3.540e-01 7.434e+00 3.064e-04 5.391e-04 2.763e-03
42 1 5.664e+00 2.123e+00 7.432e+00 -2.537e-03 5.784e-04 4.616e-03
43 1 5.665e+00 3.534e-01 9.205e+00 -2.685e-03 3.185e-04 5.108e-03
44 1 3.895e+00 2.124e+00 9.205e+00 -2.036e-03 3.602e-04 4.909e-03
45 1 7.434e+00 3.515e-01 7.430e+00 7.602e-04 5.703e-04 9.305e-04
46 1 9.205e+00 2.123e+00 7.433e+00 -5.766e-03 8.657e-04 6.976e-03
47 1 9.204e+00 3.549e-01 9.204e+00 -6.231e-04 3.508e-04 4.257e-03
48 1 7.433e+00 2.124e+00 9.204e+00 -3.698e-03 -8.652e-05 6.429e-03
49 1 3.536e-01 3.894e+00 7.434e+00 -2.795e-03 8.904e-04 5.698e-03
50 1 2.124e+00 3.894e+00 9.204e+00 -8.998e-04 4.717e-04 4.259e-03
51 1 3.896e+00 3.896e+00 7.434e+00 2.482e-04 4.219e-04 3.450e-03
52 1 5.665e+00 3.896e+00 9.205e+00 -1.383e-03 3.969e-04 4.264e-03
53 1 7.434e+00 3.898e+00 7.428e+00 -1.420e-03 -2.238e-04 4.036e-03
54 1 9.203e+00 3.894e+00 9.204e+00 -1.218e-04 7.179e-04 3.686e-03
55 1 2.123e+00 5.665e+00 3.540e-01 6.459e-04 4.912e-05 3.034e-03
56 1 3.530e-01 5.666e+00 2.126e+00 -3.600e-04 -3.401e-04 2.222e-03
57 1 5.665e+00 5.666e+00 3.546e-01 -2.987e-03 2.069e-03 2.850e-03
58 1 3.898e+00 5.666e+00 2.127e+00 3.704e-03 1.570e-03 1.898e-03
59 1 9.202e+00 5.667e+00 3.569e-01 5.715e-03 1.768e-03 4.604e-04
60 1 7.434e+00 5.673e+00 2.131e+00 -1.479e-01 1.754e-03 1.065e-01
61 1 3.489e-01 7.431e+00 3.556e-01 7.668e-03 7.666e-04 -1.212e-04
62 1 2.125e+00 9.203e+00 3.535e-01 1.416e-03 2.513e-04 3.358e-03
63 1 2.126e+00 7.435e+00 2.123e+00 3.859e-03 1.527e-03 -4.266e-04
64 1 3.510e-01 9.202e+00 2.126e+00 6.677e-03 1.820e-03 1.413e-03
65 1 3.899e+00 7.434e+00 3.578e-01 -8.158e-03 1.288e-03 1.007e-02
66 1 5.665e+00 9.202e+00 3.565e-01 -4.158e-03 5.867e-04 6.750e-03
67 1 5.674e+00 7.434e+00 2.132e+00 1.819e-01 8.540e-03 -2.763e-01
68 1 3.896e+00 9.202e+00 2.126e+00 -2.594e-03 -1.102e-03 6.555e-03
69 1 7.434e+00 7.435e+00 3.455e-01 2.170e-02 -7.789e-04 -1.584e-02
70 1 9.202e+00 9.204e+00 3.581e-01 3.405e-03 -1.551e-04 2.320e-03
71 1 9.195e+00 7.432e+00 2.133e+00 -1.260e+00 -2.122e-02 1.088e+00
72 1 7.435e+00 9.195e+00 2.133e+00 5.296e-02 -7.265e-03 -5.000e-02
73 1 2.123e+00 5.663e+00 3.894e+00 1.851e-03 9.756e-04 1.593e-03
74 1 5.673e+00 5.673e+00 3.894e+00 2.534e-01 -2.034e-02 -2.190e-01
75 1 9.195e+00 5.672e+00 3.895e+00 -8.881e-03 -3.959e-02 1.409e-01
76 1 3.630e-01 7.434e+00 3.896e+00 6.233e-03 3.821e-03 -4.905e-03
77 1 2.125e+00 9.206e+00 3.893e+00 -1.740e-03 1.297e-03 3.853e-03
78 1 3.884e+00 7.435e+00 3.893e+00 9.404e-04 5.389e-04 9.261e-03
79 1 5.672e+00 9.196e+00 3.894e+00 1.271e-01 -2.720e-03 -7.951e-02
80 1 9.194e+00 9.195e+00 3.894e+00 -1.274e-01 1.854e-02 9.745e-02
81 1 3.524e-01 5.666e+00 5.661e+00 -2.849e-03 2.190e-03 7.904e-03
82 1 3.897e+00 5.665e+00 5.663e+00 4.491e-03 1.435e-03 -6.524e-04
83 1 7.435e+00 5.674e+00 5.655e+00 1.558e-01 1.792e-03 -1.668e-01
84 1 2.124e+00 7.435e+00 5.666e+00 -1.675e-03 2.062e-03 4.649e-03
85 1 3.515e-01 9.201e+00 5.662e+00 -5.952e-03 3.331e-05 8.191e-03
86 1 5.674e+00 7.433e+00 5.655e+00 -8.760e-02 -3.581e-03 -6.679e-02
87 1 3.897e+00 9.202e+00 5.663e+00 9.515e-03 1.589e-03 -3.685e-03
88 1 9.195e+00 7.435e+00 5.654e+00 2.783e-01 1.269e-02 -3.224e-01
89 1 7.436e+00 9.196e+00 5.655e+00 2.652e-01 -2.189e-02 -2.148e-01
90 1 2.124e+00 5.663e+00 7.433e+00 9.257e-05 1.337e-03 4.224e-03
91 1 3.532e-01 5.665e+00 9.206e+00 1.248e-03 7.217e-04 2.838e-03
92 1 5.668e+00 5.667e+00 7.432e+00 4.552e-03 1.279e-04 1.946e-03
93 1 3.894e+00 5.664e+00 9.203e+00 -2.813e-04 4.969e-04 3.904e-03
94 1 9.204e+00 5.665e+00 7.431e+00 -1.080e-03 3.267e-04 3.139e-03
95 1 7.436e+00 5.664e+00 9.203e+00 -4.850e-04 1.706e-03 2.125e-03
96 1 3.492e-01 7.433e+00 7.432e+00 -3.892e-03 5.191e-04 7.784e-03
97 1 2.126e+00 9.203e+00 7.434e+00 -9.209e-06 5.038e-04 3.822e-03
98 1 2.124e+00 7.435e+00 9.202e+00 7.181e-04 2.043e-04 4.200e-03
99 1 3.536e-01 9.203e+00 9.204e+00 1.448e-03 1.996e-04 2.921e-03
100 1 3.897e+00 7.435e+00 7.431e+00 1.094e-02 4.330e-04 -5.792e-03
101 1 5.665e+00 9.202e+00 7.431e+00 1.121e-03 5.021e-04 1.919e-03
102 1 5.663e+00 7.433e+00 9.205e+00 2.647e-03 1.609e-03 2.228e-03
103 1 3.894e+00 9.202e+00 9.202e+00 -1.989e-03 4.634e-04 5.035e-03
104 1 7.435e+00 7.434e+00 7.444e+00 -1.051e-02 4.608e-03 1.569e-02
105 1 9.203e+00 9.204e+00 7.432e+00 1.514e-03 1.054e-03 2.796e-03
106 1 9.207e+00 7.435e+00 9.204e+00 -6.777e-04 1.580e-03 1.396e-03
107 1 7.434e+00 9.207e+00 9.203e+00 -4.971e-04 1.594e-03 2.693e-03
ITEM: TIMESTEP
0
ITEM: NUMBER OF ATOMS
107
ITEM: BOX BOUNDS xy xz yz pp pp pp
                     0.00000000000000e+00 1.06000000000000e+01 0.00000000000000e+00
0.00000000000000e+00	1.06000000000000e+01	0.00000000000000e+00
0.00000000000000e+00	1.06000000000000e+01	0.00000000000000e+00
ITEM: ATOMS id type x y z DisplacementX DisplacementY DisplacementZ
1 1 3.509e-01 3.524e-01 3.546e-01 6.166e-04 -4.351e-03 3.740e-03
2 1 2.125e+00 2.123e+00 3.555e-01 1.253e-04 -3.275e-03 3.017e-03
3 1 2.125e+00 3.535e-01 2.125e+00 1.917e-04 -4.934e-03 5.221e-03
4 1 3.518e-01 2.124e+00 2.123e+00 1.695e-04 -3.018e-03 1.732e-03
5 1 3.895e+00 3.524e-01 3.567e-01 -1.767e-04 -3.211e-05 1.763e-04
6 1 5.666e+00 2.123e+00 3.547e-01 -1.549e-04 1.068e-03 -1.469e-03
7 1 5.666e+00 3.512e-01 2.125e+00 1.053e-04 2.819e-03 -3.136e-03
8 1 3.897e+00 2.123e+00 2.126e+00 -6.168e-04 -2.294e-04 -1.984e-04
9 1 7.434e+00 3.514e-01 3.562e-01 1.288e-03 2.371e-03 -3.168e-03
10 1 9.203e+00 2.123e+00 3.553e-01 1.381e-04 -2.088e-04 -1.236e-03
11 1 9.203e+00 3.528e-01 2.125e+00 -1.144e-03 3.333e-03 -8.049e-03
12 1 7.433e+00 2.123e+00 2.122e+00 -1.984e-03 -1.338e-03 1.844e-03
13 1 3.532e-01 3.895e+00 3.548e-01 4.628e-04 -5.176e-03 4.389e-03
14 1 2.125e+00 3.895e+00 2.125e+00 2.997e-04 -8.167e-03 8.017e-03
15 1 3.894e+00 3.894e+00 3.559e-01 1.457e-04 -4.875e-03 4.666e-03
16 1 5.666e+00 3.897e+00 2.126e+00 -4.174e-04 3.239e-03 -5.005e-03
17 1 7.435e+00 3.898e+00 3.566e-01 -4.649e-04 -7.548e-03 5.255e-03
18 1 9.201e+00 3.897e+00 2.124e+00 -1.374e-04 -3.045e-03 1.792e-03
19 1 3.515e-01 3.507e-01 3.894e+00 2.550e-04 -1.134e-02 1.223e-02
20 1 2.124e+00 2.123e+00 3.894e+00 -2.609e-05 -3.024e-03 3.120e-03
21 1 3.897e+00 3.496e-01 3.895e+00 -1.930e-04 -3.103e-03 4.863e-03
22 1 5.662e+00 2.126e+00 3.893e+00 -1.342e-03 -9.216e-03 7.279e-03
23 1 7.435e+00 3.637e-01 3.894e+00 -7.696e-03 3.045e-02 -4.082e-02
24 1 9.206e+00 2.124e+00 3.895e+00 2.406e-04 -1.157e-03 1.920e-03
25 1 3.524e-01 3.900e+00 3.896e+00 -1.204e-03 -1.577e-03 -6.984e-04
26 1 3.898e+00 3.896e+00 3.893e+00 -3.122e-04 -1.572e-03 9.870e-04
27 1 7.432e+00 3.885e+00 3.894e+00 1.533e-03 -1.161e-02 1.877e-02
28 1 2.125e+00 3.541e-01 5.664e+00 1.592e-04 -6.140e-03 6.452e-03
29 1 3.531e-01 2.125e+00 5.663e+00 -6.937e-04 -1.396e-03 2.115e-03
30 1 5.666e+00 3.507e-01 5.664e+00 -1.925e-04 -3.714e-03 3.481e-03
31 1 3.893e+00 2.123e+00 5.663e+00 -2.788e-04 -2.595e-03 1.570e-03
32 1 9.204e+00 3.506e-01 5.659e+00 -2.102e-03 -5.033e-03 5.135e-03
33 1 7.433e+00 2.123e+00 5.667e+00 3.255e-04 -9.329e-03 7.113e-03
34 1 2.124e+00 3.894e+00 5.662e+00 -7.331e-04 -4.899e-03 5.263e-03
35 1 5.665e+00 3.897e+00 5.664e+00 1.010e-04 2.762e-03 -4.731e-03
36 1 9.202e+00 3.897e+00 5.662e+00 -2.089e-03 8.561e-03 -8.154e-03
37 1 3.529e-01 3.539e-01 7.434e+00 2.317e-04 -3.591e-03 4.341e-03
38 1 2.124e+00 2.124e+00 7.434e+00 -4.028e-05 -3.457e-03 3.358e-03
39 1 2.123e+00 3.540e-01 9.204e+00 2.542e-04 -3.404e-03 3.268e-03
40 1 3.527e-01 2.124e+00 9.204e+00 1.040e-04 -2.731e-03 2.495e-03
41 1 3.894e+00 3.540e-01 7.434e+00 1.905e-04 -5.187e-03 4.750e-03
42 1 5.664e+00 2.123e+00 7.432e+00 2.930e-04 -1.058e-03 3.485e-04
43 1 5.665e+00 3.534e-01 9.205e+00 1.033e-04 -3.704e-04 -5.339e-04
44 1 3.895e+00 2.124e+00 9.205e+00 3.904e-05 -2.445e-03 2.027e-03
45 1 7.434e+00 3.515e-01 7.430e+00 3.197e-04 -5.505e-03 6.661e-03
46 1 9.205e+00 2.123e+00 7.433e+00 -1.031e-03 -2.490e-04 3.181e-04
47 1 9.204e+00 3.549e-01 9.204e+00 9.750e-04 -8.623e-04 1.002e-03
48 1 7.433e+00 2.124e+00 9.204e+00 1.103e-04 1.900e-03 -2.628e-03
49 1 3.536e-01 3.894e+00 7.434e+00 -7.256e-04 -1.750e-03 1.567e-03
50 1 2.124e+00 3.894e+00 9.204e+00 1.207e-04 -4.002e-03 3.772e-03
51 1 3.896e+00 3.896e+00 7.434e+00 7.749e-05 -1.379e-03 1.009e-03
52 1 5.665e+00 3.896e+00 9.205e+00 5.414e-04 -2.165e-03 1.690e-03
53 1 7.434e+00 3.898e+00 7.428e+00 -1.705e-03 1.181e-02 -1.382e-02
54 1 9.203e+00 3.894e+00 9.204e+00 1.664e-04 -3.927e-03 2.877e-03
55 1 2.123e+00 5.665e+00 3.540e-01 1.048e-03 -7.548e-03 7.551e-03
56 1 3.530e-01 5.666e+00 2.126e+00 -6.171e-04 -1.142e-02 1.081e-02
57 1 5.665e+00 5.666e+00 3.546e-01 3.677e-04 -6.398e-03 7.642e-03
58 1 3.898e+00 5.666e+00 2.127e+00 1.320e-03 -1.704e-02 1.746e-02
59 1 9.202e+00 5.667e+00 3.569e-01 1.160e-04 -8.867e-03 6.814e-03
60 1 7.434e+00 5.673e+00 2.131e+00 4.733e-02 1.207e-01 -1.650e-01
61 1 3.489e-01 7.431e+00 3.556e-01 1.922e-03 -1.611e-02 1.465e-02
62 1 2.125e+00 9.203e+00 3.535e-01 4.251e-04 -5.599e-03 5.642e-03
63 1 2.126e+00 7.435e+00 2.123e+00 -8.222e-04 -3.472e-04 1.502e-03
64 1 3.510e-01 9.202e+00 2.126e+00 7.242e-04 -1.429e-02 1.513e-02
65 1 3.899e+00 7.434e+00 3.578e-01 5.469e-04 -6.185e-03 7.096e-03
66 1 5.665e+00 9.202e+00 3.565e-01 -8.011e-05 3.318e-04 -9.799e-04
67 1 5.674e+00 7.434e+00 2.132e+00 -3.983e-02 9.430e-02 -7.222e-02
68 1 3.896e+00 9.202e+00 2.126e+00 -1.772e-04 -2.791e-03 2.541e-03
69 1 7.434e+00 7.435e+00 3.455e-01 -7.804e-04 2.323e-02 -2.169e-02
70 1 9.202e+00 9.204e+00 3.581e-01 1.762e-03 -3.941e-03 4.418e-03
71 1 9.195e+00 7.432e+00 2.133e+00 -4.315e-02 7.579e-02 -4.727e-02
72 1 7.435e+00 9.195e+00 2.133e+00 1.738e-02 -1.489e+00 1.525e+00
73 1 2.123e+00 5.663e+00 3.894e+00 3.463e-04 -1.149e-02 1.423e-02
74 1 5.673e+00 5.673e+00 3.894e+00 1.446e-03 1.941e-01 -1.616e-01
75 1 9.195e+00 5.672e+00 3.895e+00 4.857e-02 1.595e-01 -1.679e-01
76 1 3.630e-01 7.434e+00 3.896e+00 -2.613e-03 -3.914e-03 1.094e-02
77 1 2.125e+00 9.206e+00 3.893e+00 -1.156e-03 -2.973e-03 7.883e-05
78 1 3.884e+00 7.435e+00 3.893e+00 5.435e-06 -3.361e-02 3.057e-02
79 1 5.672e+00 9.196e+00 3.894e+00 2.422e-02 1.292e-02 -4.955e-02
80 1 9.194e+00 9.195e+00 3.894e+00 1.194e-02 -1.198e-02 3.000e-02
81 1 3.524e-01 5.666e+00 5.661e+00 -1.902e-03 -6.418e-03 3.391e-03
82 1 3.897e+00 5.665e+00 5.663e+00 -7.867e-04 -3.769e-03 8.091e-03
83 1 7.435e+00 5.674e+00 5.655e+00 -2.232e-02 -9.340e-02 7.651e-02
84 1 2.124e+00 7.435e+00 5.666e+00 1.084e-03 -1.528e-02 1.483e-02
85 1 3.515e-01 9.201e+00 5.662e+00 4.778e-04 -8.420e-03 1.054e-02
86 1 5.674e+00 7.433e+00 5.655e+00 3.690e-03 2.757e-01 -2.392e-01
87 1 3.897e+00 9.202e+00 5.663e+00 -4.425e-04 -1.668e-02 1.710e-02
88 1 9.195e+00 7.435e+00 5.654e+00 -9.654e-03 3.021e-01 -2.819e-01
89 1 7.436e+00 9.196e+00 5.655e+00 2.922e-03 1.304e-01 -9.503e-02
90 1 2.124e+00 5.663e+00 7.433e+00 -3.737e-04 -5.359e-03 5.802e-03
91 1 3.532e-01 5.665e+00 9.206e+00 1.546e-04 -4.273e-03 4.447e-03
92 1 5.668e+00 5.667e+00 7.432e+00 1.769e-03 1.558e-03 -3.432e-03
93 1 3.894e+00 5.664e+00 9.203e+00 2.606e-04 -4.193e-03 3.406e-03
94 1 9.204e+00 5.665e+00 7.431e+00 -3.401e-04 -9.866e-05 2.641e-04
95 1 7.436e+00 5.664e+00 9.203e+00 1.185e-03 -9.711e-03 1.026e-02
96 1 3.492e-01 7.433e+00 7.432e+00 -1.771e-04 -3.352e-03 3.657e-03
97 1 2.126e+00 9.203e+00 7.434e+00 3.191e-04 -7.708e-03 8.666e-03
98 1 2.124e+00 7.435e+00 9.202e+00 7.609e-04 -5.122e-03 5.229e-03
99 1 3.536e-01 9.203e+00 9.204e+00 8.642e-04 -3.796e-03 3.873e-03
100 1 3.897e+00 7.435e+00 7.431e+00 -3.941e-05 -2.135e-03 2.840e-03
101 1 5.665e+00 9.202e+00 7.431e+00 1.216e-03 -2.004e-03 -1.743e-04
102 1 5.663e+00 7.433e+00 9.205e+00 4.868e-04 -1.277e-02 1.108e-02
103 1 3.894e+00 9.202e+00 9.202e+00 3.204e-04 -2.610e-03 2.121e-03
104 1 7.435e+00 7.434e+00 7.444e+00 5.325e-03 -2.944e-02 2.645e-02
105 1 9.203e+00 9.204e+00 7.432e+00 1.489e-03 -2.252e-03 1.960e-03
106 1 9.207e+00 7.435e+00 9.204e+00 -1.252e-03 -3.130e-04 1.404e-03
107 1 7.434e+00 9.207e+00 9.203e+00 -1.960e-03 -4.638e-03 2.124e-03
ITEM: TIMESTEP
0
ITEM: NUMBER OF ATOMS
107
ITEM: BOX BOUNDS xy xz yz pp pp pp
                     0.00000000000000e+00 1.06000000000000e+01 0.00000000000000e+00
0.00000000000000e+00	1.06000000000000e+01	0.00000000000000e+00
0.00000000000000e+00	1.06000000000000e+01	0.00000000000000e+00
ITEM: ATOMS id type x y z DisplacementX DisplacementY DisplacementZ