ITEM: TIMESTEP
0
ITEM: NUMBER OF ATOMS
18
ITEM: BOX BOUNDS xy xz yz pp pp pp
                     -5.00000000000000e-01 5.00000000000000e-01 0.00000000000000e+00
-5.00000000000000e-01	5.00000000000000e-01	0.00000000000000e+00
-5.00000000000000e-01	5.00000000000000e-01	0.00000000000000e+00
ITEM: ATOMS id type x y z DisplacementX DisplacementY DisplacementZ
1 1 0.000e+00 -2.000e-01 -2.000e-01 -3.927e-02 2.207e-03 3.177e-03
2 1 -2.000e-01 0.000e+00 -2.000e-01 9.296e-03 -4.250e-03 7.159e-04
3 1 0.000e+00 0.000e+00 0.000e+00 -9.114e-03 1.976e-01 -9.404e-03
4 1 0.000e+00 0.000e+00 -2.000e-01 -1.519e-02 -8.983e-03 -2.562e-03
5 1 2.000e-01 0.000e+00 -2.000e-01 -5.309e-03 4.992e-03 -5.088e-03
6 1 2.000e-01 0.000e+00 0.000e+00 1.605e-02 8.253e-03 -2.161e-02
7 1 2.000e-01 2.000e-01 0.000e+00 1.080e-02 3.722e-03 -3.631e-03
8 1 -2.000e-01 0.000e+00 2.000e-01 7.034e-03 -7.346e-03 6.311e-03
9 1 -2.000e-01 2.000e-01 0.000e+00 -7.307e-03 1.704e-02 -1.962e-02
10 1 0.000e+00 2.000e-01 -2.000e-01 -2.765e-04 5.100e-03 -8.413e-03
11 1 0.000e+00 0.000e+00 2.000e-01 -3.789e-03 -8.045e-03 7.108e-03
12 1 0.000e+00 2.000e-01 2.000e-01 -1.563e-02 -7.765e-03 1.568e-04
13 1 0.000e+00 -2.000e-01 0.000e+00 6.508e-04 3.450e-03 2.440e-03
14 1 -2.000e-01 0.000e+00 0.000e+00 -4.988e-03 2.958e-03 -3.573e-03
15 1 2.000e-01 0.000e+00 2.000e-01 -3.205e-04 -3.092e-04 -8.289e-03
16 1 2.000e-01 -2.000e-01 0.000e+00 6.628e-03 1.638e-02 -1.127e-02
17 1 0.000e+00 -2.000e-01 2.000e-01 9.208e-03 2.798e-03 -1.153e-02
18 1 -2.000e-01 -2.000e-01 0.000e+00 6.726e-03 -7.625e-03 -6.354e-03
ITEM: TIMESTEP
0
ITEM: NUMBER OF ATOMS
18
ITEM: BOX BOUNDS xy xz yz pp pp pp
                     -5.00000000000000e-01 5.00000000000000e-01 0.00000000000000e+00
-5.00000000000000e-01	5.00000000000000e-01	0.00000000000000e+00
-5.00000000000000e-01	5.00000000000000e-01	0.00000000000000e+00
ITEM: ATOMS id type x y z DisplacementX DisplacementY DisplacementZ
19 1 2.000e-01 2.000e-01 0.000e+00 6.622e-03 1.075e-02 -5.955e-03
20 1 -2.000e-01 -2.000e-01 0.000e+00 -2.746e-03 -1.473e-04 8.761e-03
21 1 0.000e+00 2.000e-01 0.000e+00 5.816e-04 -1.452e-02 -8.925e-03
22 1 0.000e+00 -2.000e-01 -2.000e-01 -1.627e-02 -2.069e-03 -4.968e-04
23 1 0.000e+00 -2.000e-01 0.000e+00 -5.706e-03 7.224e-03 3.892e-03
24 1 0.000e+00 0.000e+00 0.000e+00 -1.926e-01 -1.279e-02 -7.157e-03
25 1 0.000e+00 0.000e+00 -2.000e-01 -5.148e-04 -5.393e-03 4.408e-03
26 1 0.000e+00 2.000e-01 -2.000e-01 1.278e-02 -8.049e-03 -6.548e-03
27 1 2.000e-01 0.000e+00 0.000e+00 -1.952e-02 1.721e-03 -1.402e-02
28 1 2.000e-01 -2.000e-01 0.000e+00 -1.921e-04 3.492e-03 1.216e-02
29 1 0.000e+00 0.000e+00 2.000e-01 1.779e-02 3.507e-03 8.527e-03
30 1 -2.000e-01 0.000e+00 -2.000e-01 -9.215e-03 2.385e-02 5.241e-03
31 1 2.000e-01 0.000e+00 2.000e-01 -1.028e-02 -9.301e-03 1.641e-02
32 1 -2.000e-01 0.000e+00 2.000e-01 -5.083e-03 2.380e-03 -1.644e-02
33 1 2.000e-01 0.000e+00 -2.000e-01 7.484e-03 4.196e-04 3.127e-03
34 1 0.000e+00 -2.000e-01 2.000e-01 -4.568e-03 1.341e-02 2.457e-02
35 1 0.000e+00 2.000e-01 2.000e-01 -9.364e-03 -1.723e-04 2.887e-03
36 1 -2.000e-01 2.000e-01 0.000e+00 3.039e-04 -8.838e-03 -1.683e-02
ITEM: TIMESTEP
0
ITEM: NUMBER OF ATOMS
18
ITEM: BOX BOUNDS xy xz yz pp pp pp
                     -5.00000000000000e-01 5.00000000000000e-01 0.00000000000000e+00
-5.00000000000000e-01	5.00000000000000e-01	0.00000000000000e+00
-5.00000000000000e-01	5.00000000000000e-01	0.00000000000000e+00
ITEM: ATOMS id type x y z DisplacementX DisplacementY DisplacementZ
37 1 -2.000e-01 0.000e+00 2.000e-01 -9.965e-04 -2.746e-04 -4.920e-03
38 1 -2.000e-01 2.000e-01 0.000e+00 -1.575e-02 1.559e-02 -2.377e-02
39 1 0.000e+00 2.000e-01 0.000e+00 6.768e-04 -6.052e-03 1.159e-03
40 1 0.000e+00 -2.000e-01 -2.000e-01 6.694e-04 -9.344e-04 6.849e-03
41 1 2.000e-01 -2.000e-01 0.000e+00 1.719e-02 -2.559e-04 8.640e-03
42 1 0.000e+00 0.000e+00 2.000e-01 1.172e-02 -3.835e-04 7.893e-03
43 1 0.000e+00 2.000e-01 -2.000e-01 -2.038e-02 2.970e-02 -7.467e-03
44 1 0.000e+00 -2.000e-01 2.000e-01 -1.621e-03 4.096e-03 2.111e-03
45 1 0.000e+00 0.000e+00 0.000e+00 2.077e-01 -6.669e-03 2.351e-03
46 1 2.000e-01 0.000e+00 -2.000e-01 1.055e-02 -3.658e-03 -7.792e-03
47 1 -2.000e-01 0.000e+00 0.000e+00 3.334e-03 -3.474e-04 -5.210e-03
48 1 0.000e+00 2.000e-01 2.000e-01 7.116e-03 -9.341e-07 4.145e-04
49 1 2.000e-01 0.000e+00 2.000e-01 7.421e-03 6.972e-03 8.030e-03
50 1 -2.000e-01 -2.000e-01 0.000e+00 9.609e-03 5.324e-03 -1.152e-03
51 1 0.000e+00 -2.000e-01 0.000e+00 4.440e-03 -4.746e-03 -4.086e-03
52 1 2.000e-01 2.000e-01 0.000e+00 1.870e-02 1.775e-02 -9.333e-03
53 1 0.000e+00 0.000e+00 -2.000e-01 -7.297e-03 -9.112e-04 5.763e-03
54 1 -2.000e-01 0.000e+00 -2.000e-01 3.650e-03 4.259e-03 6.376e-04
ITEM: TIMESTEP
0
ITEM: NUMBER OF ATOMS
18
ITEM: BOX BOUNDS xy xz yz pp pp pp
                     -5.00000000000000e-01 5.00000000000000e-01 0.00000000000000e+00
-5.00000000000000e-01	5.00000000000000e-01	0.00000000000000e+00
-5.00000000000000e-01	5.00000000000000e-01	0.00000000000000e+00
ITEM: ATOMS id type x y z DisplacementX DisplacementY DisplacementZ
55 1 -2.000e-01 -2.000e-01 0.000e+00 1.179e-03 2.278e-03 1.596e-02
56 1 0.000e+00 -2.000e-01 2.000e-01 8.210e-03 -8.481e-03 -9.351e-03
57 1 -2.000e-01 0.000e+00 -2.000e-01 -8.474e-03 -1.056e-02 -4.011e-03
58 1 0.000e+00 -2.000e-01 0.000e+00 -2.113e-04 2.858e-03 1.059e-02
59 1 2.000e-01 -2.000e-01 0.000e+00 8.912e-03 -1.312e-02 -1.085e-02
60 1 0.000e+00 2.000e-01 -2.000e-01 1.031e-02 1.003e-02 -5.093e-04
61 1 -2.000e-01 2.000e-01 0.000e+00 3.461e-03 -9.214e-03 -7.299e-03
62 1 2.000e-01 0.000e+00 2.000e-01 1.456e-02 1.972e-02 -2.039e-02
63 1 2.000e-01 0.000e+00 0.000e+00 2.640e-02 -8.875e-03 -3.037e-03
64 1 0.000e+00 0.000e+00 -2.000e-01 -9.381e-03 -1.049e-02 4.157e-03
65 1 2.000e-01 2.000e-01 0.000e+00 1.712e-02 -6.301e-03 2.456e-02
66 1 -2.000e-01 0.000e+00 2.000e-01 -1.365e-02 1.631e-03 8.503e-03
67 1 0.000e+00 0.000e+00 0.000e+00 1.969e-02 1.131e-02 2.043e-01
68 1 2.000e-01 0.000e+00 -2.000e-01 1.240e-02 -9.849e-04 7.735e-03
69 1 0.000e+00 2.000e-01 0.000e+00 6.274e-03 -7.702e-03 -6.471e-03
70 1 0.000e+00 -2.000e-01 -2.000e-01 2.931e-03 -5.753e-03 -4.809e-03
71 1 0.000e+00 2.000e-01 2.000e-01 5.453e-03 -3.607e-02 -5.643e-03
72 1 -2.000e-01 0.000e+00 0.000e+00 1.188e-02 -1.954e-03 1.827e-02
