ITEM: TIMESTEP
0
ITEM: NUMBER OF ATOMS
12
ITEM: BOX BOUNDS xy xz yz pp pp pp
                     -5.00000000000000e-01 5.00000000000000e-01 0.00000000000000e+00
-5.00000000000000e-01	5.00000000000000e-01	0.00000000000000e+00
-5.00000000000000e-01	5.00000000000000e-01	0.00000000000000e+00
ITEM: ATOMS id type x y z DisplacementX DisplacementY DisplacementZ
1 1 0.000e+00 0.000e+00 0.000e+00 -6.969e-04 1.017e-01 -5.366e-04
2 1 1.000e-01 1.000e-01 0.000e+00 -6.131e-04 5.658e-04 -1.960e-04
3 1 2.000e-01 0.000e+00 0.000e+00 7.435e-04 -1.606e-03 1.232e-04
4 1 -1.000e-01 -1.000e-01 0.000e+00 -7.316e-04 7.685e-05 -8.709e-04
5 1 -2.000e-01 0.000e+00 0.000e+00 -1.761e-03 3.834e-04 -1.603e-04
6 1 0.000e+00 2.000e-01 0.000e+00 6.513e-04 -9.823e-05 -1.165e-03
7 1 0.000e+00 -1.000e-01 0.000e+00 -5.156e-04 -8.510e-04 -2.258e-03
8 1 -1.000e-01 0.000e+00 0.000e+00 -7.762e-04 -3.899e-04 -5.664e-04
9 1 1.000e-01 -1.000e-01 0.000e+00 2.027e-03 5.144e-04 7.557e-04
10 1 0.000e+00 -2.000e-01 0.000e+00 5.055e-04 9.997e-04 -9.963e-04
11 1 -1.000e-01 1.000e-01 0.000e+00 7.654e-04 -1.008e-03 -6.625e-04
12 1 1.000e-01 0.000e+00 0.000e+00 -6.147e-04 4.305e-04 4.243e-04
ITEM: TIMESTEP
0
ITEM: NUMBER OF ATOMS
12
ITEM: BOX BOUNDS xy xz yz pp pp pp
                     -5.00000000000000e-01 5.00000000000000e-01 0.00000000000000e+00
-5.00000000000000e-01	5.00000000000000e-01	0.00000000000000e+00
-5.00000000000000e-01	5.00000000000000e-01	0.00000000000000e+00
ITEM: ATOMS id type x y z DisplacementX DisplacementY DisplacementZ
13 1 -1.000e-01 -1.000e-01 0.000e+00 -2.154e-03 -4.515e-04 8.482e-05
14 1 0.000e+00 0.000e+00 0.000e+00 -9.932e-02 -6.280e-04 8.348e-04
15 1 1.000e-01 -1.000e-01 0.000e+00 5.751e-04 -1.133e-03 -6.785e-04
16 1 0.000e+00 1.000e-01 0.000e+00 -8.929e-05 -1.845e-03 -5.623e-04
17 1 2.000e-01 0.000e+00 0.000e+00 5.770e-04 9.889e-04 -6.262e-04
18 1 0.000e+00 2.000e-01 0.000e+00 -8.396e-04 -8.310e-04 -2.687e-04
19 1 1.000e-01 0.000e+00 0.000e+00 4.167e-04 -2.652e-04 -2.086e-04
20 1 1.000e-01 1.000e-01 0.000e+00 -3.036e-04 2.408e-04 1.400e-03
21 1 -1.000e-01 1.000e-01 0.000e+00 1.146e-04 -1.736e-04 6.657e-04
22 1 0.000e+00 -2.000e-01 0.000e+00 4.748e-05 1.330e-03 -1.745e-04
23 1 -2.000e-01 0.000e+00 0.000e+00 3.594e-04 7.486e-04 -1.424e-03
24 1 0.000e+00 -1.000e-01 0.000e+00 -2.109e-03 -1.170e-04 2.906e-04
ITEM: TIMESTEP
0
ITEM: NUMBER OF ATOMS
12
ITEM: BOX BOUNDS xy xz yz pp pp pp
                     -5.00000000000000e-01 5.00000000000000e-01 0.00000000000000e+00
-5.00000000000000e-01	5.00000000000000e-01	0.00000000000000e+00
-5.00000000000000e-01	5.00000000000000e-01	0.00000000000000e+00
ITEM: ATOMS id type x y z DisplacementX DisplacementY DisplacementZ
25 1 0.000e+00 -2.000e-01 0.000e+00 -4.063e-04 4.983e-05 5.939e-04
26 1 1.000e-01 -1.000e-01 0.000e+00 -4.257e-04 -1.915e-03 -7.486e-05
27 1 0.000e+00 1.000e-01 0.000e+00 4.344e-04 -9.703e-04 -3.892e-05
28 1 1.000e-01 0.000e+00 0.000e+00 6.250e-04 -2.244e-04 -5.893e-04
29 1 -1.000e-01 0.000e+00 0.000e+00 6.516e-04 8.446e-04 -1.715e-03
30 1 1.000e-01 1.000e-01 0.000e+00 -3.165e-04 -1.097e-03 9.535e-04
31 1 -2.000e-01 0.000e+00 0.000e+00 9.389e-04 1.597e-04 -6.332e-04
32 1 2.000e-01 0.000e+00 0.000e+00 4.015e-04 -3.579e-04 1.050e-03
33 1 0.000e+00 0.000e+00 0.000e+00 -3.629e-04 -1.002e-01 -1.176e-03
34 1 0.000e+00 2.000e-01 0.000e+00 3.210e-04 -6.622e-04 -2.498e-04
35 1 -1.000e-01 1.000e-01 0.000e+00 -7.594e-04 -7.472e-04 6.432e-04
36 1 -1.000e-01 -1.000e-01 0.000e+00 -1.842e-03 1.630e-03 -9.795e-04
ITEM: TIMESTEP
0
ITEM: NUMBER OF ATOMS
12
ITEM: BOX BOUNDS xy xz yz pp pp pp
                     -5.00000000000000e-01 5.00000000000000e-01 0.00000000000000e+00
-5.00000000000000e-01	5.00000000000000e-01	0.00000000000000e+00
-5.00000000000000e-01	5.00000000000000e-01	0.00000000000000e+00
ITEM: ATOMS id type x y z DisplacementX DisplacementY DisplacementZ
37 1 1.000e-01 -1.000e-01 0.000e+00 -1.612e-05 2.610e-04 -5.598e-04
38 1 2.000e-01 0.000e+00 0.000e+00 6.036e-04 4.517e-04 -5.710e-04
39 1 0.000e+00 1.000e-01 0.000e+00 1.105e-03 -2.136e-04 -2.625e-03
40 1 0.000e+00 -2.000e-01 0.000e+00 6.147e-04 -3.565e-04 1.926e-04
41 1 -1.000e-01 1.000e-01 0.000e+00 8.160e-04 6.529e-04 -1.245e-03
42 1 -2.000e-01 0.000e+00 0.000e+00 -6.715e-04 1.524e-04 -2.180e-03
43 1 -1.000e-01 0.000e+00 0.000e+00 -8.110e-04 2.022e-03 5.269e-04
44 1 -1.000e-01 -1.000e-01 0.000e+00 5.015e-04 1.778e-03 3.524e-04
45 1 1.000e-01 1.000e-01 0.000e+00 4.971e-04 -1.156e-04 -2.901e-05
46 1 0.000e+00 -1.000e-01 0.000e+00 1.645e-03 4.250e-04 7.064e-04
47 1 0.000e+00 2.000e-01 0.000e+00 -1.780e-03 1.468e-04 1.068e-03
48 1 0.000e+00 0.000e+00 0.000e+00 9.866e-02 1.044e-03 1.645e-03
ITEM: TIMESTEP
0
ITEM: NUMBER OF ATOMS
12
ITEM: BOX BOUNDS xy xz yz pp pp pp
                     -5.00000000000000e-01 5.00000000000000e-01 0.00000000000000e+00
-5.00000000000000e-01	5.00000000000000e-01	0.00000000000000e+00
-5.00000000000000e-01	5.00000000000000e-01	0.00000000000000e+00
ITEM: ATOMS id type x y z DisplacementX DisplacementY DisplacementZ
49 1 0.000e+00 2.000e-01 0.000e+00 1.476e-03 -2.402e-03 -1.022e-03
50 1 -1.000e-01 0.000e+00 0.000e+00 -7.015e-04 2.218e-03 -7.522e-05
51 1 1.000e-01 1.000e-01 0.000e+00 -9.073e-04 -4.554e-04 1.508e-03
52 1 0.000e+00 1.000e-01 0.000e+00 -1.464e-03 -3.860e-04 1.587e-03
53 1 0.000e+00 0.000e+00 0.000e+00 6.343e-04 -9.985e-02 3.861e-05
54 1 2.000e-01 0.000e+00 0.000e+00 2.202e-03 1.453e-03 -2.795e-04
55 1 -1.000e-01 -1.000e-01 0.000e+00 -2.466e-05 -3.160e-04 1.257e-03
56 1 1.000e-01 -1.000e-01 0.000e+00 -1.492e-04 -2.706e-04 -1.960e-03
57 1 -1.000e-01 1.000e-01 0.000e+00 5.426e-04 6.264e-04 -3.041e-04
58 1 -2.000e-01 0.000e+00 0.000e+00 1.983e-03 7.695e-04 -4.887e-04
59 1 1.000e-01 0.000e+00 0.000e+00 -7.132e-04 1.085e-03 1.249e-03
60 1 0.000e+00 -2.000e-01 0.000e+00 -1.051e-03 -1.647e-03 -7.076e-04
ITEM: TIMESTEP
0
ITEM: NUMBER OF ATOMS
12
ITEM: BOX BOUNDS xy xz yz pp pp pp
                     -5.00000000000000e-01 5.00000000000000e-01 0.00000000000000e+00
-5.00000000000000e-01	5.00000000000000e-01	0.00000000000000e+00
-5.00000000000000e-01	5.00000000000000e-01	0.00000000000000e+00
ITEM: ATOMS id type x y z DisplacementX DisplacementY DisplacementZ
61 1 -1.000e-01 0.000e+00 0.000e+00 -7.887e-04 1.175e-03 1.323e-03
62 1 0.000e+00 -1.000e-01 0.000e+00 -1.361e-03 -1.207e-03 -6.920e-04
63 1 -2.000e-01 0.000e+00 0.000e+00 -1.945e-03 4.209e-04 1.332e-03
64 1 0.000e+00 1.000e-01 0.000e+00 -6.706e-05 -3.837e-04 -1.533e-03
65 1 1.000e-01 1.000e-01 0.000e+00 -1.236e-03 6.346e-04 7.371e-04
66 1 0.000e+00 0.000e+00 0.000e+00 1.011e-01 6.242e-04 3.494e-04
67 1 2.000e-01 0.000e+00 0.000e+00 7.159e-04 -5.516e-04 -1.713e-03
68 1 0.000e+00 2.000e-01 0.000e+00 8.015e-04 -3.696e-04 -1.162e-03
69 1 -1.000e-01 1.000e-01 0.000e+00 1.701e-03 -2.721e-04 -2.094e-04
70 1 -1.000e-01 -1.000e-01 0.000e+00 1.217e-03 -1.603e-04 8.394e-04
71 1 0.000e+00 -2.000e-01 0.000e+00 8.834e-04 -3.935e-04 -1.253e-03
72 1 1.000e-01 -1.000e-01 0.000e+00 2.526e-04 -6.112e-04 -5.816e-04
ITEM: TIMESTEP
0
ITEM: NUMBER OF ATOMS
12
ITEM: BOX BOUNDS xy xz yz pp pp pp
                     -5.00000000000000e-01 5.00000000000000e-01 0.00000000000000e+00
-5.00000000000000e-01	5.00000000000000e-01	0.00000000000000e+00
-5.00000000000000e-01	5.00000000000000e-01	0.00000000000000e+00
ITEM: ATOMS id type x y z DisplacementX DisplacementY DisplacementZ
73 1 1.000e-01 -1.000e-01 0.000e+00 -1.282e-03 9.526e-04 5.859e-04
74 1 0.000e+00 -1.000e-01 0.000e+00 -1.431e-03 2.649e-05 1.674e-03
75 1 2.000e-01 0.000e+00 0.000e+00 -8.938e-04 4.311e-04 -1.394e-03
76 1 0.000e+00 2.000e-01 0.000e+00 -8.672e-05 -5.831e-04 -5.860e-04
77 1 -1.000e-01 1.000e-01 0.000e+00 6.323e-05 -4.743e-04 -9.593e-04
78 1 1.000e-01 1.000e-01 0.000e+00 -2.785e-04 2.679e-04 8.259e-04
79 1 -2.000e-01 0.000e+00 0.000e+00 -1.480e-03 -2.282e-03 1.579e-04
80 1 1.000e-01 0.000e+00 0.000e+00 5.916e-04 -9.969e-04 7.934e-04
81 1 0.000e+00 0.000e+00 0.000e+00 -9.931e-02 5.827e-04 2.384e-04
82 1 0.000e+00 1.000e-01 0.000e+00 -1.412e-03 -8.323e-04 1.791e-03
83 1 0.000e+00 -2.000e-01 0.000e+00 9.155e-04 -1.317e-03 -9.463e-04
84 1 -1.000e-01 -1.000e-01 0.000e+00 3.340e-04 -3.549e-04 -2.340e-04
ITEM: TIMESTEP
0
ITEM: NUMBER OF ATOMS
12
ITEM: BOX BOUNDS xy xz yz pp pp pp
                     -5.00000000000000e-01 5.00000000000000e-01 0.00000000000000e+00
-5.00000000000000e-01	5.00000000000000e-01	0.00000000000000e+00
-5.00000000000000e-01	5.00000000000000e-01	0.00000000000000e+00
ITEM: ATOMS id type x y z DisplacementX DisplacementY DisplacementZ
85 1 2.000e-01 0.000e+00 0.000e+00 1.091e-03 -4.569e-04 5.048e-04
86 1 1.000e-01 0.000e+00 0.000e+00 8.329e-04 3.607e-04 -7.434e-04
87 1 -1.000e-01 0.000e+00 0.000e+00 1.437e-05 2.022e-05 8.762e-06
88 1 0.000e+00 2.000e-01 0.000e+00 -7.073e-04 1.985e-03 3.435e-04
89 1 -1.000e-01 1.000e-01 0.000e+00 -8.159e-04 -7.872e-04 -7.555e-04
90 1 0.000e+00 -1.000e-01 0.000e+00 7.497e-05 -9.077e-04 -1.741e-03
91 1 1.000e-01 1.000e-01 0.000e+00 -8.339e-04 1.717e-04 2.156e-04
92 1 1.000e-01 -1.000e-01 0.000e+00 -1.050e-03 2.229e-04 -8.548e-04
93 1 -2.000e-01 0.000e+00 0.000e+00 -2.164e-03 5.066e-07 8.498e-04
94 1 -1.000e-01 -1.000e-01 0.000e+00 -2.443e-04 4.624e-04 -1.735e-03
95 1 0.000e+00 0.000e+00 0.000e+00 2.740e-03 1.012e-01 7.514e-04
96 1 0.000e+00 -2.000e-01 0.000e+00 2.709e-04 -1.118e-03 -1.958e-04
ITEM: TIMESTEP
0
ITEM: NUMBER OF ATOMS
12
ITEM: BOX BOUNDS xy xz yz pp pp pp
                     -5.00000000000000e-01 5.00000000000000e-01 0.00000000000000e+00
-5.00000000000000e-01	5.00000000000000e-01	0.00000000000000e+00
-5.00000000000000e-01	5.00000000000000e-01	0.00000000000000e+00
ITEM: ATOMS id type x y z DisplacementX DisplacementY DisplacementZ
97 1 0.000e+00 0.000e+00 0.000e+00 -1.448e-03 -1.008e-01 1.736e-03
98 1 1.000e-01 1.000e-01 0.000e+00 -1.747e-03 -1.634e-03 3.781e-04
99 1 0.000e+00 -2.000e-01 0.000e+00 -7.377e-04 -2.560e-03 2.279e-04
100 1 -1.000e-01 1.000e-01 0.000e+00 1.058e-03 6.867e-04 1.156e-03
101 1 0.000e+00 1.000e-01 0.000e+00 -1.438e-03 -2.697e-04 4.017e-04
102 1 -2.000e-01 0.000e+00 0.000e+00 -9.524e-04 2.258e-03 -4.427e-04
103 1 1.000e-01 -1.000e-01 0.000e+00 6.388e-05 -7.345e-04 -5.495e-04
104 1 -1.000e-01 0.000e+00 0.000e+00 1.830e-04 -9.635e-04 -1.101e-03
105 1 0.000e+00 2.000e-01 0.000e+00 -1.499e-03 -7.755e-04 -1.174e-03
106 1 2.000e-01 0.000e+00 0.000e+00 1.238e-03 1.556e-03 -2.162e-03
107 1 1.000e-01 0.000e+00 0.000e+00 -8.080e-04 -1.844e-04 6.178e-04
108 1 -1.000e-01 -1.000e-01 0.000e+00 -1.157e-03 -3.572e-04 6.143e-04
ITEM: TIMESTEP
0
ITEM: NUMBER OF ATOMS
12
ITEM: BOX BOUNDS xy xz yz pp pp pp
                     -5.00000000000000e-01 5.00000000000000e-01 0.00000000000000e+00
-5.00000000000000e-01	5.00000000000000e-01	0.00000000000000e+00
-5.00000000000000e-01	5.00000000000000e-01	0.00000000000000e+00
ITEM: ATOMS id type x y z DisplacementX DisplacementY DisplacementZ
109 1 0.000e+00 2.000e-01 0.000e+00 -8.016e-04 9.824e-04 -8.393e-04
110 1 1.000e-01 -1.000e-01 0.000e+00 1.132e-03 1.654e-03 -7.571e-04
111 1 2.000e-01 0.000e+00 0.000e+00 1.316e-03 -1.003e-03 -1.354e-03
112 1 1.000e-01 0.000e+00 0.000e+00 -8.356e-04 -1.490e-04 -9.235e-04
113 1 -1.000e-01 0.000e+00 0.000e+00 6.250e-04 -9.327e-04 5.678e-04
114 1 0.000e+00 0.000e+00 0.000e+00 -1.306e-03 1.001e-01 1.055e-05
115 1 -1.000e-01 -1.000e-01 0.000e+00 -2.606e-04 -1.295e-03 -1.402e-03
116 1 0.000e+00 -1.000e-01 0.000e+00 1.079e-03 -1.080e-03 -1.414e-03
117 1 0.000e+00 -2.000e-01 0.000e+00 9.869e-04 1.071e-03 -1.329e-04
118 1 -2.000e-01 0.000e+00 0.000e+00 4.263e-04 9.188e-04 2.241e-04
119 1 1.000e-01 1.000e-01 0.000e+00 1.132e-03 1.479e-04 -1.143e-03
120 1 -1.000e-01 1.000e-01 0.000e+00 6.803e-04 7.848e-04 7.113e-04
ITEM: TIMESTEP
0
ITEM: NUMBER OF ATOMS
12
ITEM: BOX BOUNDS xy xz yz pp pp pp
                     -5.00000000000000e-01 5.00000000000000e-01 0.00000000000000e+00
-5.00000000000000e-01	5.00000000000000e-01	0.00000000000000e+00
-5.00000000000000e-01	5.00000000000000e-01	0.00000000000000e+00
ITEM: ATOMS id type x y z DisplacementX DisplacementY DisplacementZ
121 1 -1.000e-01 1.000e-01 0.000e+00 -6.424e-04 1.376e-03 4.063e-04
122 1 0.000e+00 -2.000e-01 0.000e+00 -7.411e-04 3.833e-04 -7.830e-04
123 1 1.000e-01 -1.000e-01 0.000e+00 -8.166e-04 -2.062e-04 -2.541e-03
124 1 0.000e+00 -1.000e-01 0.000e+00 2.780e-04 -5.423e-04 3.527e-04
125 1 0.000e+00 2.000e-01 0.000e+00 7.716e-04 1.244e-03 -1.999e-03
126 1 -1.000e-01 -1.000e-01 0.000e+00 -1.462e-03 4.365e-04 -7.019e-04
127 1 1.000e-01 0.000e+00 0.000e+00 -8.897e-04 -8.677e-05 -3.593e-04
128 1 2.000e-01 0.000e+00 0.000e+00 -4.060e-04 1.529e-03 1.014e-04
129 1 0.000e+00 0.000e+00 0.000e+00 -1.009e-01 4.471e-04 4.207e-04
130 1 1.000e-01 1.000e-01 0.000e+00 -8.062e-04 5.899e-04 1.983e-04
131 1 0.000e+00 1.000e-01 0.000e+00 1.056e-03 2.630e-03 -5.696e-04
132 1 -2.000e-01 0.000e+00 0.000e+00 -2.449e-04 3.127e-04 -1.076e-03
ITEM: TIMESTEP
0
ITEM: NUMBER OF ATOMS
12
ITEM: BOX BOUNDS xy xz yz pp pp pp
                     -5.00000000000000e-01 5.00000000000000e-01 0.00000000000000e+00
-5.00000000000000e-01	5.00000000000000e-01	0.00000000000000e+00
-5.00000000000000e-01	5.00000000000000e-01	0.00000000000000e+00
ITEM: ATOMS id type x y z DisplacementX DisplacementY DisplacementZ
133 1 -2.000e-01 0.000e+00 0.000e+00 -4.987e-04 3.846e-04 -6.532e-04
134 1 1.000e-01 1.000e-01 0.000e+00 -9.695e-04 5.982e-04 -1.154e-03
135 1 -1.000e-01 0.000e+00 0.000e+00 3.053e-05 3.777e-05 -1.854e-03
136 1 0.000e+00 -1.000e-01 0.000e+00 -1.565e-03 5.603e-04 2.622e-04
137 1 1.000e-01 -1.000e-01 0.000e+00 -1.306e-05 -9.823e-05 -7.126e-04
138 1 0.000e+00 2.000e-01 0.000e+00 -7.398e-05 -8.989e-04 -6.299e-04
139 1 0.000e+00 -2.000e-01 0.000e+00 1.523e-04 -9.558e-04 1.675e-03
140 1 -1.000e-01 -1.000e-01 0.000e+00 3.239e-04 4.834e-05 -4.453e-04
141 1 -1.000e-01 1.000e-01 0.000e+00 -1.874e-03 5.159e-04 -4.866e-04
142 1 2.000e-01 0.000e+00 0.000e+00 2.380e-04 5.136e-04 4.242e-04
143 1 0.000e+00 1.000e-01 0.000e+00 2.650e-05 2.203e-04 2.725e-03
144 1 0.000e+00 0.000e+00 0.000e+00 1.008e-01 -1.328e-03 -4.347e-04
ITEM: TIMESTEP
0
ITEM: NUMBER OF ATOMS
12
ITEM: BOX BOUNDS xy xz yz pp pp pp
                     -5.00000000000000e-01 5.00000000000000e-01 0.00000000000000e+00
-5.00000000000000e-01	5.00000000000000e-01	0.00000000000000e+00
-5.00000000000000e-01	5.00000000000000e-01	0.00000000000000e+00
ITEM: ATOMS id type x y z DisplacementX DisplacementY DisplacementZ
145 1 0.000e+00 -2.000e-01 0.000e+00 -2.153e-03 1.213e-03 -9.745e-04
146 1 -2.000e-01 0.000e+00 0.000e+00 1.426e-03 -4.660e-04 1.170e-03
147 1 0.000e+00 0.000e+00 0.000e+00 1.002e-01 -7.081e-05 -2.640e-04
148 1 -1.000e-01 0.000e+00 0.000e+00 -5.171e-04 -4.415e-04 1.231e-03
149 1 1.000e-01 -1.000e-01 0.000e+00 7.540e-06 7.555e-04 4.408e-04
150 1 2.000e-01 0.000e+00 0.000e+00 1.353e-03 -5.463e-04 1.353e-03
151 1 0.000e+00 -1.000e-01 0.000e+00 8.637e-04 -1.040e-03 -1.937e-04
152 1 -1.000e-01 1.000e-01 0.000e+00 -9.343e-06 1.177e-03 1.246e-03
153 1 0.000e+00 2.000e-01 0.000e+00 -1.081e-03 -1.430e-03 -1.332e-03
154 1 1.000e-01 1.000e-01 0.000e+00 2.393e-04 -5.175e-04 2.111e-03
155 1 0.000e+00 1.000e-01 0.000e+00 4.394e-04 2.287e-04 -5.729e-05
156 1 -1.000e-01 -1.000e-01 0.000e+00 1.259e-03 -1.614e-03 3.584e-04
ITEM: TIMESTEP
0
ITEM: NUMBER OF ATOMS
12
ITEM: BOX BOUNDS xy xz yz pp pp pp
                     -5.00000000000000e-01 5.00000000000000e-01 0.00000000000000e+00
-5.00000000000000e-01	5.00000000000000e-01	0.00000000000000e+00
-5.00000000000000e-01	5.00000000000000e-01	0.00000000000000e+00
ITEM: ATOMS id type x y z DisplacementX DisplacementY DisplacementZ
157 1 1.000e-01 -1.000e-01 0.000e+00 9.745e-04 -9.462e-04 4.305e-04
158 1 2.000e-01 0.000e+00 0.000e+00 -3.554e-06 -1.296e-04 1.414e-03
159 1 -1.000e-01 -1.000e-01 0.000e+00 -2.449e-04 9.774e-04 -1.882e-04
160 1 0.000e+00 -2.000e-01 0.000e+00 2.051e-03 3.681e-04 1.113e-03
161 1 -1.000e-01 1.000e-01 0.000e+00 1.731e-03 -9.288e-04 6.072e-04
162 1 0.000e+00 -1.000e-01 0.000e+00 -1.378e-04 7.545e-04 -1.438e-05
163 1 0.000e+00 0.000e+00 0.000e+00 1.860e-04 1.006e-01 -2.700e-04
164 1 1.000e-01 1.000e-01 0.000e+00 -8.725e-04 -8.425e-04 3.709e-04
165 1 -1.000e-01 0.000e+00 0.000e+00 -2.993e-04 -1.469e-03 -2.010e-04
166 1 0.000e+00 2.000e-01 0.000e+00 -3.042e-04 5.917e-04 -1.090e-03
167 1 -2.000e-01 0.000e+00 0.000e+00 6.798e-04 -4.789e-04 1.952e-04
168 1 1.000e-01 0.000e+00 0.000e+00 4.126e-05 1.006e-03 9.012e-04
ITEM: TIMESTEP
0
ITEM: NUMBER OF ATOMS
12
ITEM: BOX BOUNDS xy xz yz pp pp pp
                     -5.00000000000000e-01 5.00000000000000e-01 0.00000000000000e+00
-5.00000000000000e-01	5.00000000000000e-01	0.00000000000000e+00
-5.00000000000000e-01	5.00000000000000e-01	0.00000000000000e+00
ITEM: ATOMS id type x y z DisplacementX DisplacementY DisplacementZ
169 1 2.000e-01 0.000e+00 0.000e+00 1.368e-03 -1.711e-04 1.101e-03
170 1 0.000e+00 -2.000e-01 0.000e+00 -4.827e-04 -3.074e-04 1.523e-03
171 1 1.000e-01 -1.000e-01 0.000e+00 -1.088e-03 -5.990e-04 -3.403e-04
172 1 1.000e-01 0.000e+00 0.000e+00 -4.613e-04 1.751e-04 -2.050e-04
173 1 1.000e-01 1.000e-01 0.000e+00 1.441e-04 1.732e-04 -6.417e-04
174 1 -2.000e-01 0.000e+00 0.000e+00 2.003e-03 5.886e-04 -1.044e-03
175 1 -1.000e-01 -1.000e-01 0.000e+00 -1.781e-04 -1.047e-03 1.036e-04
176 1 0.000e+00 0.000e+00 0.000e+00 -9.904e-02 -8.639e-04 -9.452e-04
177 1 0.000e+00 2.000e-01 0.000e+00 -2.499e-04 -1.549e-03 7.025e-04
178 1 -1.000e-01 1.000e-01 0.000e+00 -7.643e-04 -5.543e-04 -1.402e-03
179 1 0.000e+00 1.000e-01 0.000e+00 9.023e-04 8.239e-05 -5.053e-04
180 1 0.000e+00 -1.000e-01 0.000e+00 -8.493e-04 1.988e-03 1.973e-03
ITEM: TIMESTEP
0
ITEM: NUMBER OF ATOMS
12
ITEM: BOX BOUNDS xy xz yz pp pp pp
                     -5.00000000000000e-01 5.00000000000000e-01 0.00000000000000e+00
-5.00000000000000e-01	5.00000000000000e-01	0.00000000000000e+00
-5.00000000000000e-01	5.00000000000000e-01	0.00000000000000e+00
ITEM: ATOMS id type x y z DisplacementX DisplacementY DisplacementZ
181 1 0.000e+00 1.000e-01 0.000e+00 -6.941e-04 1.444e-03 -1.134e-03
182 1 2.000e-01 0.000e+00 0.000e+00 -3.118e-04 3.220e-04 1.409e-03
183 1 -1.000e-01 -1.000e-01 0.000e+00 1.196e-03 -5.786e-04 -6.581e-04
184 1 0.000e+00 -2.000e-01 0.000e+00 1.335e-03 4.974e-04 -1.050e-03
185 1 1.000e-01 -1.000e-01 0.000e+00 1.705e-04 8.466e-04 1.138e-03
186 1 0.000e+00 2.000e-01 0.000e+00 -1.208e-03 7.432e-04 -1.415e-03
187 1 1.000e-01 1.000e-01 0.000e+00 -1.964e-03 -5.798e-04 1.242e-03
188 1 -2.000e-01 0.000e+00 0.000e+00 3.266e-04 -4.568e-04 -2.544e-03
189 1 -1.000e-01 1.000e-01 0.000e+00 2.526e-04 -8.926e-04 2.886e-05
190 1 0.000e+00 0.000e+00 0.000e+00 1.072e-03 -1.005e-01 1.524e-03
191 1 -1.000e-01 0.000e+00 0.000e+00 -9.518e-04 -1.534e-03 -1.907e-03
192 1 1.000e-01 0.000e+00 0.000e+00 3.140e-04 1.073e-03 -1.457e-03
ITEM: TIMESTEP
0
ITEM: NUMBER OF ATOMS
12
ITEM: BOX BOUNDS xy xz yz pp pp pp
                     -5.00000000000000e-01 5.00000000000000e-01 0.00000000000000e+00
-5.00000000000000e-01	5.00000000000000e-01	0.00000000000000e+00
-5.00000000000000e-01	5.00000000000000e-01	0.00000000000000e+00
ITEM: ATOMS id type x y z DisplacementX DisplacementY DisplacementZ
193 1 0.000e+00 -2.000e-01 0.000e+00 -1.210e-03 -2.995e-05 1.242e-03
194 1 -1.000e-01 1.000e-01 0.000e+00 -1.003e-03 2.327e-04 1.390e-03
195 1 0.000e+00 0.000e+00 0.000e+00 9.962e-02 1.408e-04 -1.610e-03
196 1 1.000e-01 1.000e-01 0.000e+00 -8.319e-04 -6.883e-04 5.585e-04
197 1 0.000e+00 2.000e-01 0.000e+00 -1.207e-04 -2.987e-04 -1.243e-04
198 1 -2.000e-01 0.000e+00 0.000e+00 7.083e-04 6.191e-04 1.242e-03
199 1 1.000e-01 -1.000e-01 0.000e+00 5.363e-04 -1.646e-03 -1.383e-03
200 1 0.000e+00 -1.000e-01 0.000e+00 3.582e-05 3.448e-05 1.131e-03
201 1 2.000e-01 0.000e+00 0.000e+00 -1.394e-03 -1.330e-03 -1.683e-03
202 1 -1.000e-01 0.000e+00 0.000e+00 2.315e-04 -5.859e-04 1.903e-03
203 1 -1.000e-01 -1.000e-01 0.000e+00 -1.961e-04 -3.044e-04 6.290e-04
204 1 0.000e+00 1.000e-01 0.000e+00 -3.777e-05 4.908e-04 -5.224e-04
ITEM: TIMESTEP
0
ITEM: NUMBER OF ATOMS
12
ITEM: BOX BOUNDS xy xz yz pp pp pp
                     -5.00000000000000e-01 5.00000000000000e-01 0.00000000000000e+00
-5.00000000000000e-01	5.00000000000000e-01	0.00000000000000e+00
-5.00000000000000e-01	5.00000000000000e-01	0.00000000000000e+00
ITEM: ATOMS id type x y z DisplacementX DisplacementY DisplacementZ
205 1 -2.000e-01 0.000e+00 0.000e+00 1.379e-03 -1.371e-03 9.245e-05
206 1 0.000e+00 2.000e-01 0.000e+00 1.069e-03 -7.396e-04 -1.326e-03
207 1 -1.000e-01 -1.000e-01 0.000e+00 -1.501e-03 -9.200e-04 1.097e-03
208 1 1.000e-01 1.000e-01 0.000e+00 -6.666e-04 6.678e-04 -1.272e-03
209 1 0.000e+00 0.000e+00 0.000e+00 1.319e-03 -9.973e-02 -3.730e-04
210 1 -1.000e-01 1.000e-01 0.000e+00 -3.744e-05 1.138e-03 -4.639e-04
211 1 2.000e-01 0.000e+00 0.000e+00 1.574e-03 -1.811e-03 6.424e-05
212 1 0.000e+00 -2.000e-01 0.000e+00 1.319e-03 6.831e-04 -7.967e-04
213 1 0.000e+00 1.000e-01 0.000e+00 3.353e-04 7.896e-04 -8.154e-04
214 1 1.000e-01 0.000e+00 0.000e+00 -7.483e-04 1.131e-03 -1.143e-03
215 1 1.000e-01 -1.000e-01 0.000e+00 -4.541e-04 7.548e-04 6.521e-04
216 1 -1.000e-01 0.000e+00 0.000e+00 2.477e-03 -2.008e-04 7.261e-04
ITEM: TIMESTEP
0
ITEM: NUMBER OF ATOMS
12
ITEM: BOX BOUNDS xy xz yz pp pp pp
                     -5.00000000000000e-01 5.00000000000000e-01 0.00000000000000e+00
-5.00000000000000e-01	5.00000000000000e-01	0.00000000000000e+00
-5.00000000000000e-01	5.00000000000000e-01	0.00000000000000e+00
ITEM: ATOMS id type x y z DisplacementX DisplacementY DisplacementZ
217 1 -1.000e-01 -1.000e-01 0.000e+00 -1.961e-03 2.287e-04 3.175e-05
218 1 0.000e+00 -2.000e-01 0.000e+00 4.028e-04 -1.020e-03 -2.439e-04
219 1 -1.000e-01 1.000e-01 0.000e+00 -1.297e-03 9.943e-04 -5.775e-04
220 1 0.000e+00 -1.000e-01 0.000e+00 -4.414e-04 -9.332e-04 1.159e-04
221 1 0.000e+00 2.000e-01 0.000e+00 -1.800e-04 -5.432e-04 -1.660e-03
222 1 0.000e+00 0.000e+00 0.000e+00 5.486e-05 9.995e-02 -6.256e-04
223 1 1.000e-01 -1.000e-01 0.000e+00 2.297e-04 -4.355e-04 8.290e-04
224 1 -1.000e-01 0.000e+00 0.000e+00 1.368e-03 4.663e-04 -1.460e-03
225 1 1.000e-01 1.000e-01 0.000e+00 1.395e-03 -3.593e-04 -3.661e-05
226 1 -2.000e-01 0.000e+00 0.000e+00 8.956e-05 1.016e-03 1.658e-03
227 1 2.000e-01 0.000e+00 0.000e+00 1.284e-04 7.075e-04 7.074e-04
228 1 1.000e-01 0.000e+00 0.000e+00 -2.900e-04 -1.772e-03 -1.574e-03
ITEM: TIMESTEP
0
ITEM: NUMBER OF ATOMS
12
ITEM: BOX BOUNDS xy xz yz pp pp pp
                     -5.00000000000000e-01 5.00000000000000e-01 0.00000000000000e+00
-5.00000000000000e-01	5.00000000000000e-01	0.00000000000000e+00
-5.00000000000000e-01	5.00000000000000e-01	0.00000000000000e+00
ITEM: ATOMS id type x y z DisplacementX DisplacementY DisplacementZ
229 1 -2.000e-01 0.000e+00 0.000e+00 5.470e-04 1.196e-03 -4.492e-04
230 1 0.000e+00 2.000e-01 0.000e+00 6.384e-04 -2.035e-03 1.301e-03
231 1 -1.000e-01 1.000e-01 0.000e+00 1.428e-04 -9.466e-04 1.872e-03
232 1 1.000e-01 0.000e+00 0.000e+00 1.011e-03 2.733e-03 3.572e-04
233 1 1.000e-01 1.000e-01 0.000e+00 -1.993e-04 4.090e-04 7.606e-04
234 1 -1.000e-01 -1.000e-01 0.000e+00 7.222e-04 3.576e-04 -7.924e-04
235 1 2.000e-01 0.000e+00 0.000e+00 9.723e-05 -2.379e-04 2.113e-04
236 1 0.000e+00 -2.000e-01 0.000e+00 -2.554e-04 8.198e-04 -2.145e-03
237 1 0.000e+00 1.000e-01 0.000e+00 3.683e-04 -9.939e-05 -4.029e-04
238 1 0.000e+00 0.000e+00 0.000e+00 -1.003e-01 8.379e-05 -1.558e-03
239 1 1.000e-01 -1.000e-01 0.000e+00 -1.865e-03 2.756e-03 2.241e-03
240 1 0.000e+00 -1.000e-01 0.000e+00 3.159e-04 7.898e-06 -1.335e-03
