ITEM: TIMESTEP
0
ITEM: NUMBER OF ATOMS
18
ITEM: BOX BOUNDS xy xz yz pp pp pp
                     -5.00000000000000e-01 5.00000000000000e-01 0.00000000000000e+00
-5.00000000000000e-01	5.00000000000000e-01	0.00000000000000e+00
-5.00000000000000e-01	5.00000000000000e-01	0.00000000000000e+00
ITEM: ATOMS id type x y z DisplacementX DisplacementY DisplacementZ
1 1 4.000e-01 2.000e-01 6.000e-01 4.876e-03 -8.021e-04 -1.247e-03
2 1 4.000e-01 4.000e-01 6.000e-01 4.594e-03 -8.303e-04 -1.334e-03
3 1 4.000e-01 2.000e-01 4.000e-01 -4.554e-02 -9.903e-04 -1.306e-03
4 1 2.000e-01 2.000e-01 6.000e-01 4.653e-03 -9.660e-04 -6.790e-02
5 1 2.000e-01 0.000e+00 4.000e-01 4.488e-03 4.935e-02 -1.339e-03
6 1 6.000e-01 0.000e+00 4.000e-01 3.739e-03 -1.773e-03 -4.543e-03
7 1 6.000e-01 2.000e-01 4.000e-01 7.922e-03 -7.251e-03 -1.982e-03
8 1 4.000e-01 2.000e-01 2.000e-01 4.621e-03 -8.008e-04 -1.260e-03
9 1 6.000e-01 2.000e-01 2.000e-01 5.133e-03 -1.436e-03 -2.085e-03
10 1 4.000e-01 0.000e+00 4.000e-01 4.736e-03 -9.999e-04 -1.273e-03
11 1 4.000e-01 0.000e+00 6.000e-01 4.891e-03 -8.253e-04 -1.301e-03
12 1 2.000e-01 2.000e-01 2.000e-01 4.606e-03 -7.833e-04 6.539e-02
13 1 2.000e-01 4.000e-01 4.000e-01 4.378e-03 -9.840e-04 -1.254e-03
14 1 6.000e-01 2.000e-01 6.000e-01 5.819e-03 -2.021e-03 -2.594e-03
15 1 4.000e-01 4.000e-01 2.000e-01 4.493e-03 -1.028e-03 -1.296e-03
16 1 4.000e-01 0.000e+00 2.000e-01 4.455e-03 -9.975e-04 -1.283e-03
17 1 4.000e-01 4.000e-01 4.000e-01 4.746e-03 -1.070e-03 -1.294e-03
18 1 6.000e-01 4.000e-01 4.000e-01 7.184e-03 -1.409e-03 -5.962e-04
ITEM: TIMESTEP
0
ITEM: NUMBER OF ATOMS
18
ITEM: BOX BOUNDS xy xz yz pp pp pp
                     -5.00000000000000e-01 5.00000000000000e-01 0.00000000000000e+00
-5.00000000000000e-01	5.00000000000000e-01	0.00000000000000e+00
-5.00000000000000e-01	5.00000000000000e-01	0.00000000000000e+00
ITEM: ATOMS id type x y z DisplacementX DisplacementY DisplacementZ
19 1 4.000e-01 2.000e-01 6.000e-01 4.876e-03 -8.021e-04 -1.247e-03
20 1 4.000e-01 4.000e-01 6.000e-01 4.594e-03 -8.303e-04 -1.334e-03
21 1 4.000e-01 2.000e-01 4.000e-01 -4.554e-02 -9.903e-04 -1.306e-03
22 1 2.000e-01 2.000e-01 6.000e-01 4.653e-03 -9.660e-04 -6.790e-02
23 1 2.000e-01 0.000e+00 4.000e-01 4.488e-03 4.935e-02 -1.339e-03
24 1 4.000e-01 2.000e-01 8.000e-01 4.614e-03 2.465e-05 -1.140e-03
25 1 0.000e+00 2.000e-01 8.000e-01 3.984e-03 5.912e-04 -6.540e-04
26 1 2.000e-01 0.000e+00 6.000e-01 5.049e-03 -6.355e-04 -1.293e-03
27 1 0.000e+00 0.000e+00 6.000e-01 5.017e-03 -8.369e-04 -1.394e-03
28 1 2.000e-01 2.000e-01 8.000e-01 6.379e-03 -4.549e-03 -7.679e-05
29 1 4.000e-01 0.000e+00 6.000e-01 4.891e-03 -8.253e-04 -1.301e-03
30 1 2.000e-01 4.000e-01 6.000e-01 5.000e-03 -5.743e-04 -1.277e-03
31 1 2.000e-01 4.000e-01 4.000e-01 4.378e-03 -9.840e-04 -1.254e-03
32 1 2.000e-01 4.000e-01 8.000e-01 5.582e-03 8.363e-04 -3.643e-04
33 1 0.000e+00 4.000e-01 6.000e-01 4.385e-03 -6.165e-04 -1.240e-03
34 1 2.000e-01 0.000e+00 8.000e-01 2.230e-03 1.556e-03 -9.078e-04
35 1 0.000e+00 2.000e-01 4.000e-01 4.628e-03 -9.914e-04 -1.217e-03
36 1 0.000e+00 2.000e-01 6.000e-01 4.393e-03 -8.777e-04 -1.188e-03
ITEM: TIMESTEP
0
ITEM: NUMBER OF ATOMS
18
ITEM: BOX BOUNDS xy xz yz pp pp pp
                     -5.00000000000000e-01 5.00000000000000e-01 0.00000000000000e+00
-5.00000000000000e-01	5.00000000000000e-01	0.00000000000000e+00
-5.00000000000000e-01	5.00000000000000e-01	0.00000000000000e+00
ITEM: ATOMS id type x y z DisplacementX DisplacementY DisplacementZ
37 1 2.000e-01 8.000e-01 6.000e-01 2.259e-03 2.093e-03 -1.642e-03
38 1 4.000e-01 2.000e-01 4.000e-01 -4.554e-02 -9.903e-04 -1.306e-03
39 1 0.000e+00 0.000e+00 2.000e-01 4.780e-03 -4.575e-04 -1.419e-03
40 1 2.000e-01 2.000e-01 6.000e-01 4.653e-03 -9.660e-04 -6.790e-02
41 1 2.000e-01 0.000e+00 4.000e-01 4.488e-03 4.935e-02 -1.339e-03
42 1 4.000e-01 8.000e-01 4.000e-01 2.630e-03 7.852e-04 -3.836e-03
43 1 2.000e-01 0.000e+00 6.000e-01 5.049e-03 -6.355e-04 -1.293e-03
44 1 0.000e+00 0.000e+00 6.000e-01 5.017e-03 -8.369e-04 -1.394e-03
45 1 4.000e-01 0.000e+00 4.000e-01 4.736e-03 -9.999e-04 -1.273e-03
46 1 4.000e-01 0.000e+00 6.000e-01 4.891e-03 -8.253e-04 -1.301e-03
47 1 2.000e-01 2.000e-01 2.000e-01 4.606e-03 -7.833e-04 6.539e-02
48 1 0.000e+00 8.000e-01 4.000e-01 6.059e-03 1.124e-03 9.027e-05
49 1 2.000e-01 8.000e-01 4.000e-01 6.439e-03 -3.862e-03 -1.056e-03
50 1 2.000e-01 0.000e+00 2.000e-01 4.746e-03 -8.140e-04 -1.231e-03
51 1 4.000e-01 0.000e+00 2.000e-01 4.455e-03 -9.975e-04 -1.283e-03
52 1 0.000e+00 2.000e-01 4.000e-01 4.628e-03 -9.914e-04 -1.217e-03
53 1 0.000e+00 0.000e+00 4.000e-01 5.189e-03 -6.620e-04 -1.371e-03
54 1 2.000e-01 8.000e-01 2.000e-01 5.671e-03 1.311e-03 -1.122e-03
ITEM: TIMESTEP
0
ITEM: NUMBER OF ATOMS
18
ITEM: BOX BOUNDS xy xz yz pp pp pp
                     -5.00000000000000e-01 5.00000000000000e-01 0.00000000000000e+00
-5.00000000000000e-01	5.00000000000000e-01	0.00000000000000e+00
-5.00000000000000e-01	5.00000000000000e-01	0.00000000000000e+00
ITEM: ATOMS id type x y z DisplacementX DisplacementY DisplacementZ
55 1 2.000e-01 4.000e-01 2.000e-01 4.920e-03 -7.842e-04 -1.311e-03
56 1 4.000e-01 2.000e-01 4.000e-01 -4.554e-02 -9.903e-04 -1.306e-03
57 1 0.000e+00 0.000e+00 2.000e-01 4.780e-03 -4.575e-04 -1.419e-03
58 1 2.000e-01 0.000e+00 4.000e-01 4.488e-03 4.935e-02 -1.339e-03
59 1 0.000e+00 2.000e-01 2.000e-01 4.819e-03 -8.567e-04 -1.288e-03
60 1 4.000e-01 2.000e-01 2.000e-01 4.621e-03 -8.008e-04 -1.260e-03
61 1 2.000e-01 2.000e-01 2.000e-01 4.606e-03 -7.833e-04 6.539e-02
62 1 2.000e-01 2.000e-01 0.000e+00 6.379e-03 -4.549e-03 -7.679e-05
63 1 2.000e-01 4.000e-01 4.000e-01 4.378e-03 -9.840e-04 -1.254e-03
64 1 2.000e-01 4.000e-01 0.000e+00 2.230e-03 1.556e-03 -9.078e-04
65 1 4.000e-01 2.000e-01 0.000e+00 3.984e-03 5.912e-04 -6.540e-04
66 1 0.000e+00 4.000e-01 2.000e-01 4.678e-03 -8.415e-04 -1.166e-03
67 1 2.000e-01 0.000e+00 0.000e+00 5.582e-03 8.363e-04 -3.643e-04
68 1 0.000e+00 2.000e-01 0.000e+00 4.614e-03 2.465e-05 -1.140e-03
69 1 2.000e-01 0.000e+00 2.000e-01 4.746e-03 -8.140e-04 -1.231e-03
70 1 4.000e-01 4.000e-01 2.000e-01 4.493e-03 -1.028e-03 -1.296e-03
71 1 4.000e-01 0.000e+00 2.000e-01 4.455e-03 -9.975e-04 -1.283e-03
72 1 0.000e+00 2.000e-01 4.000e-01 4.628e-03 -9.914e-04 -1.217e-03
