ITEM: TIMESTEP
0
ITEM: NUMBER OF ATOMS
12
ITEM: BOX BOUNDS xy xz yz pp pp pp
                     -5.00000000000000e-01 5.00000000000000e-01 0.00000000000000e+00
-5.00000000000000e-01	5.00000000000000e-01	0.00000000000000e+00
-5.00000000000000e-01	5.00000000000000e-01	0.00000000000000e+00
ITEM: ATOMS id type x y z DisplacementX DisplacementY DisplacementZ
1 1 -1.000e-01 0.000e+00 0.000e+00 -1.803e-03 -8.250e-04 -9.670e-04
2 1 -2.000e-01 0.000e+00 0.000e+00 -8.896e-05 9.703e-04 -1.781e-04
3 1 -1.000e-01 1.000e-01 0.000e+00 -4.433e-04 4.737e-05 -7.751e-04
4 1 0.000e+00 0.000e+00 0.000e+00 1.608e-03 -1.018e-01 1.236e-03
5 1 1.000e-01 -1.000e-01 0.000e+00 8.844e-04 -3.502e-04 3.317e-04
6 1 -1.000e-01 -1.000e-01 0.000e+00 -7.218e-04 5.013e-04 8.751e-05
7 1 0.000e+00 2.000e-01 0.000e+00 1.022e-03 -1.411e-03 4.394e-04
8 1 0.000e+00 1.000e-01 0.000e+00 9.336e-04 -1.053e-04 -9.999e-04
9 1 0.000e+00 -2.000e-01 0.000e+00 -1.108e-03 -1.532e-03 1.144e-03
10 1 1.000e-01 1.000e-01 0.000e+00 -1.504e-04 -8.109e-05 8.325e-04
11 1 2.000e-01 0.000e+00 0.000e+00 -6.433e-04 2.118e-03 5.251e-04
12 1 1.000e-01 0.000e+00 0.000e+00 1.509e-03 1.426e-03 -1.059e-03
ITEM: TIMESTEP
0
ITEM: NUMBER OF ATOMS
12
ITEM: BOX BOUNDS xy xz yz pp pp pp
                     -5.00000000000000e-01 5.00000000000000e-01 0.00000000000000e+00
-5.00000000000000e-01	5.00000000000000e-01	0.00000000000000e+00
-5.00000000000000e-01	5.00000000000000e-01	0.00000000000000e+00
ITEM: ATOMS id type x y z DisplacementX DisplacementY DisplacementZ
13 1 1.000e-01 -1.000e-01 0.000e+00 -3.397e-04 9.367e-04 3.943e-04
14 1 1.000e-01 0.000e+00 0.000e+00 3.117e-04 -1.277e-03 -2.792e-04
15 1 0.000e+00 -2.000e-01 0.000e+00 -1.148e-04 -8.690e-05 2.631e-04
16 1 -1.000e-01 1.000e-01 0.000e+00 -1.533e-03 1.075e-03 4.422e-04
17 1 0.000e+00 0.000e+00 0.000e+00 -1.002e-01 5.253e-04 -2.034e-06
18 1 -2.000e-01 0.000e+00 0.000e+00 -1.137e-04 -2.848e-03 -8.126e-04
19 1 0.000e+00 -1.000e-01 0.000e+00 -5.224e-04 -3.928e-04 2.541e-03
20 1 -1.000e-01 -1.000e-01 0.000e+00 -2.439e-05 -1.415e-03 1.659e-03
21 1 0.000e+00 2.000e-01 0.000e+00 6.250e-04 3.845e-04 9.184e-04
22 1 2.000e-01 0.000e+00 0.000e+00 7.212e-04 7.340e-04 -1.431e-03
23 1 1.000e-01 1.000e-01 0.000e+00 -7.558e-05 1.080e-03 5.576e-04
24 1 0.000e+00 1.000e-01 0.000e+00 -7.752e-04 -1.446e-03 2.276e-03
ITEM: TIMESTEP
0
ITEM: NUMBER OF ATOMS
12
ITEM: BOX BOUNDS xy xz yz pp pp pp
                     -5.00000000000000e-01 5.00000000000000e-01 0.00000000000000e+00
-5.00000000000000e-01	5.00000000000000e-01	0.00000000000000e+00
-5.00000000000000e-01	5.00000000000000e-01	0.00000000000000e+00
ITEM: ATOMS id type x y z DisplacementX DisplacementY DisplacementZ
25 1 0.000e+00 1.000e-01 0.000e+00 -6.289e-04 -9.485e-04 -1.131e-03
26 1 -1.000e-01 1.000e-01 0.000e+00 2.224e-04 6.714e-04 -8.118e-04
27 1 0.000e+00 2.000e-01 0.000e+00 -6.125e-04 -1.525e-03 3.367e-04
28 1 1.000e-01 1.000e-01 0.000e+00 4.883e-04 -3.995e-04 1.671e-03
29 1 0.000e+00 -1.000e-01 0.000e+00 -2.517e-03 -2.445e-03 1.441e-03
30 1 -1.000e-01 0.000e+00 0.000e+00 -4.252e-04 -6.996e-04 1.456e-04
31 1 -1.000e-01 -1.000e-01 0.000e+00 6.962e-04 6.058e-04 -6.686e-04
32 1 2.000e-01 0.000e+00 0.000e+00 -4.356e-04 1.316e-04 2.756e-04
33 1 0.000e+00 0.000e+00 0.000e+00 1.007e-01 -1.042e-03 -3.088e-04
34 1 -2.000e-01 0.000e+00 0.000e+00 -2.930e-03 8.871e-04 -4.522e-04
35 1 1.000e-01 -1.000e-01 0.000e+00 9.124e-04 1.677e-04 -1.184e-03
36 1 0.000e+00 -2.000e-01 0.000e+00 4.721e-04 -2.997e-05 9.403e-04
ITEM: TIMESTEP
0
ITEM: NUMBER OF ATOMS
12
ITEM: BOX BOUNDS xy xz yz pp pp pp
                     -5.00000000000000e-01 5.00000000000000e-01 0.00000000000000e+00
-5.00000000000000e-01	5.00000000000000e-01	0.00000000000000e+00
-5.00000000000000e-01	5.00000000000000e-01	0.00000000000000e+00
ITEM: ATOMS id type x y z DisplacementX DisplacementY DisplacementZ
37 1 2.000e-01 0.000e+00 0.000e+00 1.614e-03 3.593e-05 4.584e-04
38 1 0.000e+00 -2.000e-01 0.000e+00 -7.477e-04 -1.189e-03 1.707e-03
39 1 1.000e-01 -1.000e-01 0.000e+00 1.189e-03 -8.014e-04 -2.281e-04
40 1 0.000e+00 2.000e-01 0.000e+00 1.935e-04 -3.476e-04 1.546e-05
41 1 -1.000e-01 0.000e+00 0.000e+00 1.472e-03 -1.396e-03 4.754e-04
42 1 0.000e+00 -1.000e-01 0.000e+00 -2.015e-03 5.985e-04 -9.951e-04
43 1 -2.000e-01 0.000e+00 0.000e+00 3.680e-04 6.048e-04 -4.281e-04
44 1 1.000e-01 1.000e-01 0.000e+00 1.289e-03 1.105e-03 1.562e-04
45 1 -1.000e-01 1.000e-01 0.000e+00 1.200e-03 2.927e-04 -1.083e-03
46 1 1.000e-01 0.000e+00 0.000e+00 6.765e-04 1.406e-03 -4.696e-04
47 1 0.000e+00 0.000e+00 0.000e+00 -1.333e-03 1.003e-01 2.770e-04
48 1 -1.000e-01 -1.000e-01 0.000e+00 1.344e-03 4.872e-04 -2.313e-04
ITEM: TIMESTEP
0
ITEM: NUMBER OF ATOMS
12
ITEM: BOX BOUNDS xy xz yz pp pp pp
                     -5.00000000000000e-01 5.00000000000000e-01 0.00000000000000e+00
-5.00000000000000e-01	5.00000000000000e-01	0.00000000000000e+00
-5.00000000000000e-01	5.00000000000000e-01	0.00000000000000e+00
ITEM: ATOMS id type x y z DisplacementX DisplacementY DisplacementZ
49 1 2.000e-01 0.000e+00 0.000e+00 2.414e-04 1.464e-03 -1.042e-03
50 1 0.000e+00 -2.000e-01 0.000e+00 9.945e-04 1.634e-03 1.065e-03
51 1 -2.000e-01 0.000e+00 0.000e+00 -2.729e-04 -8.655e-04 4.155e-04
52 1 -1.000e-01 -1.000e-01 0.000e+00 -9.872e-04 6.092e-04 1.510e-03
53 1 1.000e-01 0.000e+00 0.000e+00 -1.171e-03 -3.370e-04 1.452e-03
54 1 0.000e+00 -1.000e-01 0.000e+00 1.008e-03 3.694e-04 2.532e-04
55 1 0.000e+00 0.000e+00 0.000e+00 9.883e-04 9.925e-02 -2.612e-03
56 1 1.000e-01 -1.000e-01 0.000e+00 -2.323e-04 -3.989e-04 9.420e-04
57 1 -1.000e-01 0.000e+00 0.000e+00 4.197e-04 9.611e-04 7.550e-04
58 1 1.000e-01 1.000e-01 0.000e+00 2.375e-04 2.583e-04 -6.763e-04
59 1 -1.000e-01 1.000e-01 0.000e+00 2.200e-04 -1.657e-04 -7.909e-04
60 1 0.000e+00 2.000e-01 0.000e+00 -2.099e-04 -1.328e-03 4.575e-04
ITEM: TIMESTEP
0
ITEM: NUMBER OF ATOMS
12
ITEM: BOX BOUNDS xy xz yz pp pp pp
                     -5.00000000000000e-01 5.00000000000000e-01 0.00000000000000e+00
-5.00000000000000e-01	5.00000000000000e-01	0.00000000000000e+00
-5.00000000000000e-01	5.00000000000000e-01	0.00000000000000e+00
ITEM: ATOMS id type x y z DisplacementX DisplacementY DisplacementZ
61 1 1.000e-01 -1.000e-01 0.000e+00 -1.079e-03 1.442e-03 2.349e-03
62 1 1.000e-01 0.000e+00 0.000e+00 1.695e-04 -2.046e-04 -6.998e-04
63 1 0.000e+00 1.000e-01 0.000e+00 -1.113e-03 -1.948e-04 5.618e-04
64 1 0.000e+00 -1.000e-01 0.000e+00 -4.399e-04 -1.007e-03 -4.804e-04
65 1 2.000e-01 0.000e+00 0.000e+00 -5.149e-04 -6.916e-04 -1.532e-03
66 1 -1.000e-01 -1.000e-01 0.000e+00 -4.726e-04 -1.751e-03 -6.726e-04
67 1 0.000e+00 -2.000e-01 0.000e+00 1.250e-03 5.858e-04 -6.476e-04
68 1 1.000e-01 1.000e-01 0.000e+00 1.156e-03 -1.543e-03 7.859e-04
69 1 0.000e+00 0.000e+00 0.000e+00 -9.867e-02 -1.512e-04 1.273e-03
70 1 -2.000e-01 0.000e+00 0.000e+00 5.701e-04 -9.689e-04 6.113e-04
71 1 0.000e+00 2.000e-01 0.000e+00 3.459e-04 -8.244e-04 5.956e-04
72 1 -1.000e-01 1.000e-01 0.000e+00 -3.185e-04 -1.706e-03 -1.146e-03
ITEM: TIMESTEP
0
ITEM: NUMBER OF ATOMS
12
ITEM: BOX BOUNDS xy xz yz pp pp pp
                     -5.00000000000000e-01 5.00000000000000e-01 0.00000000000000e+00
-5.00000000000000e-01	5.00000000000000e-01	0.00000000000000e+00
-5.00000000000000e-01	5.00000000000000e-01	0.00000000000000e+00
ITEM: ATOMS id type x y z DisplacementX DisplacementY DisplacementZ
73 1 -2.000e-01 0.000e+00 0.000e+00 5.915e-04 6.742e-04 1.371e-04
74 1 -1.000e-01 -1.000e-01 0.000e+00 5.079e-04 -7.974e-04 -5.045e-05
75 1 0.000e+00 -2.000e-01 0.000e+00 7.279e-05 -6.069e-04 1.879e-03
76 1 -1.000e-01 0.000e+00 0.000e+00 1.017e-03 1.297e-03 -1.598e-03
77 1 1.000e-01 -1.000e-01 0.000e+00 -3.529e-04 2.009e-04 2.131e-04
78 1 -1.000e-01 1.000e-01 0.000e+00 7.060e-04 4.550e-04 -8.664e-04
79 1 0.000e+00 -1.000e-01 0.000e+00 -2.720e-03 -2.340e-03 -6.138e-04
80 1 2.000e-01 0.000e+00 0.000e+00 1.284e-03 -2.876e-04 4.414e-04
81 1 0.000e+00 1.000e-01 0.000e+00 5.056e-04 -7.997e-04 1.272e-03
82 1 0.000e+00 2.000e-01 0.000e+00 -4.700e-05 -3.772e-04 7.425e-04
83 1 0.000e+00 0.000e+00 0.000e+00 1.009e-01 -4.065e-04 -3.293e-04
84 1 1.000e-01 1.000e-01 0.000e+00 1.217e-03 5.725e-04 -1.300e-03
ITEM: TIMESTEP
0
ITEM: NUMBER OF ATOMS
12
ITEM: BOX BOUNDS xy xz yz pp pp pp
                     -5.00000000000000e-01 5.00000000000000e-01 0.00000000000000e+00
-5.00000000000000e-01	5.00000000000000e-01	0.00000000000000e+00
-5.00000000000000e-01	5.00000000000000e-01	0.00000000000000e+00
ITEM: ATOMS id type x y z DisplacementX DisplacementY DisplacementZ
85 1 0.000e+00 2.000e-01 0.000e+00 -1.502e-04 3.787e-04 -2.972e-04
86 1 1.000e-01 0.000e+00 0.000e+00 -6.799e-04 -2.037e-04 -1.538e-03
87 1 0.000e+00 1.000e-01 0.000e+00 -1.670e-03 1.101e-04 3.315e-04
88 1 0.000e+00 -2.000e-01 0.000e+00 2.421e-03 -1.026e-03 3.471e-04
89 1 -2.000e-01 0.000e+00 0.000e+00 -6.334e-04 -1.407e-03 1.523e-03
90 1 2.000e-01 0.000e+00 0.000e+00 9.517e-04 -1.381e-03 -4.457e-04
91 1 1.000e-01 -1.000e-01 0.000e+00 1.049e-03 -1.026e-03 -2.064e-03
92 1 -1.000e-01 0.000e+00 0.000e+00 -8.248e-04 1.208e-03 1.687e-03
93 1 -1.000e-01 1.000e-01 0.000e+00 -3.233e-04 -3.815e-06 -4.692e-05
94 1 -1.000e-01 -1.000e-01 0.000e+00 5.898e-04 2.317e-04 1.990e-04
95 1 1.000e-01 1.000e-01 0.000e+00 -1.504e-03 1.008e-03 -4.405e-04
96 1 0.000e+00 0.000e+00 0.000e+00 9.438e-04 -1.001e-01 -1.482e-03
ITEM: TIMESTEP
0
ITEM: NUMBER OF ATOMS
12
ITEM: BOX BOUNDS xy xz yz pp pp pp
                     -5.00000000000000e-01 5.00000000000000e-01 0.00000000000000e+00
-5.00000000000000e-01	5.00000000000000e-01	0.00000000000000e+00
-5.00000000000000e-01	5.00000000000000e-01	0.00000000000000e+00
ITEM: ATOMS id type x y z DisplacementX DisplacementY DisplacementZ
97 1 0.000e+00 -2.000e-01 0.000e+00 -4.691e-04 -1.011e-03 -1.064e-03
98 1 0.000e+00 0.000e+00 0.000e+00 9.962e-02 1.033e-03 1.229e-03
99 1 2.000e-01 0.000e+00 0.000e+00 -5.022e-04 1.641e-03 1.288e-04
100 1 0.000e+00 -1.000e-01 0.000e+00 -7.284e-04 -2.971e-04 8.338e-04
101 1 -1.000e-01 0.000e+00 0.000e+00 -4.552e-05 -1.590e-03 1.020e-03
102 1 -1.000e-01 1.000e-01 0.000e+00 9.007e-04 -1.078e-03 -4.098e-04
103 1 1.000e-01 1.000e-01 0.000e+00 -2.916e-04 2.354e-04 -8.277e-04
104 1 -1.000e-01 -1.000e-01 0.000e+00 1.507e-03 -1.952e-05 -4.844e-04
105 1 1.000e-01 -1.000e-01 0.000e+00 6.419e-04 9.377e-04 -8.650e-04
106 1 0.000e+00 1.000e-01 0.000e+00 -9.458e-04 6.418e-04 8.927e-04
107 1 -2.000e-01 0.000e+00 0.000e+00 -5.804e-05 5.395e-04 -5.588e-04
108 1 0.000e+00 2.000e-01 0.000e+00 -1.300e-03 1.254e-03 1.456e-03
ITEM: TIMESTEP
0
ITEM: NUMBER OF ATOMS
12
ITEM: BOX BOUNDS xy xz yz pp pp pp
                     -5.00000000000000e-01 5.00000000000000e-01 0.00000000000000e+00
-5.00000000000000e-01	5.00000000000000e-01	0.00000000000000e+00
-5.00000000000000e-01	5.00000000000000e-01	0.00000000000000e+00
ITEM: ATOMS id type x y z DisplacementX DisplacementY DisplacementZ
109 1 1.000e-01 1.000e-01 0.000e+00 2.738e-04 6.100e-04 -1.373e-03
110 1 0.000e+00 -2.000e-01 0.000e+00 1.022e-03 -9.123e-04 4.989e-04
111 1 -2.000e-01 0.000e+00 0.000e+00 -1.913e-03 -3.930e-04 7.307e-04
112 1 0.000e+00 0.000e+00 0.000e+00 -1.011e-01 -7.088e-04 -6.097e-04
113 1 0.000e+00 1.000e-01 0.000e+00 2.703e-05 -3.217e-04 4.327e-04
114 1 1.000e-01 0.000e+00 0.000e+00 1.575e-03 -3.844e-04 6.609e-05
115 1 -1.000e-01 1.000e-01 0.000e+00 -2.207e-03 5.065e-05 -9.027e-04
116 1 1.000e-01 -1.000e-01 0.000e+00 -1.236e-03 -5.645e-04 4.233e-04
117 1 -1.000e-01 -1.000e-01 0.000e+00 -4.588e-05 1.451e-03 -9.533e-04
118 1 2.000e-01 0.000e+00 0.000e+00 -1.047e-03 -2.278e-04 3.515e-04
119 1 0.000e+00 2.000e-01 0.000e+00 9.047e-04 1.138e-03 -9.717e-04
120 1 0.000e+00 -1.000e-01 0.000e+00 2.229e-04 -1.450e-05 -4.216e-05
ITEM: TIMESTEP
0
ITEM: NUMBER OF ATOMS
12
ITEM: BOX BOUNDS xy xz yz pp pp pp
                     -5.00000000000000e-01 5.00000000000000e-01 0.00000000000000e+00
-5.00000000000000e-01	5.00000000000000e-01	0.00000000000000e+00
-5.00000000000000e-01	5.00000000000000e-01	0.00000000000000e+00
ITEM: ATOMS id type x y z DisplacementX DisplacementY DisplacementZ
121 1 2.000e-01 0.000e+00 0.000e+00 -1.732e-03 3.639e-04 2.444e-03
122 1 -1.000e-01 -1.000e-01 0.000e+00 -5.051e-04 4.010e-04 -4.435e-04
123 1 1.000e-01 -1.000e-01 0.000e+00 7.503e-04 1.821e-04 4.164e-04
124 1 0.000e+00 1.000e-01 0.000e+00 1.773e-03 1.019e-03 4.476e-04
125 1 1.000e-01 0.000e+00 0.000e+00 1.444e-04 3.835e-04 -2.405e-04
126 1 -2.000e-01 0.000e+00 0.000e+00 4.576e-04 -1.942e-03 -9.976e-04
127 1 0.000e+00 0.000e+00 0.000e+00 3.854e-04 -9.972e-02 1.500e-03
128 1 0.000e+00 -2.000e-01 0.000e+00 8.953e-04 -4.817e-04 -1.137e-03
129 1 -1.000e-01 0.000e+00 0.000e+00 -7.128e-04 -8.091e-04 3.477e-03
130 1 0.000e+00 2.000e-01 0.000e+00 1.466e-03 1.946e-03 -4.637e-04
131 1 1.000e-01 1.000e-01 0.000e+00 -9.684e-04 -1.909e-03 -5.528e-04
132 1 -1.000e-01 1.000e-01 0.000e+00 -2.639e-04 -2.869e-04 1.039e-03
ITEM: TIMESTEP
0
ITEM: NUMBER OF ATOMS
12
ITEM: BOX BOUNDS xy xz yz pp pp pp
                     -5.00000000000000e-01 5.00000000000000e-01 0.00000000000000e+00
-5.00000000000000e-01	5.00000000000000e-01	0.00000000000000e+00
-5.00000000000000e-01	5.00000000000000e-01	0.00000000000000e+00
ITEM: ATOMS id type x y z DisplacementX DisplacementY DisplacementZ
133 1 1.000e-01 -1.000e-01 0.000e+00 -5.451e-05 1.621e-03 -9.473e-04
134 1 -1.000e-01 -1.000e-01 0.000e+00 -9.172e-04 5.776e-04 5.691e-04
135 1 -1.000e-01 1.000e-01 0.000e+00 -1.998e-05 2.130e-04 -7.318e-04
136 1 1.000e-01 1.000e-01 0.000e+00 1.011e-03 -1.538e-03 5.014e-04
137 1 -1.000e-01 0.000e+00 0.000e+00 -3.155e-04 -2.276e-04 1.398e-03
138 1 0.000e+00 -1.000e-01 0.000e+00 -3.544e-04 9.804e-04 7.277e-04
139 1 0.000e+00 2.000e-01 0.000e+00 -1.045e-04 -1.552e-03 1.112e-04
140 1 -2.000e-01 0.000e+00 0.000e+00 2.016e-03 7.805e-04 -8.250e-04
141 1 2.000e-01 0.000e+00 0.000e+00 1.022e-03 -7.709e-04 -4.869e-04
142 1 0.000e+00 0.000e+00 0.000e+00 -1.180e-03 1.006e-01 -3.692e-04
143 1 0.000e+00 -2.000e-01 0.000e+00 -3.295e-04 1.307e-03 -2.726e-04
144 1 1.000e-01 0.000e+00 0.000e+00 -4.489e-04 8.982e-04 -2.428e-04
ITEM: TIMESTEP
0
ITEM: NUMBER OF ATOMS
12
ITEM: BOX BOUNDS xy xz yz pp pp pp
                     -5.00000000000000e-01 5.00000000000000e-01 0.00000000000000e+00
-5.00000000000000e-01	5.00000000000000e-01	0.00000000000000e+00
-5.00000000000000e-01	5.00000000000000e-01	0.00000000000000e+00
ITEM: ATOMS id type x y z DisplacementX DisplacementY DisplacementZ
145 1 2.000e-01 0.000e+00 0.000e+00 6.715e-04 8.168e-04 1.246e-04
146 1 0.000e+00 2.000e-01 0.000e+00 -1.440e-03 5.518e-04 -5.250e-04
147 1 0.000e+00 -1.000e-01 0.000e+00 1.511e-04 5.852e-04 -1.716e-03
148 1 0.000e+00 -2.000e-01 0.000e+00 9.544e-04 -3.235e-04 1.458e-04
149 1 0.000e+00 1.000e-01 0.000e+00 1.193e-03 -6.290e-04 -8.314e-04
150 1 1.000e-01 1.000e-01 0.000e+00 -3.282e-04 -9.943e-04 5.199e-04
151 1 0.000e+00 0.000e+00 0.000e+00 -9.854e-02 -3.335e-03 -4.606e-05
152 1 -2.000e-01 0.000e+00 0.000e+00 -5.544e-04 -2.155e-03 -9.961e-04
153 1 1.000e-01 -1.000e-01 0.000e+00 7.559e-05 -2.950e-04 -2.871e-04
154 1 1.000e-01 0.000e+00 0.000e+00 5.451e-05 -5.649e-04 -1.100e-04
155 1 -1.000e-01 1.000e-01 0.000e+00 4.728e-04 -1.682e-03 4.582e-04
156 1 -1.000e-01 -1.000e-01 0.000e+00 6.512e-04 6.245e-04 1.197e-04
ITEM: TIMESTEP
0
ITEM: NUMBER OF ATOMS
12
ITEM: BOX BOUNDS xy xz yz pp pp pp
                     -5.00000000000000e-01 5.00000000000000e-01 0.00000000000000e+00
-5.00000000000000e-01	5.00000000000000e-01	0.00000000000000e+00
-5.00000000000000e-01	5.00000000000000e-01	0.00000000000000e+00
ITEM: ATOMS id type x y z DisplacementX DisplacementY DisplacementZ
157 1 -1.000e-01 0.000e+00 0.000e+00 1.678e-03 2.689e-04 1.735e-04
158 1 0.000e+00 2.000e-01 0.000e+00 4.438e-04 3.664e-04 -2.761e-04
159 1 -1.000e-01 1.000e-01 0.000e+00 -6.398e-04 -1.983e-04 8.720e-04
160 1 -1.000e-01 -1.000e-01 0.000e+00 1.967e-05 -4.908e-04 -2.453e-05
161 1 -2.000e-01 0.000e+00 0.000e+00 -2.609e-04 6.364e-05 -9.999e-04
162 1 2.000e-01 0.000e+00 0.000e+00 -2.775e-04 1.190e-03 -8.194e-04
163 1 0.000e+00 0.000e+00 0.000e+00 9.974e-02 -1.566e-03 -1.067e-03
164 1 1.000e-01 1.000e-01 0.000e+00 6.403e-05 -3.783e-04 2.407e-03
165 1 0.000e+00 -1.000e-01 0.000e+00 1.046e-03 1.410e-03 -4.631e-04
166 1 0.000e+00 1.000e-01 0.000e+00 2.698e-04 8.050e-04 2.032e-04
167 1 0.000e+00 -2.000e-01 0.000e+00 -7.985e-04 3.311e-04 3.078e-03
168 1 1.000e-01 -1.000e-01 0.000e+00 1.556e-03 -9.377e-05 3.922e-04
ITEM: TIMESTEP
0
ITEM: NUMBER OF ATOMS
12
ITEM: BOX BOUNDS xy xz yz pp pp pp
                     -5.00000000000000e-01 5.00000000000000e-01 0.00000000000000e+00
-5.00000000000000e-01	5.00000000000000e-01	0.00000000000000e+00
-5.00000000000000e-01	5.00000000000000e-01	0.00000000000000e+00
ITEM: ATOMS id type x y z DisplacementX DisplacementY DisplacementZ
169 1 1.000e-01 1.000e-01 0.000e+00 -1.137e-03 -6.874e-04 2.078e-03
170 1 1.000e-01 0.000e+00 0.000e+00 2.792e-04 -5.984e-04 -8.456e-06
171 1 -1.000e-01 1.000e-01 0.000e+00 -1.024e-03 -2.027e-03 1.359e-03
172 1 -2.000e-01 0.000e+00 0.000e+00 -2.114e-04 6.594e-04 5.671e-04
173 1 2.000e-01 0.000e+00 0.000e+00 -2.112e-03 -1.149e-03 -2.164e-03
174 1 0.000e+00 2.000e-01 0.000e+00 -4.818e-04 -3.609e-04 -2.443e-04
175 1 1.000e-01 -1.000e-01 0.000e+00 3.334e-04 -7.944e-05 -1.501e-03
176 1 -1.000e-01 -1.000e-01 0.000e+00 -1.164e-03 -5.126e-06 2.439e-03
177 1 0.000e+00 1.000e-01 0.000e+00 2.652e-04 1.481e-03 -4.485e-04
178 1 0.000e+00 0.000e+00 0.000e+00 4.740e-05 -9.902e-02 -1.486e-03
179 1 -1.000e-01 0.000e+00 0.000e+00 1.203e-03 -2.406e-03 4.457e-04
180 1 0.000e+00 -2.000e-01 0.000e+00 -1.521e-03 -1.562e-03 4.383e-05
ITEM: TIMESTEP
0
ITEM: NUMBER OF ATOMS
12
ITEM: BOX BOUNDS xy xz yz pp pp pp
                     -5.00000000000000e-01 5.00000000000000e-01 0.00000000000000e+00
-5.00000000000000e-01	5.00000000000000e-01	0.00000000000000e+00
-5.00000000000000e-01	5.00000000000000e-01	0.00000000000000e+00
ITEM: ATOMS id type x y z DisplacementX DisplacementY DisplacementZ
181 1 1.000e-01 0.000e+00 0.000e+00 -7.170e-04 -1.191e-04 -4.501e-04
182 1 1.000e-01 -1.000e-01 0.000e+00 -4.472e-04 -1.994e-04 -8.708e-04
183 1 0.000e+00 -1.000e-01 0.000e+00 2.936e-05 -7.268e-04 3.010e-04
184 1 -2.000e-01 0.000e+00 0.000e+00 1.823e-03 -7.565e-04 7.796e-04
185 1 0.000e+00 -2.000e-01 0.000e+00 9.575e-05 4.383e-04 -3.146e-05
186 1 1.000e-01 1.000e-01 0.000e+00 -1.315e-04 -1.438e-03 -5.642e-04
187 1 -1.000e-01 1.000e-01 0.000e+00 -8.943e-04 6.385e-04 -3.384e-04
188 1 2.000e-01 0.000e+00 0.000e+00 -4.672e-04 -2.479e-03 2.478e-03
189 1 0.000e+00 2.000e-01 0.000e+00 -9.713e-04 6.776e-04 2.006e-03
190 1 -1.000e-01 0.000e+00 0.000e+00 -2.318e-04 -7.970e-04 2.445e-04
191 1 -1.000e-01 -1.000e-01 0.000e+00 -6.900e-04 -1.310e-03 -3.422e-04
192 1 0.000e+00 0.000e+00 0.000e+00 5.934e-04 1.004e-01 3.070e-04
ITEM: TIMESTEP
0
ITEM: NUMBER OF ATOMS
12
ITEM: BOX BOUNDS xy xz yz pp pp pp
                     -5.00000000000000e-01 5.00000000000000e-01 0.00000000000000e+00
-5.00000000000000e-01	5.00000000000000e-01	0.00000000000000e+00
-5.00000000000000e-01	5.00000000000000e-01	0.00000000000000e+00
ITEM: ATOMS id type x y z DisplacementX DisplacementY DisplacementZ
193 1 0.000e+00 0.000e+00 0.000e+00 4.641e-04 1.003e-01 -1.128e-03
194 1 -1.000e-01 -1.000e-01 0.000e+00 -2.016e-04 1.482e-03 -1.560e-04
195 1 1.000e-01 1.000e-01 0.000e+00 1.060e-03 -1.786e-04 -1.629e-04
196 1 -2.000e-01 0.000e+00 0.000e+00 -2.054e-04 7.239e-04 -1.593e-04
197 1 1.000e-01 -1.000e-01 0.000e+00 1.230e-03 -6.688e-05 -2.553e-04
198 1 -1.000e-01 0.000e+00 0.000e+00 2.684e-03 -5.003e-04 1.363e-03
199 1 0.000e+00 -1.000e-01 0.000e+00 -4.397e-05 -8.002e-04 -1.362e-04
200 1 0.000e+00 2.000e-01 0.000e+00 5.959e-04 1.601e-03 1.137e-03
201 1 1.000e-01 0.000e+00 0.000e+00 1.447e-04 2.310e-04 -9.186e-04
202 1 -1.000e-01 1.000e-01 0.000e+00 1.021e-04 5.390e-04 -6.973e-04
203 1 2.000e-01 0.000e+00 0.000e+00 -6.440e-04 -1.185e-03 2.092e-04
204 1 0.000e+00 -2.000e-01 0.000e+00 3.472e-04 6.409e-04 -3.923e-04
ITEM: TIMESTEP
0
ITEM: NUMBER OF ATOMS
12
ITEM: BOX BOUNDS xy xz yz pp pp pp
                     -5.00000000000000e-01 5.00000000000000e-01 0.00000000000000e+00
-5.00000000000000e-01	5.00000000000000e-01	0.00000000000000e+00
-5.00000000000000e-01	5.00000000000000e-01	0.00000000000000e+00
ITEM: ATOMS id type x y z DisplacementX DisplacementY DisplacementZ
205 1 -1.000e-01 -1.000e-01 0.000e+00 -2.634e-04 -4.598e-04 -1.185e-03
206 1 1.000e-01 1.000e-01 0.000e+00 1.667e-05 8.286e-04 1.642e-04
207 1 0.000e+00 0.000e+00 0.000e+00 -1.004e-01 -3.554e-04 1.714e-03
208 1 0.000e+00 -2.000e-01 0.000e+00 3.767e-04 5.582e-04 4.848e-04
209 1 -1.000e-01 1.000e-01 0.000e+00 -2.823e-04 6.511e-04 1.382e-03
210 1 0.000e+00 2.000e-01 0.000e+00 -3.190e-04 -1.307e-03 3.761e-04
211 1 0.000e+00 1.000e-01 0.000e+00 1.565e-04 8.521e-04 2.844e-04
212 1 0.000e+00 -1.000e-01 0.000e+00 -4.488e-04 1.733e-03 1.050e-03
213 1 -2.000e-01 0.000e+00 0.000e+00 4.169e-04 1.626e-04 -3.518e-04
214 1 2.000e-01 0.000e+00 0.000e+00 2.197e-03 1.959e-04 1.189e-03
215 1 1.000e-01 0.000e+00 0.000e+00 -2.794e-04 1.909e-04 -3.998e-04
216 1 1.000e-01 -1.000e-01 0.000e+00 7.665e-04 9.701e-04 -6.297e-05
ITEM: TIMESTEP
0
ITEM: NUMBER OF ATOMS
12
ITEM: BOX BOUNDS xy xz yz pp pp pp
                     -5.00000000000000e-01 5.00000000000000e-01 0.00000000000000e+00
-5.00000000000000e-01	5.00000000000000e-01	0.00000000000000e+00
-5.00000000000000e-01	5.00000000000000e-01	0.00000000000000e+00
ITEM: ATOMS id type x y z DisplacementX DisplacementY DisplacementZ
217 1 0.000e+00 -2.000e-01 0.000e+00 -3.296e-04 -2.401e-03 1.697e-03
218 1 0.000e+00 2.000e-01 0.000e+00 1.418e-04 4.697e-05 -4.619e-05
219 1 2.000e-01 0.000e+00 0.000e+00 9.120e-04 1.262e-03 1.346e-03
220 1 -2.000e-01 0.000e+00 0.000e+00 -1.702e-03 -1.067e-03 5.296e-04
221 1 1.000e-01 -1.000e-01 0.000e+00 1.716e-04 1.540e-03 -9.748e-04
222 1 0.000e+00 0.000e+00 0.000e+00 7.845e-05 -1.008e-01 1.108e-03
223 1 1.000e-01 1.000e-01 0.000e+00 -1.507e-03 1.287e-03 -1.299e-04
224 1 1.000e-01 0.000e+00 0.000e+00 2.808e-03 -2.495e-04 1.046e-03
225 1 -1.000e-01 1.000e-01 0.000e+00 1.194e-03 -9.289e-04 1.907e-03
226 1 -1.000e-01 -1.000e-01 0.000e+00 -1.135e-03 2.117e-03 -1.585e-03
227 1 0.000e+00 1.000e-01 0.000e+00 1.895e-04 -2.214e-04 -1.039e-03
228 1 -1.000e-01 0.000e+00 0.000e+00 -1.028e-03 -1.022e-03 4.131e-04
ITEM: TIMESTEP
0
ITEM: NUMBER OF ATOMS
12
ITEM: BOX BOUNDS xy xz yz pp pp pp
                     -5.00000000000000e-01 5.00000000000000e-01 0.00000000000000e+00
-5.00000000000000e-01	5.00000000000000e-01	0.00000000000000e+00
-5.00000000000000e-01	5.00000000000000e-01	0.00000000000000e+00
ITEM: ATOMS id type x y z DisplacementX DisplacementY DisplacementZ
229 1 1.000e-01 -1.000e-01 0.000e+00 2.444e-04 8.281e-04 5.069e-04
230 1 -2.000e-01 0.000e+00 0.000e+00 1.347e-04 1.003e-03 2.214e-03
231 1 -1.000e-01 1.000e-01 0.000e+00 -2.092e-03 -3.399e-04 6.755e-04
232 1 -1.000e-01 0.000e+00 0.000e+00 -1.368e-03 -6.727e-04 -3.713e-04
233 1 0.000e+00 -2.000e-01 0.000e+00 -9.147e-04 -1.142e-03 6.408e-04
234 1 2.000e-01 0.000e+00 0.000e+00 -7.164e-04 3.338e-04 -1.035e-03
235 1 -1.000e-01 -1.000e-01 0.000e+00 -1.546e-03 9.887e-04 -2.196e-04
236 1 0.000e+00 -1.000e-01 0.000e+00 -5.354e-04 1.050e-03 -5.030e-04
237 1 1.000e-01 1.000e-01 0.000e+00 3.615e-04 -7.908e-04 5.043e-04
238 1 0.000e+00 2.000e-01 0.000e+00 -5.908e-04 -8.864e-04 -3.214e-04
239 1 0.000e+00 0.000e+00 0.000e+00 9.922e-02 3.045e-04 -5.141e-04
240 1 0.000e+00 1.000e-01 0.000e+00 9.292e-04 -9.494e-04 1.176e-03
ITEM: TIMESTEP
0
ITEM: NUMBER OF ATOMS
12
ITEM: BOX BOUNDS xy xz yz pp pp pp
                     -5.00000000000000e-01 5.00000000000000e-01 0.00000000000000e+00
-5.00000000000000e-01	5.00000000000000e-01	0.00000000000000e+00
-5.00000000000000e-01	5.00000000000000e-01	0.00000000000000e+00
ITEM: ATOMS id type x y z DisplacementX DisplacementY DisplacementZ
241 1 0.000e+00 0.000e+00 0.000e+00 1.010e-01 1.435e-03 -1.430e-03
242 1 0.000e+00 -1.000e-01 0.000e+00 1.403e-04 -1.174e-03 -3.458e-04
243 1 -1.000e-01 0.000e+00 0.000e+00 3.527e-04 -1.240e-03 4.236e-04
244 1 0.000e+00 2.000e-01 0.000e+00 8.370e-04 -1.352e-04 -5.691e-04
245 1 2.000e-01 0.000e+00 0.000e+00 -1.268e-03 1.151e-03 6.818e-04
246 1 -1.000e-01 1.000e-01 0.000e+00 1.555e-03 -3.187e-04 7.658e-04
247 1 1.000e-01 -1.000e-01 0.000e+00 -8.602e-04 -5.331e-04 -3.939e-04
248 1 0.000e+00 1.000e-01 0.000e+00 3.947e-04 1.872e-04 -7.286e-04
249 1 -1.000e-01 -1.000e-01 0.000e+00 -5.906e-04 -6.855e-07 -6.042e-04
250 1 1.000e-01 1.000e-01 0.000e+00 -2.004e-04 -1.104e-03 4.970e-06
251 1 -2.000e-01 0.000e+00 0.000e+00 -1.120e-03 9.089e-04 7.597e-04
252 1 0.000e+00 -2.000e-01 0.000e+00 -2.457e-04 -1.529e-03 -4.292e-04
ITEM: TIMESTEP
0
ITEM: NUMBER OF ATOMS
12
ITEM: BOX BOUNDS xy xz yz pp pp pp
                     -5.00000000000000e-01 5.00000000000000e-01 0.00000000000000e+00
-5.00000000000000e-01	5.00000000000000e-01	0.00000000000000e+00
-5.00000000000000e-01	5.00000000000000e-01	0.00000000000000e+00
ITEM: ATOMS id type x y z DisplacementX DisplacementY DisplacementZ
253 1 -2.000e-01 0.000e+00 0.000e+00 8.094e-05 -1.039e-03 2.954e-04
254 1 1.000e-01 1.000e-01 0.000e+00 1.076e-03 5.139e-04 -7.625e-04
255 1 0.000e+00 1.000e-01 0.000e+00 -2.777e-04 -1.076e-03 2.224e-03
256 1 2.000e-01 0.000e+00 0.000e+00 -1.514e-03 1.016e-03 1.305e-03
257 1 1.000e-01 -1.000e-01 0.000e+00 2.578e-04 -2.771e-04 -1.581e-04
258 1 0.000e+00 0.000e+00 0.000e+00 -1.000e-01 3.380e-04 -8.354e-04
259 1 0.000e+00 -2.000e-01 0.000e+00 8.825e-04 -1.771e-04 -4.332e-04
260 1 1.000e-01 0.000e+00 0.000e+00 -1.224e-04 -2.187e-03 4.419e-04
261 1 -1.000e-01 -1.000e-01 0.000e+00 1.011e-03 -3.432e-05 -3.007e-04
262 1 0.000e+00 2.000e-01 0.000e+00 -3.664e-04 1.488e-03 -1.229e-03
263 1 0.000e+00 -1.000e-01 0.000e+00 8.682e-04 2.746e-04 -1.479e-03
264 1 -1.000e-01 1.000e-01 0.000e+00 8.355e-04 1.193e-03 1.229e-03
ITEM: TIMESTEP
0
ITEM: NUMBER OF ATOMS
12
ITEM: BOX BOUNDS xy xz yz pp pp pp
                     -5.00000000000000e-01 5.00000000000000e-01 0.00000000000000e+00
-5.00000000000000e-01	5.00000000000000e-01	0.00000000000000e+00
-5.00000000000000e-01	5.00000000000000e-01	0.00000000000000e+00
ITEM: ATOMS id type x y z DisplacementX DisplacementY DisplacementZ
265 1 -1.000e-01 1.000e-01 0.000e+00 2.513e-04 -1.371e-06 2.124e-03
266 1 -1.000e-01 0.000e+00 0.000e+00 7.768e-04 -2.204e-04 -7.288e-04
267 1 0.000e+00 -2.000e-01 0.000e+00 1.032e-04 9.386e-04 2.506e-04
268 1 2.000e-01 0.000e+00 0.000e+00 8.157e-05 1.488e-03 3.319e-05
269 1 1.000e-01 1.000e-01 0.000e+00 3.704e-04 -2.515e-04 -2.843e-04
270 1 1.000e-01 -1.000e-01 0.000e+00 1.237e-04 1.789e-03 1.057e-03
271 1 0.000e+00 0.000e+00 0.000e+00 -1.005e-03 1.011e-01 4.281e-04
272 1 0.000e+00 -1.000e-01 0.000e+00 2.674e-03 -1.721e-03 -1.267e-03
273 1 -2.000e-01 0.000e+00 0.000e+00 -4.073e-04 -2.713e-04 -1.838e-03
274 1 1.000e-01 0.000e+00 0.000e+00 -5.868e-04 -1.631e-03 -6.831e-05
275 1 0.000e+00 2.000e-01 0.000e+00 6.064e-04 8.415e-04 2.413e-04
276 1 -1.000e-01 -1.000e-01 0.000e+00 -1.712e-03 4.366e-04 -1.876e-03
ITEM: TIMESTEP
0
ITEM: NUMBER OF ATOMS
12
ITEM: BOX BOUNDS xy xz yz pp pp pp
                     -5.00000000000000e-01 5.00000000000000e-01 0.00000000000000e+00
-5.00000000000000e-01	5.00000000000000e-01	0.00000000000000e+00
-5.00000000000000e-01	5.00000000000000e-01	0.00000000000000e+00
ITEM: ATOMS id type x y z DisplacementX DisplacementY DisplacementZ
277 1 -1.000e-01 -1.000e-01 0.000e+00 -5.355e-04 -5.798e-04 1.093e-03
278 1 2.000e-01 0.000e+00 0.000e+00 -1.185e-03 -3.994e-06 1.317e-03
279 1 0.000e+00 2.000e-01 0.000e+00 5.737e-04 -4.289e-04 -1.151e-03
280 1 1.000e-01 0.000e+00 0.000e+00 1.079e-04 -5.951e-04 -3.534e-04
281 1 -1.000e-01 1.000e-01 0.000e+00 1.577e-03 1.009e-03 -1.315e-03
282 1 1.000e-01 -1.000e-01 0.000e+00 -6.501e-04 1.045e-04 -3.130e-04
283 1 -2.000e-01 0.000e+00 0.000e+00 3.002e-04 1.552e-04 -4.487e-04
284 1 0.000e+00 -2.000e-01 0.000e+00 1.150e-04 2.534e-04 -9.065e-04
285 1 -1.000e-01 0.000e+00 0.000e+00 9.074e-04 1.350e-05 6.237e-04
286 1 1.000e-01 1.000e-01 0.000e+00 -5.158e-04 -1.058e-03 7.193e-04
287 1 0.000e+00 1.000e-01 0.000e+00 7.296e-04 8.444e-04 3.602e-04
288 1 0.000e+00 0.000e+00 0.000e+00 -2.912e-03 -1.005e-01 -1.556e-03
ITEM: TIMESTEP
0
ITEM: NUMBER OF ATOMS
12
ITEM: BOX BOUNDS xy xz yz pp pp pp
                     -5.00000000000000e-01 5.00000000000000e-01 0.00000000000000e+00
-5.00000000000000e-01	5.00000000000000e-01	0.00000000000000e+00
-5.00000000000000e-01	5.00000000000000e-01	0.00000000000000e+00
ITEM: ATOMS id type x y z DisplacementX DisplacementY DisplacementZ
289 1 0.000e+00 2.000e-01 0.000e+00 2.007e-04 2.614e-04 -4.604e-05
290 1 1.000e-01 0.000e+00 0.000e+00 -8.392e-04 1.689e-04 -1.796e-04
291 1 0.000e+00 0.000e+00 0.000e+00 -2.737e-04 -1.012e-01 2.055e-03
292 1 2.000e-01 0.000e+00 0.000e+00 -1.055e-03 -2.609e-05 -1.564e-04
293 1 -1.000e-01 -1.000e-01 0.000e+00 2.694e-05 -9.468e-04 -1.394e-03
294 1 0.000e+00 1.000e-01 0.000e+00 2.974e-04 -5.863e-04 3.696e-04
295 1 1.000e-01 -1.000e-01 0.000e+00 -3.608e-04 -5.014e-04 4.882e-05
296 1 -1.000e-01 1.000e-01 0.000e+00 -1.700e-04 -6.494e-04 8.172e-04
297 1 0.000e+00 -2.000e-01 0.000e+00 -2.083e-04 3.943e-04 -6.833e-04
298 1 -2.000e-01 0.000e+00 0.000e+00 1.915e-03 1.304e-03 1.013e-03
299 1 1.000e-01 1.000e-01 0.000e+00 -8.003e-04 -2.292e-03 -3.864e-04
300 1 -1.000e-01 0.000e+00 0.000e+00 -7.591e-04 3.175e-04 3.192e-03
ITEM: TIMESTEP
0
ITEM: NUMBER OF ATOMS
12
ITEM: BOX BOUNDS xy xz yz pp pp pp
                     -5.00000000000000e-01 5.00000000000000e-01 0.00000000000000e+00
-5.00000000000000e-01	5.00000000000000e-01	0.00000000000000e+00
-5.00000000000000e-01	5.00000000000000e-01	0.00000000000000e+00
ITEM: ATOMS id type x y z DisplacementX DisplacementY DisplacementZ
301 1 -1.000e-01 -1.000e-01 0.000e+00 7.090e-04 5.924e-04 4.180e-04
302 1 1.000e-01 1.000e-01 0.000e+00 1.085e-03 -8.448e-04 -7.827e-04
303 1 0.000e+00 0.000e+00 0.000e+00 9.979e-02 -2.365e-03 1.181e-03
304 1 0.000e+00 -1.000e-01 0.000e+00 -1.401e-03 2.112e-03 6.164e-04
305 1 2.000e-01 0.000e+00 0.000e+00 -8.813e-04 -1.806e-04 -5.465e-04