ITEM: TIMESTEP
0
ITEM: NUMBER OF ATOMS
4
ITEM: BOX BOUNDS xy xz yz pp pp pp
                     -5.00000000000000e-01 5.00000000000000e-01 0.00000000000000e+00
-5.00000000000000e-01	5.00000000000000e-01	0.00000000000000e+00
-5.00000000000000e-01	5.00000000000000e-01	0.00000000000000e+00
ITEM: ATOMS id type x y z DisplacementX DisplacementY DisplacementZ
1 1 0.000e+00 0.000e+00 0.000e+00 -1.003e-01 8.406e-04 -1.110e-04
2 1 0.000e+00 -1.000e-01 0.000e+00 -7.688e-04 -2.058e-04 3.495e-04
3 1 1.000e-01 0.000e+00 0.000e+00 4.584e-04 1.535e-03 -1.264e-03
4 1 0.000e+00 1.000e-01 0.000e+00 -1.719e-03 -1.546e-03 1.591e-03
ITEM: TIMESTEP
0
ITEM: NUMBER OF ATOMS
4
ITEM: BOX BOUNDS xy xz yz pp pp pp
                     -5.00000000000000e-01 5.00000000000000e-01 0.00000000000000e+00
-5.00000000000000e-01	5.00000000000000e-01	0.00000000000000e+00
-5.00000000000000e-01	5.00000000000000e-01	0.00000000000000e+00
ITEM: ATOMS id type x y z DisplacementX DisplacementY DisplacementZ
5 1 0.000e+00 1.000e-01 0.000e+00 -4.289e-04 -1.550e-03 1.589e-03
6 1 0.000e+00 -1.000e-01 0.000e+00 -3.325e-04 -1.551e-03 1.589e-03
7 1 0.000e+00 0.000e+00 0.000e+00 1.006e-01 -1.903e-03 1.402e-03
8 1 -1.000e-01 0.000e+00 0.000e+00 2.890e-04 2.370e-04 -6.461e-05
