ITEM: TIMESTEP
0
ITEM: NUMBER OF ATOMS
47
ITEM: BOX BOUNDS xy xz yz pp pp pp
                     0.00000000000000e+00 1.06200000000000e+01 0.00000000000000e+00
0.00000000000000e+00	1.06200000000000e+01	0.00000000000000e+00
0.00000000000000e+00	1.06200000000000e+01	0.00000000000000e+00
ITEM: ATOMS id type x y z DisplacementX DisplacementY DisplacementZ
1 1 3.521e+00 -1.920e-04 -3.522e+00 1.459e-02 -1.415e-02 -8.162e-03
2 1 1.761e+00 1.771e+00 3.550e+00 -1.505e-02 -4.219e-05 1.556e-02
3 1 -3.549e+00 -1.772e+00 -1.761e+00 -1.237e-02 6.213e-03 1.842e-02
4 1 -3.548e+00 1.770e+00 -1.762e+00 -7.409e-03 -5.638e-04 2.109e-02
5 1 1.761e+00 -1.773e+00 3.550e+00 -1.759e-02 6.313e-03 1.582e-02
6 1 3.530e+00 3.538e+00 7.852e-03 -1.901e-02 1.847e-03 1.966e-02
7 1 -4.670e-03 -3.536e+00 -3.528e+00 -1.525e-02 8.934e-04 1.927e-02
8 1 -8.041e-03 3.537e+00 -3.529e+00 -1.650e-02 5.593e-03 1.843e-02
9 1 3.527e+00 -3.539e+00 9.192e-03 -1.633e-02 2.545e-03 1.849e-02
10 1 -3.550e+00 -1.769e+00 1.778e+00 -1.262e-02 2.230e-03 1.542e-02
11 1 -3.549e+00 1.767e+00 1.778e+00 -1.228e-02 4.528e-03 1.437e-02
12 1 -1.778e+00 -1.769e+00 3.548e+00 -1.975e-02 -9.486e-03 1.004e-02
13 1 -1.778e+00 1.770e+00 3.550e+00 -1.476e-02 2.825e-04 1.091e-02
14 1 -1.778e+00 -3.539e+00 1.778e+00 -1.805e-02 2.009e-04 1.465e-02
15 1 -1.779e+00 3.540e+00 1.776e+00 -1.530e-02 1.572e-03 1.731e-02
16 1 1.760e+00 -1.762e+00 -3.522e+00 3.148e-04 -6.539e-04 6.172e-03
17 1 1.760e+00 1.760e+00 -3.520e+00 -1.061e-02 -1.395e-02 1.697e-02
18 1 3.523e+00 -1.761e+00 -1.762e+00 1.459e-02 -1.415e-02 -8.162e-03
19 1 3.521e+00 1.760e+00 -1.761e+00 6.955e-03 9.708e-03 1.620e-02
20 1 1.761e+00 3.536e+00 1.776e+00 -1.891e-02 -1.527e-03 1.821e-02
21 1 -1.775e+00 -3.535e+00 -1.760e+00 -1.927e-02 -2.323e-03 1.778e-02
22 1 1.761e+00 -3.536e+00 1.776e+00 -1.798e-02 2.347e-03 1.464e-02
23 1 -1.777e+00 3.537e+00 -1.759e+00 -1.565e-02 6.151e-03 1.520e-02
24 1 3.528e+00 1.767e+00 1.776e+00 -1.983e-02 2.280e-03 1.835e-02
25 1 -1.777e+00 -1.770e+00 -3.528e+00 -1.840e-02 3.492e-03 1.504e-02
26 1 -1.777e+00 1.767e+00 -3.527e+00 -1.851e-02 1.151e-03 1.709e-02
27 1 3.530e+00 -1.770e+00 1.776e+00 -1.853e-02 -3.855e-03 1.957e-02
28 1 3.521e+00 -8.014e-04 6.180e-04 7.453e-03 2.155e-03 2.151e-02
29 1 -4.037e-04 -1.367e-03 -3.524e+00 -8.487e-03 -1.397e-02 1.485e-02
30 1 1.761e+00 -3.551e+00 -1.760e+00 -1.685e-02 1.506e-02 1.999e-02
31 1 1.762e+00 3.548e+00 -1.760e+00 -1.732e-02 -6.684e-03 1.610e-02
32 1 -7.787e-03 3.537e+00 7.111e-03 -1.878e-02 2.856e-03 2.458e-02
33 1 -7.798e-03 -3.539e+00 7.138e-03 -1.781e-02 -7.305e-03 1.844e-02
34 1 -9.894e-03 -6.771e-04 3.550e+00 -1.447e-02 3.515e-03 2.550e-02
35 1 -3.548e+00 5.681e-05 1.148e-02 -2.610e-02 -1.411e-03 1.409e-02
36 1 8.246e-05 -7.761e-04 1.836e-03 1.733e+00 6.150e-04 -1.735e+00
37 1 1.760e+00 1.759e+00 4.333e-04 -2.835e-03 9.618e-03 1.665e-02
38 1 -1.184e-03 -1.761e+00 -1.761e+00 -2.344e-02 -1.385e-02 2.977e-02
39 1 -3.293e-04 1.761e+00 -1.761e+00 1.459e-02 -1.415e-02 -8.162e-03
40 1 1.759e+00 -1.762e+00 -2.209e-03 -2.359e-02 -1.385e-02 2.992e-02
41 1 1.762e+00 -5.759e-04 1.789e+00 -2.375e-02 3.451e-04 7.585e-04
42 1 -1.788e+00 -8.169e-04 -1.761e+00 1.149e-03 3.529e-03 2.263e-02
43 1 -7.824e-03 1.769e+00 1.778e+00 -1.592e-02 -4.019e-03 8.193e-03
44 1 -1.776e+00 -1.767e+00 6.528e-03 -1.085e-02 5.739e-03 1.940e-02
45 1 -6.472e-03 -1.767e+00 1.778e+00 -1.863e-02 8.960e-03 8.205e-03
46 1 -1.776e+00 1.768e+00 7.644e-03 -7.778e-03 -6.328e-03 1.455e-02
47 1 -1.776e+00 4.941e-04 1.777e+00 -8.479e-03 4.547e-03 1.049e-02
ITEM: TIMESTEP
0
ITEM: NUMBER OF ATOMS
47
ITEM: BOX BOUNDS xy xz yz pp pp pp
                     0.00000000000000e+00 1.06200000000000e+01 0.00000000000000e+00
0.00000000000000e+00	1.06200000000000e+01	0.00000000000000e+00
0.00000000000000e+00	1.06200000000000e+01	0.00000000000000e+00
ITEM: ATOMS id type x y z DisplacementX DisplacementY DisplacementZ
48 1 -2.142e-04 3.521e+00 -3.522e+00 -9.596e-04 -1.403e-02 7.347e-03
49 1 -1.771e+00 1.760e+00 3.549e+00 7.490e-03 -7.785e-04 1.141e-02
50 1 1.773e+00 -3.549e+00 -1.760e+00 -4.544e-03 -6.543e-03 1.344e-02
51 1 -1.773e+00 -3.548e+00 -1.761e+00 -1.819e-03 -8.796e-03 1.353e-02
52 1 1.770e+00 1.762e+00 3.548e+00 -2.504e-03 -7.610e-03 1.279e-02
53 1 -3.540e+00 3.528e+00 6.112e-03 4.405e-04 -4.698e-03 1.514e-02
54 1 3.539e+00 -6.815e-03 -3.528e+00 -9.787e-04 -7.492e-03 1.217e-02
55 1 -3.535e+00 -7.215e-03 -3.528e+00 1.609e-03 -3.944e-03 1.256e-02
56 1 3.537e+00 3.529e+00 6.780e-03 -7.137e-03 -1.340e-02 1.267e-02
57 1 1.769e+00 -3.551e+00 1.778e+00 -5.567e-03 -1.166e-02 1.442e-02
58 1 -1.769e+00 -3.549e+00 1.778e+00 3.542e-03 -2.464e-03 1.369e-02
59 1 1.768e+00 -1.779e+00 3.548e+00 1.485e-03 -9.573e-04 9.980e-03
60 1 -1.771e+00 -1.779e+00 3.549e+00 -2.371e-03 -1.194e-02 1.080e-02
61 1 3.536e+00 -1.776e+00 1.777e+00 1.000e-03 -7.045e-03 1.229e-02
62 1 -3.540e+00 -1.779e+00 1.779e+00 7.209e-04 -7.739e-03 1.200e-02
63 1 1.760e+00 1.761e+00 -3.521e+00 1.459e-02 -1.415e-02 -8.162e-03
64 1 -1.761e+00 1.759e+00 -3.521e+00 -6.133e-03 -1.399e-02 1.251e-02
65 1 1.760e+00 3.521e+00 -1.760e+00 7.734e-03 1.171e-03 7.590e-03
66 1 -1.762e+00 3.523e+00 -1.762e+00 1.459e-02 -1.415e-02 -8.162e-03
67 1 -3.538e+00 1.762e+00 1.776e+00 -2.301e-03 -8.953e-03 1.377e-02
68 1 3.535e+00 -1.776e+00 -1.760e+00 -3.801e-03 -8.757e-03 9.967e-03
69 1 3.538e+00 1.761e+00 1.775e+00 -4.424e-03 -1.399e-02 1.079e-02
70 1 -3.535e+00 -1.776e+00 -1.761e+00 -7.529e-04 -8.371e-03 1.281e-02
71 1 -1.769e+00 3.529e+00 1.777e+00 -3.091e-03 -1.051e-02 1.299e-02
72 1 1.766e+00 -1.775e+00 -3.531e+00 6.910e-03 -1.405e-03 1.191e-02
73 1 -1.767e+00 -1.776e+00 -3.531e+00 -7.095e-03 -1.206e-02 1.536e-02
74 1 1.767e+00 3.529e+00 1.775e+00 1.577e-03 -5.050e-03 1.341e-02
75 1 -3.016e-04 3.520e+00 5.952e-05 -1.215e-03 9.820e-03 1.677e-02
76 1 1.140e-03 -6.613e-05 -3.521e+00 1.191e-03 -1.669e-02 -9.961e-03
77 1 3.550e+00 1.759e+00 -1.761e+00 -1.385e-02 -4.201e-04 1.018e-02
78 1 -3.548e+00 1.761e+00 -1.759e+00 3.792e-03 -7.003e-03 9.567e-03
79 1 -3.538e+00 -5.732e-03 6.328e-03 -1.275e-02 -1.096e-02 1.643e-02
80 1 3.538e+00 -7.258e-03 6.019e-03 8.643e-03 -2.356e-03 9.454e-03
81 1 -3.727e-04 -9.754e-03 3.548e+00 -5.626e-03 -6.857e-03 1.914e-02
82 1 1.884e-04 -3.549e+00 1.015e-02 -2.644e-03 -1.244e-02 6.744e-03
83 1 -1.482e-04 6.917e-04 -1.565e-03 -2.743e-03 1.735e+00 -1.733e+00
84 1 -1.759e+00 1.759e+00 8.546e-04 1.459e-02 -1.415e-02 -8.162e-03
85 1 1.760e+00 8.927e-05 -1.760e+00 1.459e-02 -1.415e-02 -8.162e-03
86 1 -1.760e+00 -4.078e-04 -1.759e+00 -8.702e-03 -1.397e-02 1.507e-02
87 1 1.760e+00 1.763e+00 8.662e-04 1.371e-02 -1.251e-02 1.232e-02
88 1 -8.048e-05 1.761e+00 1.789e+00 2.780e-03 -1.302e-02 -1.822e-04
89 1 1.518e-04 -1.790e+00 -1.762e+00 2.019e-03 8.602e-03 2.481e-02
90 1 -1.769e+00 -8.927e-03 1.775e+00 2.647e-03 -1.305e-02 4.739e-03
91 1 1.768e+00 -1.776e+00 7.982e-03 -8.400e-03 -9.685e-03 1.748e-02
92 1 1.767e+00 -6.977e-03 1.778e+00 -5.107e-03 -1.208e-02 9.134e-03
93 1 -1.768e+00 -1.777e+00 7.589e-03 3.974e-03 -3.110e-03 1.313e-02
94 1 -1.429e-03 -1.775e+00 1.775e+00 4.313e-03 -5.005e-03 1.111e-02
ITEM: TIMESTEP
0
ITEM: NUMBER OF ATOMS
47
ITEM: BOX BOUNDS xy xz yz pp pp pp
                     0.00000000000000e+00 1.06200000000000e+01 0.00000000000000e+00
0.00000000000000e+00	1.06200000000000e+01	0.00000000000000e+00
0.00000000000000e+00	1.06200000000000e+01	0.00000000000000e+00
ITEM: ATOMS id type x y z DisplacementX DisplacementY DisplacementZ
95 1 -3.520e+00 -2.144e-04 -3.521e+00 4.248e-03 -1.407e-02 2.154e-03
96 1 -1.761e+00 1.773e+00 3.549e+00 9.738e-03 -2.065e-03 8.604e-03
97 1 3.549e+00 -1.770e+00 -1.761e+00 9.505e-03 3.332e-03 1.419e-02
98 1 3.548e+00 1.772e+00 -1.760e+00 7.005e-03 1.643e-04 1.359e-02
99 1 -1.761e+00 -1.771e+00 3.548e+00 1.419e-02 7.096e-03 1.317e-02
100 1 -3.529e+00 3.539e+00 6.708e-03 1.193e-02 3.761e-03 1.216e-02
101 1 6.636e-03 -3.539e+00 -3.528e+00 9.036e-03 1.388e-03 1.275e-02
102 1 8.114e-03 3.538e+00 -3.530e+00 1.071e-02 3.352e-03 1.299e-02
103 1 -3.529e+00 -3.538e+00 8.893e-03 1.120e-02 4.765e-03 1.389e-02
104 1 3.550e+00 -1.771e+00 1.777e+00 7.206e-03 -1.686e-03 1.152e-02
105 1 3.547e+00 1.769e+00 1.779e+00 6.822e-03 -4.235e-03 9.296e-03
106 1 1.779e+00 -1.770e+00 3.549e+00 1.341e-02 4.212e-03 1.111e-02
107 1 1.779e+00 1.771e+00 3.551e+00 1.045e-02 3.260e-04 1.024e-02
108 1 1.778e+00 -3.539e+00 1.778e+00 7.201e-03 2.951e-03 1.614e-02
109 1 1.781e+00 3.538e+00 1.778e+00 1.116e-02 3.203e-04 9.551e-03
110 1 -1.762e+00 -1.759e+00 -3.521e+00 1.899e-03 -1.474e-03 5.261e-03
111 1 -1.762e+00 1.759e+00 -3.521e+00 8.313e-03 -1.410e-02 -1.900e-03
112 1 -3.521e+00 -1.761e+00 -1.760e+00 -2.187e-03 -1.402e-02 8.572e-03
113 1 -3.522e+00 1.761e+00 -1.761e+00 1.459e-02 -1.415e-02 -8.162e-03
114 1 -1.761e+00 3.538e+00 1.776e+00 1.418e-02 7.430e-03 1.351e-02
115 1 1.774e+00 -3.536e+00 -1.761e+00 8.130e-03 2.783e-04 1.257e-02
116 1 -1.759e+00 -3.538e+00 1.776e+00 1.217e-02 4.816e-03 1.297e-02
117 1 1.776e+00 3.536e+00 -1.762e+00 5.693e-03 8.889e-04 1.563e-02
118 1 -3.530e+00 1.766e+00 1.776e+00 9.815e-03 1.486e-03 1.206e-02
119 1 1.776e+00 -1.768e+00 -3.528e+00 1.229e-02 6.474e-03 1.448e-02
120 1 1.776e+00 1.769e+00 -3.529e+00 8.714e-03 2.523e-03 1.419e-02
121 1 -3.529e+00 -1.768e+00 1.777e+00 8.581e-03 1.447e-03 1.326e-02
122 1 -3.521e+00 4.218e-04 9.228e-04 1.459e-02 -1.415e-02 -8.162e-03
123 1 -9.345e-04 -7.265e-04 -3.522e+00 1.459e-02 -1.415e-02 -8.162e-03
124 1 -1.759e+00 -3.549e+00 -1.761e+00 1.234e-02 7.031e-03 1.497e-02
125 1 -1.762e+00 3.548e+00 -1.761e+00 3.159e-03 -7.052e-03 1.015e-02
126 1 7.482e-03 3.536e+00 6.009e-03 5.600e-03 1.897e-03 1.666e-02
127 1 8.625e-03 -3.536e+00 7.987e-03 1.161e-02 -2.510e-04 8.492e-03
128 1 1.221e-02 1.644e-03 3.549e+00 6.718e-03 6.671e-03 2.029e-02
129 1 3.547e+00 -2.755e-04 1.164e-02 1.429e-02 1.782e-03 7.836e-03
130 1 -2.302e-04 6.911e-04 -3.463e-05 -1.733e+00 -8.720e-04 -1.735e+00
131 1 -1.764e+00 1.761e+00 -1.431e-03 -5.947e-04 8.404e-03 1.531e-02
132 1 4.887e-05 -1.761e+00 -1.760e+00 1.459e-02 -1.415e-02 -8.162e-03
133 1 1.623e-04 1.762e+00 -1.760e+00 7.401e-03 1.064e-02 1.710e-02
134 1 -1.761e+00 -1.761e+00 7.233e-04 3.401e-03 -1.406e-02 2.999e-03
135 1 -1.758e+00 1.914e-04 1.789e+00 1.459e-02 -1.415e-02 -8.162e-03
136 1 1.787e+00 9.539e-04 -1.761e+00 -9.938e-04 3.440e-03 2.451e-02
137 1 9.443e-03 1.769e+00 1.775e+00 1.436e-02 -2.110e-03 3.928e-03
138 1 1.777e+00 -1.768e+00 8.085e-03 6.234e-03 3.166e-03 1.731e-02
139 1 8.484e-03 -1.768e+00 1.776e+00 1.413e-02 2.231e-03 8.439e-03
140 1 1.776e+00 1.768e+00 8.249e-03 8.902e-03 3.811e-03 1.527e-02
141 1 1.775e+00 -2.346e-03 1.776e+00 1.108e-02 3.157e-04 9.632e-03
ITEM: TIMESTEP
0
ITEM: NUMBER OF ATOMS
47
ITEM: BOX BOUNDS xy xz yz pp pp pp
                     0.00000000000000e+00 1.06200000000000e+01 0.00000000000000e+00
0.00000000000000e+00	1.06200000000000e+01	0.00000000000000e+00
0.00000000000000e+00	1.06200000000000e+01	0.00000000000000e+00
ITEM: ATOMS id type x y z DisplacementX DisplacementY DisplacementZ
142 1 -9.944e-07 -3.521e+00 -3.522e+00 6.621e-04 8.145e-03 1.498e-02
143 1 -1.771e+00 -1.758e+00 3.551e+00 -3.116e-04 3.607e-03 1.924e-02
144 1 1.774e+00 3.548e+00 -1.762e+00 -6.662e-03 6.884e-03 2.269e-02
145 1 -1.772e+00 3.548e+00 -1.761e+00 6.124e-04 6.351e-03 1.939e-02
146 1 1.772e+00 -1.761e+00 3.549e+00 -1.446e-03 6.481e-03 1.855e-02
147 1 -3.537e+00 -3.530e+00 7.639e-03 4.623e-04 4.219e-03 1.865e-02
148 1 3.536e+00 6.649e-03 -3.530e+00 -3.005e-03 1.161e-02 1.939e-02
149 1 -3.539e+00 6.623e-03 -3.529e+00 -1.400e-03 1.239e-02 1.952e-02
150 1 3.537e+00 -3.532e+00 5.812e-03 -1.508e-03 1.456e-02 1.996e-02
151 1 1.770e+00 3.551e+00 1.778e+00 -3.267e-03 7.736e-03 1.767e-02
152 1 -1.770e+00 3.548e+00 1.780e+00 -3.079e-03 1.481e-03 1.804e-02
153 1 1.771e+00 1.779e+00 3.549e+00 -6.740e-03 7.013e-03 1.385e-02
154 1 -1.769e+00 1.778e+00 3.549e+00 8.941e-04 4.801e-03 1.705e-02
155 1 3.540e+00 1.778e+00 1.778e+00 -6.188e-04 5.872e-03 2.173e-02
156 1 -3.539e+00 1.779e+00 1.779e+00 -8.619e-05 1.035e-02 1.796e-02
157 1 1.761e+00 -1.760e+00 -3.522e+00 1.459e-02 -1.415e-02 -8.162e-03
158 1 -1.761e+00 -1.760e+00 -3.520e+00 -5.091e-03 -1.399e-02 1.147e-02
159 1 1.760e+00 -3.521e+00 -1.761e+00 1.459e-02 -1.415e-02 -8.162e-03
160 1 -1.760e+00 -3.523e+00 -1.762e+00 -1.026e-02 -1.395e-02 1.662e-02
161 1 -3.539e+00 -1.761e+00 1.776e+00 -2.711e-03 9.878e-03 2.493e-02
162 1 3.538e+00 1.774e+00 -1.760e+00 3.969e-03 9.782e-03 2.437e-02
163 1 3.536e+00 -1.760e+00 1.773e+00 -3.577e-03 6.567e-03 1.877e-02
164 1 -3.539e+00 1.776e+00 -1.762e+00 -3.023e-03 5.509e-03 2.249e-02
165 1 -1.768e+00 -3.530e+00 1.777e+00 -1.572e-03 1.406e-02 1.779e-02
166 1 1.767e+00 1.777e+00 -3.530e+00 -3.918e-03 7.295e-03 2.071e-02
167 1 -1.768e+00 1.777e+00 -3.529e+00 -1.950e-03 2.766e-03 1.884e-02
168 1 1.767e+00 -3.528e+00 1.777e+00 -2.271e-03 4.814e-03 2.225e-02
169 1 1.141e-03 -3.524e+00 3.887e-04 -1.014e-02 -1.395e-02 1.650e-02
170 1 -7.074e-04 -9.800e-04 -3.521e+00 4.349e-03 -1.407e-02 2.053e-03
171 1 3.548e+00 -1.757e+00 -1.760e+00 -1.218e-02 9.824e-03 2.088e-02
172 1 -3.548e+00 -1.760e+00 -1.762e+00 9.788e-03 9.826e-03 2.026e-02
173 1 -3.536e+00 9.607e-03 7.981e-03 -1.432e-02 1.456e-02 2.304e-02
174 1 3.537e+00 5.821e-03 6.869e-03 1.406e-02 1.378e-02 1.989e-02
175 1 -1.210e-03 1.140e-02 3.548e+00 1.051e-04 8.018e-03 2.728e-02
176 1 4.198e-04 3.548e+00 1.034e-02 -1.597e-03 2.314e-02 1.759e-02
177 1 -1.102e-03 -2.857e-04 -1.607e-03 -2.796e-03 -1.735e+00 -1.734e+00
178 1 -1.762e+00 -1.763e+00 -5.272e-04 1.459e-02 -1.415e-02 -8.162e-03
179 1 1.760e+00 -7.560e-04 -1.761e+00 7.436e-03 2.315e-02 2.965e-02
180 1 -1.761e+00 2.379e-03 -1.761e+00 1.459e-02 -1.415e-02 -8.162e-03
181 1 1.760e+00 -1.759e+00 -1.119e-03 -4.545e-03 2.370e-02 2.930e-02
182 1 -2.740e-04 -1.761e+00 1.789e+00 -2.859e-03 1.273e-02 2.076e-03
183 1 -5.379e-04 1.789e+00 -1.762e+00 -3.100e-03 -1.071e-03 2.218e-02
184 1 -1.769e+00 8.731e-03 1.777e+00 1.148e-03 1.853e-03 1.578e-02
185 1 1.767e+00 1.776e+00 9.139e-03 -8.736e-03 9.290e-03 1.950e-02
186 1 1.766e+00 9.306e-03 1.777e+00 -8.183e-03 1.142e-02 1.172e-02
187 1 -1.769e+00 1.777e+00 8.906e-03 7.306e-03 5.971e-03 1.901e-02
188 1 -1.079e-03 1.777e+00 1.776e+00 -2.800e-03 1.349e-03 1.434e-02
ITEM: TIMESTEP
0
ITEM: NUMBER OF ATOMS
47
ITEM: BOX BOUNDS xy xz yz pp pp pp
                     0.00000000000000e+00 1.06200000000000e+01 0.00000000000000e+00
0.00000000000000e+00	1.06200000000000e+01	0.00000000000000e+00
0.00000000000000e+00	1.06200000000000e+01	0.00000000000000e+00
ITEM: ATOMS id type x y z DisplacementX DisplacementY DisplacementZ
189 1 3.522e+00 -4.618e-04 3.523e+00 -1.353e-02 -4.220e-03 -7.899e-03
190 1 -3.550e+00 1.771e+00 1.761e+00 -1.261e-02 -3.980e-03 -1.266e-02
191 1 1.761e+00 -1.772e+00 -3.548e+00 -1.663e-02 4.350e-04 -1.053e-02
192 1 1.760e+00 1.772e+00 -3.550e+00 -1.578e-02 -2.745e-03 -1.286e-02
193 1 -3.549e+00 -1.772e+00 1.763e+00 -1.554e-02 4.148e-03 -1.633e-02
194 1 -7.398e-03 3.538e+00 3.528e+00 -1.643e-02 -2.205e-03 -1.256e-02
195 1 3.529e+00 -3.535e+00 -7.078e-03 -1.826e-02 -4.720e-04 -1.957e-02
196 1 3.530e+00 3.537e+00 -7.727e-03 -1.669e-02 -1.187e-03 -1.664e-02
197 1 -5.527e-03 -3.536e+00 3.528e+00 -1.426e-02 -2.611e-03 -1.405e-02
198 1 -1.778e+00 -1.769e+00 -3.549e+00 -1.383e-02 -3.751e-03 -9.751e-03
199 1 -1.778e+00 1.769e+00 -3.549e+00 -1.527e-02 -3.090e-03 -1.222e-02
200 1 -3.551e+00 -1.768e+00 -1.779e+00 -1.380e-02 -4.550e-03 -8.856e-03
201 1 -3.549e+00 1.770e+00 -1.779e+00 -1.575e-02 -4.219e-03 -1.119e-02
202 1 -1.777e+00 -3.540e+00 -1.778e+00 -1.592e-02 -4.337e-03 -9.415e-03
203 1 -1.780e+00 3.539e+00 -1.777e+00 -1.540e-02 -3.737e-03 -1.273e-02
204 1 3.522e+00 -1.760e+00 1.762e+00 1.459e-02 -1.415e-02 -8.162e-03
205 1 3.521e+00 1.762e+00 1.761e+00 7.109e-03 -7.649e-03 -1.225e-03
206 1 1.760e+00 -1.760e+00 3.521e+00 -1.566e-03 -1.402e-02 7.953e-03
207 1 1.759e+00 1.761e+00 3.521e+00 -1.895e-03 -6.310e-03 6.215e-04
208 1 -1.776e+00 3.538e+00 1.762e+00 -1.811e-02 -1.420e-03 -1.766e-02
209 1 1.761e+00 -3.536e+00 -1.778e+00 -1.492e-02 -2.995e-03 -1.254e-02
210 1 -1.777e+00 -3.537e+00 1.761e+00 -1.507e-02 -2.692e-03 -1.418e-02
211 1 1.760e+00 3.535e+00 -1.775e+00 -1.863e-02 -2.919e-04 -2.085e-02
212 1 -1.777e+00 1.767e+00 3.529e+00 -1.681e-02 -1.268e-03 -1.898e-02
213 1 3.530e+00 -1.769e+00 -1.778e+00 -1.531e-02 -2.511e-03 -1.398e-02
214 1 3.530e+00 1.767e+00 -1.775e+00 -1.745e-02 -9.173e-04 -1.613e-02
215 1 -1.779e+00 -1.768e+00 3.529e+00 -1.729e-02 -1.406e-03 -1.373e-02
216 1 2.103e-04 3.941e-04 3.520e+00 1.459e-02 -1.415e-02 -8.162e-03
217 1 3.520e+00 -7.814e-04 6.478e-04 1.459e-02 -1.415e-02 -8.162e-03
218 1 1.759e+00 -3.549e+00 1.760e+00 -1.923e-02 5.305e-03 -1.394e-02
219 1 1.762e+00 3.550e+00 1.761e+00 -1.309e-02 -3.702e-03 -1.211e-02
220 1 -7.139e-03 3.540e+00 -8.687e-03 -1.956e-02 -7.285e-04 -1.308e-02
221 1 -7.016e-03 -3.537e+00 -8.275e-03 -1.308e-02 -3.739e-03 -1.258e-02
222 1 -3.548e+00 8.615e-04 -1.120e-02 -2.543e-02 5.226e-05 -9.176e-03
223 1 -1.065e-02 -6.443e-04 -3.550e+00 -1.791e-02 -1.275e-04 -2.613e-02
224 1 -9.225e-05 1.405e-03 2.371e-06 1.736e+00 -9.766e-05 1.736e+00
225 1 2.128e-03 1.760e+00 1.759e+00 1.459e-02 -1.415e-02 -8.162e-03
226 1 1.759e+00 -1.760e+00 -2.516e-04 3.162e-04 -1.579e-02 -9.015e-03
227 1 1.760e+00 1.761e+00 2.755e-03 3.419e-03 -1.406e-02 2.980e-03
228 1 4.284e-05 -1.759e+00 1.760e+00 4.166e-03 -1.407e-02 2.236e-03
229 1 -1.789e+00 6.671e-06 1.761e+00 -2.273e-03 -6.872e-03 -1.749e-02
230 1 1.762e+00 4.347e-04 -1.790e+00 -2.315e-02 5.776e-05 1.043e-03
231 1 -1.776e+00 1.768e+00 -7.433e-03 -6.922e-03 -5.489e-03 -1.414e-02
232 1 -8.025e-03 -1.768e+00 -1.776e+00 -1.942e-02 -1.361e-03 -5.123e-03
233 1 -1.777e+00 -1.768e+00 -8.439e-03 -1.044e-02 -3.869e-03 -1.527e-02
234 1 -7.252e-03 1.769e+00 -1.776e+00 -1.701e-02 -3.623e-03 -8.878e-03
235 1 -1.776e+00 -1.853e-03 -1.777e+00 -1.160e-02 -4.294e-03 -1.256e-02
ITEM: TIMESTEP
0
ITEM: NUMBER OF ATOMS
47
ITEM: BOX BOUNDS xy xz yz pp pp pp
                     0.00000000000000e+00 1.06200000000000e+01 0.00000000000000e+00
0.00000000000000e+00	1.06200000000000e+01	0.00000000000000e+00
0.00000000000000e+00	1.06200000000000e+01	0.00000000000000e+00
ITEM: ATOMS id type x y z DisplacementX DisplacementY DisplacementZ
236 1 3.521e+00 3.522e+00 7.144e-04 6.514e-03 -6.571e-03 -1.100e-04
237 1 -3.549e+00 1.761e+00 1.771e+00 -9.181e-03 -6.606e-03 -4.246e-03
238 1 1.760e+00 -3.550e+00 -1.771e+00 -1.437e-02 -4.627e-03 -1.046e-03
239 1 1.761e+00 -3.549e+00 1.771e+00 -1.537e-02 -4.601e-03 -4.320e-03
240 1 -3.550e+00 1.760e+00 -1.773e+00 -9.258e-03 -8.572e-03 2.614e-03
241 1 -8.192e-03 3.531e+00 3.537e+00 -1.513e-02 -8.360e-03 1.168e-03
242 1 3.528e+00 -8.666e-03 -3.538e+00 -1.514e-02 -8.238e-03 7.388e-04
243 1 3.529e+00 -7.400e-03 3.539e+00 -1.438e-02 -8.106e-03 3.366e-03
244 1 -7.816e-03 3.527e+00 -3.538e+00 -1.321e-02 -9.533e-03 3.519e-03
245 1 -1.780e+00 -3.549e+00 -1.768e+00 -1.420e-02 -9.282e-03 3.595e-03
246 1 -1.778e+00 -3.550e+00 1.770e+00 -1.355e-02 -8.055e-03 3.110e-03
247 1 -3.549e+00 -1.778e+00 -1.769e+00 -1.317e-02 -9.849e-03 4.668e-03
248 1 -3.549e+00 -1.779e+00 1.770e+00 -9.832e-03 -8.480e-03 1.181e-03
249 1 -1.780e+00 -1.777e+00 -3.540e+00 -1.244e-02 -2.145e-03 -3.031e-03
250 1 -1.778e+00 -1.779e+00 3.538e+00 -1.519e-02 -8.014e-03 -5.205e-05
251 1 3.523e+00 1.762e+00 -1.762e+00 1.459e-02 -1.415e-02 -8.162e-03
252 1 3.522e+00 1.761e+00 1.761e+00 7.851e-04 -1.134e-02 6.341e-04
253 1 1.763e+00 3.522e+00 -1.760e+00 -1.094e-03 -1.402e-02 7.482e-03
254 1 1.761e+00 3.520e+00 1.761e+00 -1.807e-03 -3.844e-03 3.090e-03
255 1 -1.776e+00 1.761e+00 3.536e+00 -1.482e-02 -9.439e-03 4.819e-03
256 1 1.760e+00 -1.776e+00 -3.536e+00 -1.749e-02 -4.621e-03 -1.088e-03
257 1 -1.775e+00 1.762e+00 -3.537e+00 -1.711e-02 -8.432e-03 3.485e-03
258 1 1.761e+00 -1.775e+00 3.536e+00 -1.386e-02 -9.438e-03 3.802e-03
259 1 -1.777e+00 3.529e+00 1.768e+00 -1.708e-02 -6.578e-03 -3.371e-03
260 1 3.529e+00 -1.776e+00 -1.768e+00 -1.482e-02 -7.648e-03 -6.427e-04
261 1 3.527e+00 -1.778e+00 1.768e+00 -1.357e-02 -8.915e-03 1.596e-03
262 1 -1.778e+00 3.528e+00 -1.768e+00 -1.510e-02 -2.806e-03 -5.468e-03
263 1 3.043e-04 3.522e+00 -3.110e-04 1.459e-02 -1.415e-02 -8.162e-03
264 1 3.523e+00 8.287e-04 -1.866e-03 1.459e-02 -1.415e-02 -8.162e-03
265 1 1.762e+00 1.761e+00 -3.548e+00 -1.594e-02 -5.987e-03 1.010e-02
266 1 1.759e+00 1.760e+00 3.549e+00 -1.371e-02 -3.210e-03 -1.449e-02
267 1 -7.583e-03 -7.738e-03 3.538e+00 -1.881e-02 -1.099e-02 1.459e-02
268 1 -9.546e-03 -8.022e-03 -3.538e+00 -9.785e-03 -6.303e-03 -7.227e-03
269 1 -3.550e+00 -1.091e-02 9.379e-05 -2.499e-02 -6.192e-03 3.370e-03
270 1 -9.794e-03 -3.548e+00 5.189e-04 -7.827e-03 -5.802e-03 -9.695e-03
271 1 8.657e-04 -1.104e-03 1.746e-03 1.732e+00 1.734e+00 -9.225e-04
272 1 -7.199e-04 1.761e+00 1.761e+00 1.459e-02 -1.415e-02 -8.162e-03
273 1 1.760e+00 -1.786e-03 -1.759e+00 1.844e-03 -1.461e-02 -7.919e-03
274 1 1.761e+00 4.945e-05 1.760e+00 -9.995e-03 -1.396e-02 1.636e-02
275 1 1.633e-04 1.760e+00 -1.761e+00 -1.045e-02 -1.395e-02 1.681e-02
276 1 -1.789e+00 1.761e+00 2.074e-04 2.595e-03 -1.404e-02 3.760e-03
277 1 1.759e+00 -1.790e+00 3.074e-04 -2.599e-02 1.962e-03 4.632e-04
278 1 -1.777e+00 -7.725e-03 1.769e+00 -7.636e-03 -7.745e-03 -3.408e-03
279 1 -8.663e-03 -1.776e+00 -1.768e+00 -1.803e-02 -4.100e-03 6.019e-03
280 1 -1.777e+00 -8.973e-03 -1.767e+00 -9.325e-03 -1.204e-02 8.674e-03
281 1 -5.463e-03 -1.778e+00 1.768e+00 -1.637e-02 -4.425e-03 -7.374e-03
282 1 -1.777e+00 -1.778e+00 -4.175e-04 -1.119e-02 -9.504e-03 1.300e-03
ITEM: TIMESTEP
0
ITEM: NUMBER OF ATOMS
47
ITEM: BOX BOUNDS xy xz yz pp pp pp
                     0.00000000000000e+00 1.06200000000000e+01 0.00000000000000e+00
0.00000000000000e+00	1.06200000000000e+01	0.00000000000000e+00
0.00000000000000e+00	1.06200000000000e+01	0.00000000000000e+00
ITEM: ATOMS id type x y z DisplacementX DisplacementY DisplacementZ
283 1 8.880e-04 3.521e+00 3.520e+00 -2.015e-03 -1.457e-02 -7.658e-03
284 1 1.772e+00 -3.550e+00 1.759e+00 -1.616e-03 -7.273e-03 -1.518e-02
285 1 -1.773e+00 1.758e+00 -3.550e+00 5.083e-03 -1.103e-02 -9.814e-03
286 1 1.772e+00 1.761e+00 -3.549e+00 8.342e-04 -1.050e-02 -6.965e-03
287 1 -1.772e+00 -3.549e+00 1.762e+00 4.876e-03 -9.956e-03 -1.353e-02
288 1 3.539e+00 -1.125e-02 3.528e+00 2.032e-03 -8.892e-03 -1.409e-02
289 1 -3.538e+00 3.528e+00 -7.499e-03 2.489e-03 -9.267e-03 -9.239e-03
290 1 3.536e+00 3.528e+00 -8.216e-03 -2.651e-03 -7.850e-03 -1.352e-02
291 1 -3.538e+00 -8.242e-03 3.530e+00 1.725e-03 -8.597e-03 -1.528e-02
292 1 -1.771e+00 -1.780e+00 -3.549e+00 1.924e-03 -9.169e-03 -1.339e-02
293 1 1.769e+00 -1.779e+00 -3.549e+00 3.279e-03 -9.081e-03 -9.941e-03
294 1 -1.768e+00 -3.549e+00 -1.779e+00 3.198e-03 -9.316e-03 -1.308e-02
295 1 1.770e+00 -3.549e+00 -1.776e+00 -4.481e-03 -7.035e-03 -1.463e-02
296 1 -3.538e+00 -1.779e+00 -1.779e+00 3.047e-03 -1.006e-02 -9.983e-03
297 1 3.542e+00 -1.779e+00 -1.778e+00 -3.756e-05 -8.743e-03 -1.293e-02
298 1 -1.760e+00 3.522e+00 1.761e+00 1.459e-02 -1.415e-02 -8.162e-03
299 1 1.760e+00 3.521e+00 1.760e+00 7.282e-03 -1.764e-02 -1.126e-02
300 1 -1.759e+00 1.761e+00 3.522e+00 1.459e-02 -1.415e-02 -8.162e-03
301 1 1.762e+00 1.760e+00 3.521e+00 5.474e-03 -2.044e-02 -5.447e-03
302 1 3.537e+00 -1.775e+00 1.762e+00 -1.196e-03 -8.120e-03 -1.402e-02
303 1 -3.538e+00 1.760e+00 -1.776e+00 2.564e-03 -9.017e-03 -1.386e-02
304 1 -3.537e+00 -1.777e+00 1.761e+00 2.139e-03 -8.992e-03 -1.148e-02
305 1 3.537e+00 1.763e+00 -1.777e+00 3.257e-03 -9.258e-03 -1.443e-02
306 1 1.766e+00 -1.778e+00 3.528e+00 2.718e-03 -9.136e-03 -1.309e-02
307 1 -1.771e+00 3.529e+00 -1.776e+00 8.135e-04 -8.313e-03 -1.397e-02
308 1 1.768e+00 3.528e+00 -1.776e+00 4.500e-03 -9.837e-03 -1.304e-02
309 1 -1.768e+00 -1.777e+00 3.527e+00 3.789e-03 -9.488e-03 -1.413e-02
310 1 -1.678e-03 6.467e-04 3.521e+00 2.103e-03 -1.405e-02 4.294e-03
311 1 -4.399e-04 3.521e+00 -4.474e-04 1.459e-02 -1.415e-02 -8.162e-03
312 1 -3.548e+00 1.760e+00 1.761e+00 1.139e-02 -1.279e-02 -9.852e-03
313 1 3.550e+00 1.760e+00 1.761e+00 -6.935e-03 -5.318e-03 -1.610e-02
314 1 3.537e+00 -8.509e-03 -7.344e-03 7.870e-03 -1.125e-02 -1.188e-02
315 1 -3.538e+00 -6.084e-03 -6.890e-03 -7.573e-03 -5.214e-03 -1.537e-02
316 1 -4.560e-04 -3.547e+00 -1.017e-02 1.198e-03 -1.021e-02 -8.826e-03
317 1 -5.334e-04 -1.215e-02 -3.549e+00 -3.938e-04 -7.683e-03 -1.645e-02
318 1 2.021e-04 4.027e-04 9.726e-04 1.776e-03 1.735e+00 1.735e+00
319 1 1.759e+00 -1.127e-03 1.759e+00 1.459e-02 -1.415e-02 -8.162e-03
320 1 -1.762e+00 1.759e+00 8.616e-04 1.459e-02 -1.415e-02 -8.162e-03
321 1 1.762e+00 1.760e+00 -7.773e-04 1.459e-02 -1.415e-02 -8.162e-03
322 1 -1.762e+00 -1.211e-03 1.759e+00 1.459e-02 -1.415e-02 -8.162e-03
323 1 1.762e-04 -1.789e+00 1.760e+00 -3.202e-03 -6.472e-03 -1.800e-02
324 1 -1.469e-03 1.761e+00 -1.787e+00 1.181e-03 -1.404e-02 5.213e-03
325 1 1.769e+00 -1.776e+00 -6.026e-03 -7.640e-03 -5.197e-03 -1.340e-02
326 1 -1.767e+00 -7.613e-03 -1.777e+00 7.476e-03 -1.108e-02 -1.210e-02
327 1 -1.770e+00 -1.775e+00 -6.563e-03 2.712e-03 -9.023e-03 -1.473e-02
328 1 1.766e+00 -5.985e-03 -1.776e+00 -6.233e-03 -8.882e-03 -6.067e-03
329 1 3.991e-04 -1.776e+00 -1.774e+00 -1.452e-03 -7.946e-03 -1.020e-02
ITEM: TIMESTEP
0
ITEM: NUMBER OF ATOMS
47
ITEM: BOX BOUNDS xy xz yz pp pp pp
                     0.00000000000000e+00 1.06200000000000e+01 0.00000000000000e+00
0.00000000000000e+00	1.06200000000000e+01	0.00000000000000e+00
0.00000000000000e+00	1.06200000000000e+01	0.00000000000000e+00
ITEM: ATOMS id type x y z DisplacementX DisplacementY DisplacementZ
330 1 -3.522e+00 -5.526e-04 3.521e+00 1.459e-02 -1.415e-02 -8.162e-03
331 1 3.549e+00 1.771e+00 1.760e+00 5.817e-03 -1.036e-02 -1.301e-02
332 1 -1.762e+00 -1.772e+00 -3.549e+00 7.434e-03 -6.481e-03 -7.435e-03
333 1 -1.760e+00 1.772e+00 -3.549e+00 8.918e-03 -1.170e-02 -1.130e-02
334 1 3.551e+00 -1.772e+00 1.761e+00 6.124e-03 -6.987e-03 -9.254e-03
335 1 7.444e-03 3.538e+00 3.530e+00 7.041e-03 -9.151e-03 -1.056e-02
336 1 -3.530e+00 -3.538e+00 -5.937e-03 8.476e-03 -1.152e-02 -1.149e-02
337 1 -3.529e+00 3.537e+00 -7.670e-03 8.345e-03 -1.145e-02 -1.162e-02
338 1 6.777e-03 -3.539e+00 3.531e+00 7.854e-03 -5.223e-03 -5.730e-03
339 1 1.777e+00 -1.771e+00 -3.548e+00 7.602e-03 -7.910e-03 -8.730e-03
340 1 1.778e+00 1.770e+00 -3.551e+00 8.686e-03 -7.742e-03 -7.480e-03
341 1 3.549e+00 -1.769e+00 -1.779e+00 8.978e-03 -1.173e-02 -1.127e-02
342 1 3.549e+00 1.769e+00 -1.778e+00 5.856e-03 -5.896e-03 -8.404e-03
343 1 1.780e+00 -3.539e+00 -1.776e+00 9.082e-03 -7.085e-03 -6.414e-03
344 1 1.780e+00 3.537e+00 -1.779e+00 9.715e-03 -1.111e-02 -9.571e-03
345 1 -3.522e+00 -1.762e+00 1.760e+00 1.459e-02 -1.415e-02 -8.162e-03
346 1 -3.522e+00 1.761e+00 1.762e+00 1.459e-02 -1.415e-02 -8.162e-03
347 1 -1.761e+00 -1.760e+00 3.523e+00 1.459e-02 -1.415e-02 -8.162e-03
348 1 -1.762e+00 1.763e+00 3.520e+00 -2.119e-03 -4.040e-03 2.911e-03
349 1 1.775e+00 3.538e+00 1.761e+00 7.131e-03 -6.244e-03 -7.493e-03
350 1 -1.761e+00 -3.537e+00 -1.776e+00 8.096e-03 -9.246e-03 -9.605e-03
351 1 1.774e+00 -3.535e+00 1.763e+00 6.387e-03 -4.696e-03 -6.650e-03
352 1 -1.760e+00 3.535e+00 -1.778e+00 7.898e-03 -6.449e-03 -6.941e-03
353 1 1.777e+00 1.768e+00 3.530e+00 9.561e-03 -8.648e-03 -7.537e-03
354 1 -3.528e+00 -1.767e+00 -1.777e+00 6.998e-03 -7.529e-03 -8.941e-03
355 1 -3.528e+00 1.769e+00 -1.778e+00 4.867e-03 -4.623e-03 -8.086e-03
356 1 1.778e+00 -1.768e+00 3.530e+00 8.230e-03 -1.141e-02 -1.167e-02
357 1 5.795e-04 3.145e-03 3.520e+00 1.434e-02 -1.070e-02 1.443e-02
358 1 -3.522e+00 1.077e-03 1.245e-03 1.459e-02 -1.415e-02 -8.162e-03
359 1 -1.761e+00 -3.550e+00 1.760e+00 -8.255e-04 2.079e-03 -6.888e-03
360 1 -1.762e+00 3.549e+00 1.760e+00 1.132e-02 -1.273e-02 -9.973e-03
361 1 6.562e-03 3.538e+00 -8.210e-03 4.284e-03 -7.813e-04 -4.735e-03
362 1 7.597e-03 -3.535e+00 -6.808e-03 1.023e-02 -1.227e-02 -1.057e-02
363 1 3.549e+00 -2.545e-03 -1.165e-02 1.259e-02 -9.390e-03 -5.285e-03
364 1 1.217e-02 2.482e-05 -3.550e+00 3.638e-03 -9.422e-03 -1.422e-02
365 1 -6.761e-05 -5.697e-04 8.144e-04 -1.733e+00 -5.078e-04 1.735e+00
366 1 5.821e-04 1.762e+00 1.761e+00 8.429e-03 -1.578e-02 -9.460e-03
367 1 -1.761e+00 -1.759e+00 -2.285e-04 3.194e-03 -1.684e-02 -1.023e-02
368 1 -1.760e+00 1.760e+00 2.011e-03 1.459e-02 -1.415e-02 -8.162e-03
369 1 6.597e-04 -1.760e+00 1.760e+00 1.459e-02 -1.415e-02 -8.162e-03
370 1 1.788e+00 1.613e-03 1.762e+00 -3.130e-03 -6.677e-03 -1.508e-02
371 1 -1.762e+00 3.791e-04 -1.788e+00 1.435e-02 -1.472e-03 4.568e-03
372 1 1.778e+00 1.768e+00 -7.996e-03 6.511e-03 -1.066e-02 -1.263e-02
373 1 7.928e-03 -1.768e+00 -1.778e+00 1.033e-02 -3.819e-03 -1.434e-03
374 1 1.776e+00 -1.769e+00 -7.068e-03 5.249e-03 -9.594e-03 -1.046e-02
375 1 8.983e-03 1.768e+00 -1.775e+00 1.386e-02 -1.057e-02 -5.236e-03
376 1 1.778e+00 5.266e-04 -1.777e+00 6.708e-03 -9.540e-03 -8.476e-03
ITEM: TIMESTEP
0
ITEM: NUMBER OF ATOMS
47
ITEM: BOX BOUNDS xy xz yz pp pp pp
                     0.00000000000000e+00 1.06200000000000e+01 0.00000000000000e+00
0.00000000000000e+00	1.06200000000000e+01	0.00000000000000e+00
0.00000000000000e+00	1.06200000000000e+01	0.00000000000000e+00
ITEM: ATOMS id type x y z DisplacementX DisplacementY DisplacementZ
377 1 -3.521e+00 3.522e+00 2.963e-04 1.459e-02 -1.415e-02 -8.162e-03
378 1 3.548e+00 1.760e+00 -1.773e+00 1.263e-02 -7.071e-03 2.369e-04
379 1 -1.760e+00 -3.551e+00 1.771e+00 1.219e-02 -1.156e-02 -3.667e-03
380 1 -1.761e+00 -3.548e+00 -1.771e+00 1.447e-02 -7.936e-03 -1.924e-03
381 1 3.549e+00 1.762e+00 1.771e+00 1.274e-02 -1.236e-02 -4.848e-03
382 1 7.524e-03 3.529e+00 -3.537e+00 1.454e-02 -1.150e-02 -5.501e-03
383 1 -3.529e+00 -8.845e-03 3.537e+00 7.264e-03 -1.409e-02 -8.537e-04
384 1 -3.528e+00 -7.522e-03 -3.536e+00 1.225e-02 -1.413e-02 -5.823e-03
385 1 6.297e-03 3.528e+00 3.537e+00 1.355e-02 -1.071e-02 -3.748e-03
386 1 1.780e+00 -3.549e+00 1.771e+00 8.131e-03 -1.410e-02 -1.719e-03
387 1 1.779e+00 -3.549e+00 -1.769e+00 1.302e-02 -9.501e-03 -2.803e-03
388 1 3.548e+00 -1.780e+00 1.769e+00 7.978e-03 -3.203e-03 -3.540e-03