ITEM: TIMESTEP
0
ITEM: NUMBER OF ATOMS
99
ITEM: BOX BOUNDS xy xz yz pp pp pp
                     -5.00000000000000e-01 5.00000000000000e-01 0.00000000000000e+00
-5.00000000000000e-01	5.00000000000000e-01	0.00000000000000e+00
-5.00000000000000e-01	5.00000000000000e-01	0.00000000000000e+00
ITEM: ATOMS id type x y z DisplacementX DisplacementY DisplacementZ
1 1 3.000e-01 4.000e-01 0.000e+00 -1.112e-03 -1.054e-03 -5.545e-04
2 1 5.000e-01 2.000e-01 0.000e+00 4.966e-04 -7.556e-04 1.316e-03
3 1 1.000e-01 4.000e-01 0.000e+00 -1.913e-03 7.901e-04 1.362e-04
4 1 2.000e-01 -4.000e-01 0.000e+00 -9.724e-04 2.193e-03 -4.847e-04
5 1 4.000e-01 5.000e-01 0.000e+00 1.239e-03 2.604e-03 -7.327e-04
6 1 5.000e-01 4.000e-01 0.000e+00 7.753e-04 -1.352e-03 6.920e-04
7 1 -1.000e-01 1.000e-01 0.000e+00 8.402e-04 1.792e-03 1.240e-03
8 1 4.000e-01 -2.000e-01 0.000e+00 1.266e-04 1.471e-04 -2.700e-03
9 1 0.000e+00 0.000e+00 0.000e+00 1.933e-03 -9.943e-02 -1.433e-03
10 1 0.000e+00 2.000e-01 0.000e+00 -4.666e-04 7.086e-04 -5.201e-05
11 1 3.000e-01 0.000e+00 0.000e+00 -3.833e-04 3.857e-04 8.465e-04
12 1 3.000e-01 -4.000e-01 0.000e+00 -2.829e-04 -5.995e-05 6.075e-04
13 1 -3.000e-01 -4.000e-01 0.000e+00 -5.507e-04 -3.019e-04 6.559e-04
14 1 4.000e-01 -1.000e-01 0.000e+00 -1.616e-03 -1.227e-04 -5.437e-04
15 1 -2.000e-01 1.000e-01 0.000e+00 1.418e-03 -1.656e-03 -1.483e-03
16 1 4.000e-01 -4.000e-01 0.000e+00 -1.463e-03 5.269e-04 3.419e-04
17 1 3.000e-01 -2.000e-01 0.000e+00 2.834e-04 -8.286e-04 -3.950e-05
18 1 5.000e-01 -3.000e-01 0.000e+00 7.193e-04 7.134e-04 -3.815e-04
19 1 -2.000e-01 4.000e-01 0.000e+00 4.920e-04 3.015e-04 8.668e-04
20 1 -2.000e-01 0.000e+00 0.000e+00 -3.029e-04 5.016e-04 4.547e-04
21 1 -1.000e-01 3.000e-01 0.000e+00 5.309e-04 1.152e-03 -6.369e-04
22 1 5.000e-01 -1.000e-01 0.000e+00 -1.290e-03 2.406e-03 -6.595e-04
23 1 5.000e-01 5.000e-01 0.000e+00 -1.417e-03 1.669e-03 2.992e-04
24 1 4.000e-01 3.000e-01 0.000e+00 1.598e-03 5.729e-04 -1.633e-03
25 1 1.000e-01 3.000e-01 0.000e+00 1.168e-03 3.188e-04 -9.205e-04
26 1 3.000e-01 3.000e-01 0.000e+00 1.129e-03 4.093e-04 -7.600e-04
27 1 -3.000e-01 -3.000e-01 0.000e+00 1.295e-03 -1.251e-03 1.669e-03
28 1 0.000e+00 5.000e-01 0.000e+00 1.277e-04 -5.537e-04 9.095e-04
29 1 -2.000e-01 -1.000e-01 0.000e+00 -1.038e-03 -4.633e-04 -5.215e-07
30 1 -4.000e-01 5.000e-01 0.000e+00 -2.713e-03 -1.519e-03 2.134e-03
31 1 3.000e-01 1.000e-01 0.000e+00 1.415e-03 4.656e-04 -1.713e-04
32 1 2.000e-01 -2.000e-01 0.000e+00 1.733e-03 5.673e-05 1.424e-03
33 1 2.000e-01 0.000e+00 0.000e+00 1.785e-03 -1.867e-04 4.111e-04
34 1 -4.000e-01 -3.000e-01 0.000e+00 5.749e-04 -6.168e-04 -1.846e-03
35 1 -1.000e-01 4.000e-01 0.000e+00 -5.337e-04 3.569e-04 4.766e-04
36 1 -3.000e-01 -2.000e-01 0.000e+00 6.719e-04 7.462e-04 -2.794e-03
37 1 -1.000e-01 -2.000e-01 0.000e+00 4.013e-04 1.717e-03 6.304e-04
38 1 4.000e-01 1.000e-01 0.000e+00 6.343e-04 -1.247e-03 -8.038e-04
39 1 0.000e+00 1.000e-01 0.000e+00 2.189e-03 3.484e-04 -2.728e-04
40 1 4.000e-01 4.000e-01 0.000e+00 -1.491e-03 -7.568e-04 -5.586e-04
41 1 4.000e-01 -3.000e-01 0.000e+00 4.367e-04 -5.207e-04 -1.115e-03
42 1 2.000e-01 2.000e-01 0.000e+00 6.944e-04 1.832e-04 4.225e-04
43 1 -3.000e-01 1.000e-01 0.000e+00 1.093e-03 -2.399e-03 1.633e-03
44 1 2.000e-01 -3.000e-01 0.000e+00 -3.444e-04 -7.508e-04 -1.171e-04
45 1 3.000e-01 5.000e-01 0.000e+00 7.836e-04 2.772e-04 -1.570e-03
46 1 -2.000e-01 5.000e-01 0.000e+00 2.008e-03 -5.451e-04 4.014e-04
47 1 2.000e-01 3.000e-01 0.000e+00 6.463e-04 -8.586e-04 -2.372e-04
48 1 -2.000e-01 3.000e-01 0.000e+00 -1.476e-03 -1.044e-04 7.647e-04
49 1 1.000e-01 0.000e+00 0.000e+00 -2.894e-04 3.434e-04 1.272e-03
50 1 5.000e-01 -4.000e-01 0.000e+00 -5.687e-04 -1.358e-03 6.473e-05
51 1 3.000e-01 -1.000e-01 0.000e+00 1.261e-05 8.896e-04 6.660e-04
52 1 -2.000e-01 2.000e-01 0.000e+00 -2.306e-03 1.387e-03 1.266e-03
53 1 -1.000e-01 5.000e-01 0.000e+00 3.130e-04 7.508e-04 1.092e-03
54 1 1.000e-01 -4.000e-01 0.000e+00 2.231e-04 2.374e-04 -4.359e-04
55 1 1.000e-01 2.000e-01 0.000e+00 1.401e-04 3.641e-04 -1.258e-03
56 1 0.000e+00 -2.000e-01 0.000e+00 2.287e-03 1.427e-03 6.930e-03
57 1 -1.000e-01 -1.000e-01 0.000e+00 2.144e-03 3.628e-03 -3.991e-03
58 1 3.000e-01 -3.000e-01 0.000e+00 7.489e-05 -2.135e-04 8.277e-04
59 1 0.000e+00 -4.000e-01 0.000e+00 -9.115e-04 1.715e-03 1.454e-03
60 1 5.000e-01 1.000e-01 0.000e+00 1.067e-03 -7.223e-04 -3.708e-04
61 1 2.000e-01 -1.000e-01 0.000e+00 1.023e-03 -1.021e-03 5.701e-04
62 1 -4.000e-01 4.000e-01 0.000e+00 1.275e-03 -3.025e-04 -7.571e-04
63 1 -4.000e-01 -1.000e-01 0.000e+00 -1.474e-03 -5.923e-04 -3.583e-04
64 1 0.000e+00 3.000e-01 0.000e+00 8.245e-05 9.609e-04 1.915e-03
65 1 -1.000e-01 0.000e+00 0.000e+00 8.351e-04 4.363e-03 -1.958e-03
66 1 1.000e-01 -3.000e-01 0.000e+00 -1.116e-03 6.227e-04 1.170e-05
67 1 1.000e-01 1.000e-01 0.000e+00 2.754e-04 3.329e-05 2.408e-04
68 1 1.000e-01 -2.000e-01 0.000e+00 -1.052e-03 1.675e-05 7.615e-03
69 1 -3.000e-01 2.000e-01 0.000e+00 9.056e-04 -1.473e-03 -4.006e-04
70 1 1.000e-01 -1.000e-01 0.000e+00 1.376e-03 -1.049e-03 3.065e-03
71 1 -3.000e-01 0.000e+00 0.000e+00 1.112e-03 1.213e-03 -7.903e-04
72 1 1.000e-01 5.000e-01 0.000e+00 3.226e-04 -1.431e-03 2.360e-03
73 1 -4.000e-01 -2.000e-01 0.000e+00 -1.722e-04 1.692e-04 -1.027e-03
74 1 -2.000e-01 -2.000e-01 0.000e+00 1.195e-03 -2.756e-04 -5.859e-04
75 1 -3.000e-01 4.000e-01 0.000e+00 -3.378e-04 -1.642e-03 3.966e-04
76 1 -1.000e-01 -4.000e-01 0.000e+00 -1.513e-04 -7.343e-04 1.090e-03
77 1 -3.000e-01 3.000e-01 0.000e+00 1.388e-03 -1.255e-03 -1.462e-05
78 1 -4.000e-01 1.000e-01 0.000e+00 5.135e-04 8.872e-04 9.634e-04
79 1 -1.000e-01 -3.000e-01 0.000e+00 4.129e-04 -1.118e-03 1.895e-04
80 1 -1.000e-01 2.000e-01 0.000e+00 7.508e-04 -1.133e-03 -1.039e-03
81 1 4.000e-01 0.000e+00 0.000e+00 -1.657e-03 -1.026e-03 8.219e-05
82 1 -2.000e-01 -3.000e-01 0.000e+00 1.553e-03 -1.078e-03 -1.568e-04
83 1 -4.000e-01 -4.000e-01 0.000e+00 1.926e-04 3.243e-04 5.692e-04
84 1 2.000e-01 4.000e-01 0.000e+00 -5.935e-04 -1.443e-03 -8.449e-06
85 1 3.000e-01 2.000e-01 0.000e+00 1.273e-03 -4.728e-04 -1.765e-04
86 1 -3.000e-01 -1.000e-01 0.000e+00 1.318e-04 -1.455e-03 1.241e-03
87 1 4.000e-01 2.000e-01 0.000e+00 -2.307e-03 8.085e-05 -6.450e-04
88 1 2.000e-01 5.000e-01 0.000e+00 -5.627e-04 -9.909e-04 -5.869e-04
89 1 5.000e-01 3.000e-01 0.000e+00 -3.723e-05 9.485e-06 -3.547e-05
90 1 0.000e+00 -3.000e-01 0.000e+00 9.683e-04 5.628e-04 1.256e-03
91 1 -4.000e-01 3.000e-01 0.000e+00 6.419e-04 9.969e-06 -4.614e-05
92 1 5.000e-01 -2.000e-01 0.000e+00 8.791e-04 2.339e-03 -8.848e-04
93 1 0.000e+00 4.000e-01 0.000e+00 3.901e-04 -1.502e-03 -2.347e-04
94 1 -3.000e-01 5.000e-01 0.000e+00 1.226e-03 9.688e-04 -2.249e-03
95 1 -2.000e-01 -4.000e-01 0.000e+00 -5.922e-04 2.430e-04 1.679e-03
96 1 -4.000e-01 2.000e-01 0.000e+00 -3.874e-04 2.321e-03 -2.252e-03
97 1 2.000e-01 1.000e-01 0.000e+00 1.448e-04 -1.083e-04 -8.618e-05
98 1 5.000e-01 0.000e+00 0.000e+00 -2.111e-04 8.902e-04 -1.437e-03
99 1 -4.000e-01 0.000e+00 0.000e+00 6.727e-04 8.590e-04 -1.827e-03
