ITEM: TIMESTEP
0
ITEM: NUMBER OF ATOMS
8
ITEM: BOX BOUNDS xy xz yz pp pp pp
                     -5.00000000000000e-01 5.00000000000000e-01 0.00000000000000e+00
-5.00000000000000e-01	5.00000000000000e-01	0.00000000000000e+00
-5.00000000000000e-01	5.00000000000000e-01	0.00000000000000e+00
ITEM: ATOMS id type x y z DisplacementX DisplacementY DisplacementZ
1 1 0.000e+00 0.000e+00 0.000e+00 -1.988e-01 -7.185e-03 1.596e-03
2 1 2.000e-01 -2.000e-01 0.000e+00 1.093e-03 2.632e-03 -3.703e-03
3 1 -2.000e-01 -2.000e-01 0.000e+00 6.038e-03 -1.078e-02 -1.870e-03
4 1 -2.000e-01 2.000e-01 0.000e+00 1.115e-02 2.466e-03 1.680e-02
5 1 0.000e+00 -2.000e-01 0.000e+00 -4.140e-03 2.337e-03 1.229e-02
6 1 2.000e-01 2.000e-01 0.000e+00 1.025e-02 1.253e-05 -1.772e-02
7 1 2.000e-01 0.000e+00 0.000e+00 8.700e-03 -2.457e-03 1.693e-03
8 1 0.000e+00 2.000e-01 0.000e+00 5.898e-03 -4.845e-03 -2.824e-03
ITEM: TIMESTEP
0
ITEM: NUMBER OF ATOMS
8
ITEM: BOX BOUNDS xy xz yz pp pp pp
                     -5.00000000000000e-01 5.00000000000000e-01 0.00000000000000e+00
-5.00000000000000e-01	5.00000000000000e-01	0.00000000000000e+00
-5.00000000000000e-01	5.00000000000000e-01	0.00000000000000e+00
ITEM: ATOMS id type x y z DisplacementX DisplacementY DisplacementZ
9 1 -2.000e-01 2.000e-01 0.000e+00 1.785e-02 9.581e-03 -2.729e-04
10 1 0.000e+00 0.000e+00 0.000e+00 2.083e-01 -1.002e-03 -3.220e-03
11 1 -2.000e-01 0.000e+00 0.000e+00 -7.765e-03 -1.985e-02 1.060e-02
12 1 2.000e-01 -2.000e-01 0.000e+00 -2.542e-02 1.050e-02 -3.980e-03
13 1 2.000e-01 2.000e-01 0.000e+00 -1.673e-02 1.042e-03 -2.588e-03
14 1 0.000e+00 -2.000e-01 0.000e+00 -1.906e-02 -7.768e-03 6.957e-03
15 1 -2.000e-01 -2.000e-01 0.000e+00 -5.363e-03 7.429e-03 1.138e-02
16 1 0.000e+00 2.000e-01 0.000e+00 -1.711e-03 1.443e-03 -8.534e-03
