ITEM: TIMESTEP
0
ITEM: NUMBER OF ATOMS
32
ITEM: BOX BOUNDS xy xz yz pp pp pp
                     -5.00000000000000e-01 5.00000000000000e-01 0.00000000000000e+00
-5.00000000000000e-01	5.00000000000000e-01	0.00000000000000e+00
-5.00000000000000e-01	5.00000000000000e-01	0.00000000000000e+00
ITEM: ATOMS id type x y z DisplacementX DisplacementY DisplacementZ
1 1 0.000e+00 -2.000e-01 0.000e+00 -2.796e-03 -2.382e-03 -3.738e-03
2 1 2.000e-01 2.000e-01 2.000e-01 4.498e-04 -8.600e-03 6.465e-03
3 1 2.000e-01 2.000e-01 0.000e+00 1.051e-03 -1.472e-03 4.030e-04
4 1 -2.000e-01 -2.000e-01 2.000e-01 -8.647e-04 4.923e-04 9.641e-04
5 1 2.000e-01 0.000e+00 2.000e-01 -1.441e-03 -5.937e-05 -1.732e-03
6 1 -4.000e-01 0.000e+00 0.000e+00 -8.371e-04 -5.077e-03 3.160e-03
7 1 0.000e+00 0.000e+00 0.000e+00 -5.556e-03 -1.304e-02 -1.873e-01
8 1 -2.000e-01 0.000e+00 2.000e-01 -7.063e-04 -6.999e-03 2.818e-03
9 1 2.000e-01 0.000e+00 -2.000e-01 -3.750e-03 -1.844e-03 -2.891e-03
10 1 -2.000e-01 0.000e+00 0.000e+00 -1.039e-05 2.103e-04 -1.954e-03
11 1 -2.000e-01 2.000e-01 0.000e+00 1.986e-04 7.691e-04 9.868e-04
12 1 2.000e-01 0.000e+00 0.000e+00 -7.802e-04 -3.022e-03 1.792e-03
13 1 0.000e+00 2.000e-01 -2.000e-01 -3.936e-03 -1.739e-03 -2.727e-03
14 1 0.000e+00 2.000e-01 0.000e+00 -1.681e-03 1.044e-03 1.706e-03
15 1 0.000e+00 0.000e+00 2.000e-01 -2.801e-03 -2.379e-03 -3.733e-03
16 1 0.000e+00 -2.000e-01 -2.000e-01 7.581e-04 -1.633e-04 -1.338e-03
17 1 0.000e+00 4.000e-01 0.000e+00 -9.191e-04 6.747e-04 -1.501e-05
18 1 0.000e+00 0.000e+00 4.000e-01 5.726e-04 -4.244e-03 1.765e-03
19 1 -2.000e-01 -2.000e-01 0.000e+00 -3.691e-03 -1.877e-03 -2.944e-03
20 1 0.000e+00 2.000e-01 2.000e-01 -9.082e-04 2.655e-04 -7.676e-04
21 1 0.000e+00 -2.000e-01 2.000e-01 -1.498e-03 -3.245e-04 8.308e-04
22 1 -2.000e-01 2.000e-01 -2.000e-01 -4.155e-04 -3.359e-04 -1.048e-03
23 1 2.000e-01 -2.000e-01 0.000e+00 -5.507e-03 -8.538e-04 -1.333e-03
24 1 -2.000e-01 2.000e-01 2.000e-01 -3.478e-03 -1.998e-03 -3.133e-03
25 1 2.000e-01 -2.000e-01 2.000e-01 -4.529e-04 -2.271e-03 1.287e-03
26 1 0.000e+00 0.000e+00 -4.000e-01 1.307e-03 -1.309e-03 -3.352e-04
27 1 4.000e-01 0.000e+00 0.000e+00 -1.663e-04 -4.219e-03 1.422e-03
28 1 -2.000e-01 0.000e+00 -2.000e-01 -4.440e-03 -1.455e-03 -2.279e-03
29 1 -2.000e-01 -2.000e-01 -2.000e-01 -2.828e-03 -2.364e-03 -3.710e-03
30 1 0.000e+00 -4.000e-01 0.000e+00 4.671e-04 -3.408e-03 2.866e-03
31 1 2.000e-01 2.000e-01 -2.000e-01 -2.758e-03 -2.403e-03 -3.772e-03
32 1 2.000e-01 -2.000e-01 -2.000e-01 2.217e-04 1.849e-03 -5.861e-04
ITEM: TIMESTEP
0
ITEM: NUMBER OF ATOMS
32
ITEM: BOX BOUNDS xy xz yz pp pp pp
                     -5.00000000000000e-01 5.00000000000000e-01 0.00000000000000e+00
-5.00000000000000e-01	5.00000000000000e-01	0.00000000000000e+00
-5.00000000000000e-01	5.00000000000000e-01	0.00000000000000e+00
ITEM: ATOMS id type x y z DisplacementX DisplacementY DisplacementZ
33 1 -2.000e-01 -2.000e-01 2.000e-01 -4.296e-03 -1.536e-03 -2.407e-03
34 1 0.000e+00 2.000e-01 2.000e-01 1.276e-05 -1.984e-03 1.724e-04
35 1 0.000e+00 0.000e+00 4.000e-01 -2.778e-04 -1.165e-05 5.548e-05
36 1 2.000e-01 -2.000e-01 0.000e+00 8.584e-04 -2.421e-03 7.167e-04
37 1 -2.000e-01 0.000e+00 2.000e-01 5.349e-04 -1.625e-03 3.469e-05
38 1 0.000e+00 0.000e+00 0.000e+00 -9.956e-02 5.216e-02 8.211e-02
39 1 4.000e-01 0.000e+00 0.000e+00 -5.003e-03 -1.138e-03 -1.780e-03
40 1 0.000e+00 0.000e+00 2.000e-01 -3.526e-03 -1.970e-03 -3.090e-03
41 1 0.000e+00 0.000e+00 -2.000e-01 -3.547e-03 -1.959e-03 -3.072e-03
42 1 2.000e-01 2.000e-01 -2.000e-01 -3.390e-03 -2.047e-03 -3.211e-03
43 1 2.000e-01 0.000e+00 0.000e+00 4.384e-04 -6.435e-04 1.568e-03
44 1 -2.000e-01 2.000e-01 0.000e+00 -4.111e-03 -1.641e-03 -2.571e-03
45 1 -2.000e-01 2.000e-01 2.000e-01 -1.610e-04 2.269e-03 2.074e-03
46 1 0.000e+00 4.000e-01 0.000e+00 -6.105e-05 3.704e-04 2.045e-04
47 1 2.000e-01 -2.000e-01 2.000e-01 8.433e-04 -1.237e-05 2.306e-04
48 1 -2.000e-01 -2.000e-01 0.000e+00 5.763e-04 1.750e-03 -2.324e-04
49 1 2.000e-01 2.000e-01 2.000e-01 -3.721e-04 -2.176e-03 -3.854e-04
50 1 -2.000e-01 -2.000e-01 -2.000e-01 -3.237e-03 -2.133e-03 -3.346e-03
51 1 0.000e+00 -2.000e-01 2.000e-01 -3.354e-03 -2.068e-03 -3.243e-03
52 1 0.000e+00 2.000e-01 -2.000e-01 -5.149e-04 -1.816e-03 1.471e-03
53 1 2.000e-01 0.000e+00 -2.000e-01 -6.821e-04 -1.574e-03 -1.127e-03
54 1 -2.000e-01 0.000e+00 -2.000e-01 7.742e-04 -6.987e-04 -5.749e-04
55 1 0.000e+00 0.000e+00 -4.000e-01 -2.637e-03 -2.471e-03 -3.879e-03
56 1 2.000e-01 0.000e+00 2.000e-01 -2.534e-04 -4.850e-04 9.329e-04
57 1 -4.000e-01 0.000e+00 0.000e+00 -7.907e-04 -7.173e-04 5.651e-05
58 1 2.000e-01 2.000e-01 0.000e+00 -4.052e-03 -1.674e-03 -2.623e-03
59 1 0.000e+00 -4.000e-01 0.000e+00 -3.008e-04 -2.833e-03 2.219e-03
60 1 0.000e+00 -2.000e-01 -2.000e-01 -2.881e-04 -4.898e-03 7.004e-04
61 1 -2.000e-01 2.000e-01 -2.000e-01 1.750e-03 -4.969e-04 1.305e-03
62 1 2.000e-01 -2.000e-01 -2.000e-01 -3.493e-04 -3.215e-04 -7.381e-04
63 1 0.000e+00 2.000e-01 0.000e+00 -2.119e-04 -1.101e-03 1.219e-04
64 1 0.000e+00 -2.000e-01 0.000e+00 -2.158e-04 -2.217e-04 4.247e-04
ITEM: TIMESTEP
0
ITEM: NUMBER OF ATOMS
32
ITEM: BOX BOUNDS xy xz yz pp pp pp
                     -5.00000000000000e-01 5.00000000000000e-01 0.00000000000000e+00
-5.00000000000000e-01	5.00000000000000e-01	0.00000000000000e+00
-5.00000000000000e-01	5.00000000000000e-01	0.00000000000000e+00
ITEM: ATOMS id type x y z DisplacementX DisplacementY DisplacementZ
65 1 0.000e+00 4.000e-01 0.000e+00 -3.186e-03 -2.162e-03 -3.393e-03
66 1 -2.000e-01 2.000e-01 2.000e-01 -7.271e-04 1.521e-03 1.295e-03
67 1 2.000e-01 2.000e-01 2.000e-01 -4.512e-03 -1.415e-03 -2.216e-03
68 1 2.000e-01 0.000e+00 2.000e-01 1.205e-03 -1.663e-03 2.501e-03
69 1 -2.000e-01 2.000e-01 -2.000e-01 8.069e-04 4.592e-04 -1.569e-03
70 1 0.000e+00 -2.000e-01 2.000e-01 1.071e-03 -2.726e-03 2.307e-03
71 1 2.000e-01 -2.000e-01 0.000e+00 -3.449e-03 -2.014e-03 -3.159e-03
72 1 -2.000e-01 -2.000e-01 2.000e-01 -1.044e-03 1.984e-03 1.358e-03
73 1 -2.000e-01 0.000e+00 2.000e-01 -3.098e-03 -2.211e-03 -3.470e-03
74 1 2.000e-01 -2.000e-01 2.000e-01 1.926e-04 3.294e-04 1.760e-03
75 1 2.000e-01 2.000e-01 -2.000e-01 -4.480e-03 -1.433e-03 -2.244e-03
76 1 2.000e-01 -2.000e-01 -2.000e-01 -3.885e-03 -1.768e-03 -2.772e-03
77 1 -4.000e-01 0.000e+00 0.000e+00 -4.110e-03 -1.641e-03 -2.573e-03
78 1 -2.000e-01 -2.000e-01 -2.000e-01 1.030e-03 -1.600e-03 -6.719e-05
79 1 0.000e+00 0.000e+00 -4.000e-01 -8.653e-05 -3.767e-03 3.728e-03
80 1 0.000e+00 0.000e+00 0.000e+00 4.972e-02 -3.199e-02 -5.033e-02
81 1 0.000e+00 0.000e+00 2.000e-01 -1.903e-03 -3.314e-03 8.357e-05
82 1 2.000e-01 2.000e-01 0.000e+00 -3.522e-03 -1.973e-03 -3.094e-03
83 1 0.000e+00 -4.000e-01 0.000e+00 4.505e-05 2.428e-04 2.893e-04
84 1 0.000e+00 2.000e-01 2.000e-01 -3.874e-03 -1.774e-03 -2.781e-03
85 1 0.000e+00 2.000e-01 -2.000e-01 7.554e-04 -8.683e-04 6.931e-04
86 1 -2.000e-01 2.000e-01 0.000e+00 -3.489e-03 -1.991e-03 -3.124e-03
87 1 0.000e+00 0.000e+00 4.000e-01 8.834e-04 -3.417e-04 -7.264e-04
88 1 -2.000e-01 0.000e+00 0.000e+00 1.215e-03 1.063e-03 -2.720e-03
89 1 2.000e-01 0.000e+00 -2.000e-01 -6.482e-05 -5.534e-04 3.776e-05
90 1 0.000e+00 -2.000e-01 -2.000e-01 -1.172e-03 -9.460e-04 2.149e-04
91 1 -2.000e-01 -2.000e-01 0.000e+00 -3.149e-03 -2.183e-03 -3.425e-03
92 1 4.000e-01 0.000e+00 0.000e+00 -4.426e-03 -1.463e-03 -2.292e-03
93 1 0.000e+00 2.000e-01 0.000e+00 -2.031e-04 -4.199e-03 2.204e-03
94 1 -2.000e-01 0.000e+00 -2.000e-01 6.300e-05 7.951e-04 -3.499e-04
95 1 0.000e+00 0.000e+00 -2.000e-01 1.327e-03 4.092e-04 4.957e-04
96 1 2.000e-01 0.000e+00 0.000e+00 -2.999e-03 -2.268e-03 -3.558e-03
