ITEM: TIMESTEP
0
ITEM: NUMBER OF ATOMS
32
ITEM: BOX BOUNDS xy xz yz pp pp pp
                     -5.00000000000000e-01 5.00000000000000e-01 0.00000000000000e+00
-5.00000000000000e-01	5.00000000000000e-01	0.00000000000000e+00
-5.00000000000000e-01	5.00000000000000e-01	0.00000000000000e+00
ITEM: ATOMS id type x y z DisplacementX DisplacementY DisplacementZ
1 1 2.000e-01 6.000e-01 0.000e+00 -1.027e-02 4.343e-03 7.908e-03
2 1 4.000e-01 6.000e-01 4.000e-01 -8.652e-03 3.893e-03 6.672e-03
3 1 4.000e-01 6.000e-01 0.000e+00 -8.668e-03 4.745e-03 6.299e-03
4 1 2.000e-01 2.000e-01 0.000e+00 -1.012e-02 4.167e-03 7.950e-03
5 1 6.000e-01 6.000e-01 4.000e-01 -9.467e-03 3.155e-03 6.678e-03
6 1 4.000e-01 4.000e-01 6.000e-01 -1.021e-02 4.170e-03 7.939e-03
7 1 0.000e+00 4.000e-01 2.000e-01 -1.022e-02 4.274e-03 7.930e-03
8 1 4.000e-01 2.000e-01 2.000e-01 -9.507e-03 3.589e-03 7.256e-03
9 1 4.000e-01 0.000e+00 2.000e-01 -1.016e-02 4.237e-03 7.882e-03
10 1 6.000e-01 2.000e-01 4.000e-01 -7.858e-03 2.768e-03 6.137e-03
11 1 4.000e-01 2.000e-01 4.000e-01 -8.347e-03 5.750e-03 6.716e-03
12 1 2.000e-01 6.000e-01 2.000e-01 -1.022e-02 4.248e-03 8.032e-03
13 1 4.000e-01 4.000e-01 2.000e-01 4.164e-02 3.006e-03 5.678e-03
14 1 2.000e-01 2.000e-01 4.000e-01 -1.026e-02 4.129e-03 7.837e-03
15 1 2.000e-01 6.000e-01 4.000e-01 -1.016e-02 4.053e-03 8.182e-03
16 1 6.000e-01 6.000e-01 0.000e+00 -1.091e-02 3.990e-03 7.218e-03
17 1 2.000e-01 2.000e-01 2.000e-01 -1.019e-02 4.201e-03 7.882e-03
18 1 6.000e-01 4.000e-01 0.000e+00 -7.175e-03 2.526e-03 5.570e-02
19 1 4.000e-01 4.000e-01 8.000e-01 -1.020e-02 4.327e-03 7.857e-03
20 1 4.000e-01 8.000e-01 2.000e-01 -1.018e-02 4.277e-03 8.026e-03
21 1 6.000e-01 2.000e-01 2.000e-01 -1.044e-02 5.405e-02 7.862e-03
22 1 2.000e-01 4.000e-01 4.000e-01 -1.023e-02 4.142e-03 7.982e-03
23 1 2.000e-01 4.000e-01 2.000e-01 -1.022e-02 4.274e-03 7.930e-03
24 1 4.000e-01 4.000e-01 4.000e-01 -9.856e-03 4.097e-03 7.663e-03
25 1 8.000e-01 4.000e-01 2.000e-01 -5.785e-02 2.210e-03 5.734e-03
26 1 6.000e-01 4.000e-01 4.000e-01 -9.983e-03 4.314e-03 7.512e-03
27 1 6.000e-01 2.000e-01 0.000e+00 -1.073e-02 4.242e-03 7.206e-03
28 1 4.000e-01 4.000e-01 0.000e+00 -9.564e-03 4.144e-03 6.377e-03
29 1 4.000e-01 2.000e-01 0.000e+00 -9.316e-03 1.937e-03 5.745e-03
30 1 4.000e-01 6.000e-01 2.000e-01 -9.256e-03 3.177e-03 6.294e-03
31 1 2.000e-01 4.000e-01 0.000e+00 -1.021e-02 4.303e-03 7.903e-03
32 1 6.000e-01 6.000e-01 2.000e-01 -8.340e-03 3.235e-03 6.357e-03
ITEM: TIMESTEP
0
ITEM: NUMBER OF ATOMS
32
ITEM: BOX BOUNDS xy xz yz pp pp pp
                     -5.00000000000000e-01 5.00000000000000e-01 0.00000000000000e+00
-5.00000000000000e-01	5.00000000000000e-01	0.00000000000000e+00
-5.00000000000000e-01	5.00000000000000e-01	0.00000000000000e+00
ITEM: ATOMS id type x y z DisplacementX DisplacementY DisplacementZ
33 1 8.000e-01 4.000e-01 8.000e-01 -1.021e-02 4.170e-03 7.939e-03
34 1 6.000e-01 4.000e-01 8.000e-01 -1.020e-02 4.309e-03 7.871e-03
35 1 8.000e-01 6.000e-01 8.000e-01 -1.033e-02 4.240e-03 7.735e-03
36 1 6.000e-01 4.000e-01 6.000e-01 -1.020e-02 4.309e-03 7.871e-03
37 1 4.000e-01 6.000e-01 0.000e+00 -8.668e-03 4.745e-03 6.299e-03
38 1 8.000e-01 6.000e-01 0.000e+00 -8.748e-03 3.420e-03 5.813e-03
39 1 4.000e-01 2.000e-01 2.000e-01 -9.507e-03 3.589e-03 7.256e-03
40 1 4.000e-01 6.000e-01 8.000e-01 -1.033e-02 4.420e-03 7.728e-03
41 1 4.000e-01 4.000e-01 2.000e-01 4.164e-02 3.006e-03 5.678e-03
42 1 8.000e-01 6.000e-01 2.000e-01 -5.891e-03 2.975e-03 5.085e-03
43 1 0.000e+00 4.000e-01 0.000e+00 -1.023e-02 4.142e-03 7.982e-03
44 1 6.000e-01 8.000e-01 0.000e+00 -1.030e-02 4.397e-03 7.745e-03
45 1 6.000e-01 6.000e-01 0.000e+00 -1.091e-02 3.990e-03 7.218e-03
46 1 6.000e-01 2.000e-01 8.000e-01 -1.005e-02 4.129e-03 8.089e-03
47 1 6.000e-01 4.000e-01 0.000e+00 -7.175e-03 2.526e-03 5.570e-02
48 1 4.000e-01 4.000e-01 8.000e-01 -1.020e-02 4.327e-03 7.857e-03
49 1 8.000e-01 2.000e-01 2.000e-01 -9.326e-03 4.015e-03 7.592e-03
50 1 6.000e-01 6.000e-01 8.000e-01 -1.033e-02 4.390e-03 7.706e-03
51 1 6.000e-01 2.000e-01 2.000e-01 -1.044e-02 5.405e-02 7.862e-03
52 1 8.000e-01 2.000e-01 8.000e-01 -1.007e-02 3.998e-03 8.200e-03
53 1 8.000e-01 4.000e-01 0.000e+00 -9.838e-03 3.997e-03 7.485e-03
54 1 8.000e-01 2.000e-01 0.000e+00 -8.913e-03 2.499e-03 4.592e-03
55 1 8.000e-01 4.000e-01 2.000e-01 -5.785e-02 2.210e-03 5.734e-03
56 1 6.000e-01 4.000e-01 4.000e-01 -9.983e-03 4.314e-03 7.512e-03
57 1 6.000e-01 2.000e-01 0.000e+00 -1.073e-02 4.242e-03 7.206e-03
58 1 4.000e-01 4.000e-01 0.000e+00 -9.564e-03 4.144e-03 6.377e-03
59 1 4.000e-01 2.000e-01 0.000e+00 -9.316e-03 1.937e-03 5.745e-03
60 1 4.000e-01 2.000e-01 8.000e-01 -1.005e-02 4.138e-03 8.037e-03
61 1 4.000e-01 6.000e-01 2.000e-01 -9.256e-03 3.177e-03 6.294e-03
62 1 2.000e-01 4.000e-01 0.000e+00 -1.021e-02 4.303e-03 7.903e-03
63 1 6.000e-01 0.000e+00 0.000e+00 -1.003e-02 4.134e-03 8.134e-03
64 1 6.000e-01 6.000e-01 2.000e-01 -8.340e-03 3.235e-03 6.357e-03
ITEM: TIMESTEP
0
ITEM: NUMBER OF ATOMS
32
ITEM: BOX BOUNDS xy xz yz pp pp pp
                     -5.00000000000000e-01 5.00000000000000e-01 0.00000000000000e+00
-5.00000000000000e-01	5.00000000000000e-01	0.00000000000000e+00
-5.00000000000000e-01	5.00000000000000e-01	0.00000000000000e+00
ITEM: ATOMS id type x y z DisplacementX DisplacementY DisplacementZ
65 1 8.000e-01 0.000e+00 2.000e-01 -1.018e-02 4.277e-03 8.027e-03
66 1 6.000e-01 8.000e-01 2.000e-01 -1.017e-02 4.318e-03 7.927e-03
67 1 4.000e-01 0.000e+00 4.000e-01 -1.029e-02 4.281e-03 7.718e-03
68 1 4.000e-01 2.000e-01 2.000e-01 -9.507e-03 3.589e-03 7.256e-03
69 1 4.000e-01 0.000e+00 2.000e-01 -1.016e-02 4.237e-03 7.882e-03
70 1 8.000e-01 0.000e+00 4.000e-01 -1.030e-02 4.395e-03 7.823e-03
71 1 6.000e-01 2.000e-01 4.000e-01 -7.858e-03 2.768e-03 6.137e-03
72 1 4.000e-01 2.000e-01 4.000e-01 -8.347e-03 5.750e-03 6.716e-03
73 1 4.000e-01 4.000e-01 2.000e-01 4.164e-02 3.006e-03 5.678e-03
74 1 8.000e-01 0.000e+00 0.000e+00 -1.004e-02 4.060e-03 8.256e-03
75 1 2.000e-01 2.000e-01 2.000e-01 -1.019e-02 4.201e-03 7.882e-03
76 1 6.000e-01 2.000e-01 8.000e-01 -1.005e-02 4.129e-03 8.089e-03
77 1 6.000e-01 4.000e-01 0.000e+00 -7.175e-03 2.526e-03 5.570e-02
78 1 8.000e-01 2.000e-01 4.000e-01 -8.382e-03 5.742e-03 6.573e-03
79 1 8.000e-01 2.000e-01 2.000e-01 -9.326e-03 4.015e-03 7.592e-03
80 1 4.000e-01 0.000e+00 0.000e+00 -1.003e-02 4.089e-03 8.070e-03
81 1 6.000e-01 2.000e-01 2.000e-01 -1.044e-02 5.405e-02 7.862e-03
82 1 6.000e-01 2.000e-01 6.000e-01 -1.033e-02 4.390e-03 7.706e-03
83 1 8.000e-01 4.000e-01 0.000e+00 -9.838e-03 3.997e-03 7.485e-03
84 1 6.000e-01 0.000e+00 2.000e-01 -1.017e-02 4.318e-03 7.927e-03
85 1 4.000e-01 4.000e-01 4.000e-01 -9.856e-03 4.097e-03 7.663e-03
86 1 8.000e-01 2.000e-01 0.000e+00 -8.913e-03 2.499e-03 4.592e-03
87 1 8.000e-01 4.000e-01 2.000e-01 -5.785e-02 2.210e-03 5.734e-03
88 1 6.000e-01 4.000e-01 4.000e-01 -9.983e-03 4.314e-03 7.512e-03
89 1 6.000e-01 2.000e-01 0.000e+00 -1.073e-02 4.242e-03 7.206e-03
90 1 4.000e-01 4.000e-01 0.000e+00 -9.564e-03 4.144e-03 6.377e-03
91 1 4.000e-01 2.000e-01 0.000e+00 -9.316e-03 1.937e-03 5.745e-03
92 1 8.000e-01 4.000e-01 4.000e-01 -9.863e-03 4.824e-03 8.233e-03
93 1 6.000e-01 0.000e+00 4.000e-01 -1.030e-02 4.397e-03 7.745e-03
94 1 6.000e-01 0.000e+00 0.000e+00 -1.003e-02 4.134e-03 8.134e-03
95 1 0.000e+00 2.000e-01 2.000e-01 -1.022e-02 4.248e-03 8.032e-03
96 1 6.000e-01 6.000e-01 2.000e-01 -8.340e-03 3.235e-03 6.357e-03
ITEM: TIMESTEP
0
ITEM: NUMBER OF ATOMS
32
ITEM: BOX BOUNDS xy xz yz pp pp pp
                     -5.00000000000000e-01 5.00000000000000e-01 0.00000000000000e+00
-5.00000000000000e-01	5.00000000000000e-01	0.00000000000000e+00
-5.00000000000000e-01	5.00000000000000e-01	0.00000000000000e+00
ITEM: ATOMS id type x y z DisplacementX DisplacementY DisplacementZ
97 1 8.000e-01 4.000e-01 8.000e-01 -1.021e-02 4.170e-03 7.939e-03
98 1 0.000e+00 2.000e-01 0.000e+00 -1.016e-02 4.053e-03 8.182e-03
99 1 0.000e+00 4.000e-01 4.000e-01 -1.021e-02 4.303e-03 7.903e-03
100 1 6.000e-01 6.000e-01 4.000e-01 -9.467e-03 3.155e-03 6.678e-03
101 1 0.000e+00 2.000e-01 4.000e-01 -1.027e-02 4.343e-03 7.908e-03
102 1 8.000e-01 0.000e+00 2.000e-01 -1.018e-02 4.277e-03 8.027e-03
103 1 0.000e+00 6.000e-01 4.000e-01 -1.012e-02 4.167e-03 7.950e-03
104 1 0.000e+00 4.000e-01 2.000e-01 -1.022e-02 4.274e-03 7.930e-03
105 1 8.000e-01 6.000e-01 0.000e+00 -8.748e-03 3.420e-03 5.813e-03
106 1 6.000e-01 2.000e-01 4.000e-01 -7.858e-03 2.768e-03 6.137e-03
107 1 4.000e-01 4.000e-01 2.000e-01 4.164e-02 3.006e-03 5.678e-03
108 1 8.000e-01 6.000e-01 2.000e-01 -5.891e-03 2.975e-03 5.085e-03
109 1 0.000e+00 4.000e-01 0.000e+00 -1.023e-02 4.142e-03 7.982e-03
110 1 8.000e-01 8.000e-01 2.000e-01 -1.016e-02 4.237e-03 7.882e-03
111 1 8.000e-01 6.000e-01 4.000e-01 -7.555e-03 3.367e-03 6.179e-03
112 1 6.000e-01 6.000e-01 0.000e+00 -1.091e-02 3.990e-03 7.218e-03
113 1 6.000e-01 4.000e-01 0.000e+00 -7.175e-03 2.526e-03 5.570e-02
114 1 8.000e-01 2.000e-01 4.000e-01 -8.382e-03 5.742e-03 6.573e-03
115 1 0.000e+00 6.000e-01 0.000e+00 -1.026e-02 4.128e-03 7.837e-03
116 1 8.000e-01 2.000e-01 2.000e-01 -9.326e-03 4.015e-03 7.592e-03
117 1 0.000e+00 6.000e-01 2.000e-01 -1.019e-02 4.201e-03 7.882e-03
118 1 6.000e-01 2.000e-01 2.000e-01 -1.044e-02 5.405e-02 7.862e-03
119 1 8.000e-01 4.000e-01 0.000e+00 -9.838e-03 3.997e-03 7.485e-03
120 1 2.000e-01 4.000e-01 2.000e-01 -1.022e-02 4.274e-03 7.930e-03
121 1 8.000e-01 2.000e-01 0.000e+00 -8.913e-03 2.499e-03 4.592e-03
122 1 8.000e-01 4.000e-01 2.000e-01 -5.785e-02 2.210e-03 5.734e-03
123 1 6.000e-01 4.000e-01 4.000e-01 -9.983e-03 4.314e-03 7.512e-03
124 1 6.000e-01 2.000e-01 0.000e+00 -1.073e-02 4.242e-03 7.206e-03
125 1 8.000e-01 4.000e-01 4.000e-01 -9.863e-03 4.824e-03 8.233e-03
126 1 0.000e+00 2.000e-01 2.000e-01 -1.022e-02 4.248e-03 8.032e-03
127 1 8.000e-01 4.000e-01 6.000e-01 -1.020e-02 4.327e-03 7.858e-03
128 1 6.000e-01 6.000e-01 2.000e-01 -8.340e-03 3.235e-03 6.357e-03
