ITEM: TIMESTEP
0
ITEM: NUMBER OF ATOMS
6
ITEM: BOX BOUNDS xy xz yz pp pp pp
                     -5.00000000000000e-01 5.00000000000000e-01 0.00000000000000e+00
-5.00000000000000e-01	5.00000000000000e-01	0.00000000000000e+00
-5.00000000000000e-01	5.00000000000000e-01	0.00000000000000e+00
ITEM: ATOMS id type x y z DisplacementX DisplacementY DisplacementZ
1 1 6.000e-01 0.000e+00 2.000e-01 -6.319e-02 1.250e-01 -2.793e-02
2 1 4.000e-01 0.000e+00 2.000e-01 8.086e-02 -8.982e-02 -8.784e-02
3 1 6.000e-01 0.000e+00 4.000e-01 -3.726e-02 -1.682e-02 1.985e-01
4 1 6.000e-01 8.000e-01 2.000e-01 -3.812e-02 2.389e-02 6.959e-02
5 1 6.000e-01 0.000e+00 0.000e+00 1.393e-01 -2.815e-02 7.051e-02
6 1 8.000e-01 0.000e+00 2.000e-01 -9.379e-02 -1.962e-02 5.977e-02
ITEM: TIMESTEP
0
ITEM: NUMBER OF ATOMS
6
ITEM: BOX BOUNDS xy xz yz pp pp pp
                     -5.00000000000000e-01 5.00000000000000e-01 0.00000000000000e+00
-5.00000000000000e-01	5.00000000000000e-01	0.00000000000000e+00
-5.00000000000000e-01	5.00000000000000e-01	0.00000000000000e+00
ITEM: ATOMS id type x y z DisplacementX DisplacementY DisplacementZ
7 1 6.000e-01 4.000e-01 2.000e-01 -3.981e-02 -1.495e-01 2.206e-01
8 1 6.000e-01 4.000e-01 0.000e+00 5.652e-02 -1.145e-01 1.464e-01
9 1 6.000e-01 4.000e-01 4.000e-01 -8.238e-03 -1.765e-02 -1.576e-01
10 1 6.000e-01 6.000e-01 2.000e-01 -5.972e-02 -9.414e-02 7.258e-02
11 1 8.000e-01 4.000e-01 2.000e-01 -8.043e-02 -1.280e-02 -2.242e-01
12 1 4.000e-01 4.000e-01 2.000e-01 -1.834e-02 1.165e-02 -2.886e-02
ITEM: TIMESTEP
0
ITEM: NUMBER OF ATOMS
6
ITEM: BOX BOUNDS xy xz yz pp pp pp
                     -5.00000000000000e-01 5.00000000000000e-01 0.00000000000000e+00
-5.00000000000000e-01	5.00000000000000e-01	0.00000000000000e+00
-5.00000000000000e-01	5.00000000000000e-01	0.00000000000000e+00
ITEM: ATOMS id type x y z DisplacementX DisplacementY DisplacementZ
13 1 6.000e-01 2.000e-01 0.000e+00 -6.665e-02 7.783e-02 1.383e-01
14 1 4.000e-01 2.000e-01 0.000e+00 1.825e-01 -6.385e-04 -4.323e-02
15 1 6.000e-01 4.000e-01 0.000e+00 8.340e-02 -5.079e-02 1.497e-01
16 1 6.000e-01 2.000e-01 8.000e-01 6.356e-02 -1.048e-02 6.268e-02
17 1 6.000e-01 0.000e+00 0.000e+00 6.783e-02 -2.510e-01 3.481e-02
18 1 8.000e-01 2.000e-01 0.000e+00 1.443e-01 -9.757e-02 3.359e-01
ITEM: TIMESTEP
0
ITEM: NUMBER OF ATOMS
6
ITEM: BOX BOUNDS xy xz yz pp pp pp
                     -5.00000000000000e-01 5.00000000000000e-01 0.00000000000000e+00
-5.00000000000000e-01	5.00000000000000e-01	0.00000000000000e+00
-5.00000000000000e-01	5.00000000000000e-01	0.00000000000000e+00
ITEM: ATOMS id type x y z DisplacementX DisplacementY DisplacementZ
19 1 4.000e-01 0.000e+00 2.000e-01 1.224e-01 -1.101e-01 -8.878e-02
20 1 4.000e-01 2.000e-01 0.000e+00 -3.022e-03 -6.818e-02 9.720e-02
21 1 4.000e-01 2.000e-01 2.000e-01 2.324e-01 -4.238e-02 -3.823e-02
22 1 2.000e-01 2.000e-01 2.000e-01 -1.055e-01 2.633e-02 9.052e-02
23 1 4.000e-01 2.000e-01 4.000e-01 -1.626e-01 9.470e-02 -4.910e-02
24 1 4.000e-01 4.000e-01 2.000e-01 3.170e-02 -9.296e-02 -6.035e-02
