ITEM: TIMESTEP
0
ITEM: NUMBER OF ATOMS
24
ITEM: BOX BOUNDS xy xz yz pp pp pp
                     -5.00000000000000e-01 5.00000000000000e-01 0.00000000000000e+00
-5.00000000000000e-01	5.00000000000000e-01	0.00000000000000e+00
-5.00000000000000e-01	5.00000000000000e-01	0.00000000000000e+00
ITEM: ATOMS id type x y DisplacementX DisplacementY
1 1 2.000e-01 2.000e-01 -9.759e-05 2.181e-05
2 1 4.000e-01 2.000e-01 -2.001e-01 4.284e-06
3 1 -4.000e-01 2.000e-01 -9.482e-05 1.900e-06
4 1 -2.000e-01 2.000e-01 -9.581e-05 8.754e-06
5 1 0.000e+00 2.000e-01 -9.821e-05 1.752e-05
6 1 2.000e-01 4.000e-01 -8.985e-05 6.609e-06
7 1 -4.000e-01 4.000e-01 -9.733e-05 2.008e-05
8 1 -2.000e-01 4.000e-01 -1.043e-04 3.659e-05
9 1 0.000e+00 4.000e-01 -9.230e-05 -8.054e-06
10 1 2.000e-01 -4.000e-01 -9.477e-05 2.610e-05
11 1 4.000e-01 -4.000e-01 -9.476e-05 1.507e-05
12 1 -4.000e-01 -4.000e-01 -8.944e-05 -9.485e-06
13 1 -2.000e-01 -4.000e-01 -9.988e-05 1.352e-05
14 1 0.000e+00 -4.000e-01 -1.007e-04 1.525e-05
15 1 2.000e-01 -2.000e-01 -1.053e-04 2.670e-05
16 1 4.000e-01 -2.000e-01 -8.789e-05 -1.437e-05
17 1 -4.000e-01 -2.000e-01 -9.570e-05 2.908e-05
18 1 -2.000e-01 -2.000e-01 -1.091e-04 2.562e-05
19 1 0.000e+00 -2.000e-01 -8.035e-05 -1.270e-05
20 1 2.000e-01 0.000e+00 -9.286e-05 -2.392e-06
21 1 4.000e-01 0.000e+00 -8.556e-05 -8.710e-06
22 1 -4.000e-01 0.000e+00 -9.972e-05 1.615e-05
23 1 -2.000e-01 0.000e+00 -9.739e-05 7.086e-06
24 1 0.000e+00 0.000e+00 -9.988e-05 1.638e-05
ITEM: TIMESTEP
0
ITEM: NUMBER OF ATOMS
24
ITEM: BOX BOUNDS xy xz yz pp pp pp
                     -5.00000000000000e-01 5.00000000000000e-01 0.00000000000000e+00
-5.00000000000000e-01	5.00000000000000e-01	0.00000000000000e+00
-5.00000000000000e-01	5.00000000000000e-01	0.00000000000000e+00
ITEM: ATOMS id type x y DisplacementX DisplacementY
1 1 2.000e-01 2.000e-01 6.867e-05 3.842e-05
2 1 4.000e-01 2.000e-01 7.395e-05 4.670e-05
3 1 -4.000e-01 2.000e-01 7.571e-05 4.596e-05
4 1 -2.000e-01 2.000e-01 6.409e-05 5.481e-05
5 1 0.000e+00 2.000e-01 4.582e-05 9.587e-05
6 1 2.000e-01 4.000e-01 6.796e-05 -1.999e-01
7 1 -4.000e-01 4.000e-01 6.744e-05 4.506e-05
8 1 -2.000e-01 4.000e-01 2.028e-05 1.206e-04
9 1 0.000e+00 4.000e-01 8.516e-05 2.980e-05
10 1 2.000e-01 -4.000e-01 4.527e-05 9.403e-05
11 1 4.000e-01 -4.000e-01 7.539e-05 2.515e-05
12 1 -4.000e-01 -4.000e-01 8.161e-05 2.748e-05
13 1 -2.000e-01 -4.000e-01 5.390e-05 7.349e-05
14 1 0.000e+00 -4.000e-01 8.298e-05 3.961e-05
15 1 2.000e-01 -2.000e-01 6.267e-05 4.897e-05
16 1 4.000e-01 -2.000e-01 9.774e-05 -2.980e-08
17 1 -4.000e-01 -2.000e-01 5.318e-05 4.080e-05
18 1 -2.000e-01 -2.000e-01 7.509e-05 4.959e-05
19 1 0.000e+00 -2.000e-01 9.254e-05 -2.146e-06
20 1 2.000e-01 0.000e+00 8.514e-05 3.198e-05
21 1 4.000e-01 0.000e+00 9.347e-05 9.090e-06
22 1 -4.000e-01 0.000e+00 8.234e-05 2.772e-05
23 1 -2.000e-01 0.000e+00 6.999e-05 6.667e-05
24 1 0.000e+00 0.000e+00 6.290e-05 7.614e-05
ITEM: TIMESTEP
0
ITEM: NUMBER OF ATOMS
24
ITEM: BOX BOUNDS xy xz yz pp pp pp
                     -5.00000000000000e-01 5.00000000000000e-01 0.00000000000000e+00
-5.00000000000000e-01	5.00000000000000e-01	0.00000000000000e+00
-5.00000000000000e-01	5.00000000000000e-01	0.00000000000000e+00
ITEM: ATOMS id type x y DisplacementX DisplacementY
1 1 2.000e-01 2.000e-01 -7.445e-05 1.995e-04
2 1 4.000e-01 2.000e-01 -6.271e-05 1.994e-04
3 1 -4.000e-01 2.000e-01 -5.997e-05 1.998e-04
4 1 -2.000e-01 2.000e-01 -6.921e-05 1.996e-04
5 1 0.000e+00 2.000e-01 -6.733e-05 2.120e-04
6 1 2.000e-01 4.000e-01 -5.997e-05 1.960e-04
7 1 -4.000e-01 4.000e-01 -4.001e-01 -1.998e-01
8 1 -2.000e-01 4.000e-01 -5.684e-05 2.113e-04
9 1 0.000e+00 4.000e-01 -7.566e-05 1.985e-04
10 1 2.000e-01 -4.000e-01 -6.209e-05 2.051e-04
11 1 4.000e-01 -4.000e-01 -7.433e-05 1.946e-04
12 1 -4.000e-01 -4.000e-01 -7.159e-05 1.920e-04
13 1 -2.000e-01 -4.000e-01 -6.587e-05 2.060e-04
14 1 0.000e+00 -4.000e-01 -7.594e-05 2.154e-04
15 1 2.000e-01 -2.000e-01 -7.445e-05 2.100e-04
16 1 4.000e-01 -2.000e-01 -7.003e-05 1.871e-04
17 1 -4.000e-01 -2.000e-01 -7.794e-05 1.956e-04
18 1 -2.000e-01 -2.000e-01 -7.255e-05 2.230e-04
19 1 0.000e+00 -2.000e-01 -8.611e-05 1.815e-04
20 1 2.000e-01 0.000e+00 -6.495e-05 2.043e-04
21 1 4.000e-01 0.000e+00 -7.058e-05 1.862e-04
22 1 -4.000e-01 0.000e+00 -8.246e-05 2.020e-04
23 1 -2.000e-01 0.000e+00 -7.383e-05 2.105e-04
24 1 0.000e+00 0.000e+00 -6.629e-05 2.162e-04
ITEM: TIMESTEP
0
ITEM: NUMBER OF ATOMS
24
ITEM: BOX BOUNDS xy xz yz pp pp pp
                     -5.00000000000000e-01 5.00000000000000e-01 0.00000000000000e+00
-5.00000000000000e-01	5.00000000000000e-01	0.00000000000000e+00
-5.00000000000000e-01	5.00000000000000e-01	0.00000000000000e+00
ITEM: ATOMS id type x y DisplacementX DisplacementY
1 1 2.000e-01 2.000e-01 6.612e-05 -3.867e-06
2 1 4.000e-01 2.000e-01 6.810e-05 -1.007e-05
3 1 -4.000e-01 2.000e-01 7.223e-05 -5.536e-06
4 1 -2.000e-01 2.000e-01 5.775e-05 1.863e-07
5 1 0.000e+00 2.000e-01 3.492e-05 -2.906e-07
6 1 2.000e-01 4.000e-01 6.171e-05 -8.397e-06
7 1 -4.000e-01 4.000e-01 5.620e-05 -6.482e-07
8 1 -2.000e-01 4.000e-01 3.332e-05 -5.774e-06
9 1 0.000e+00 4.000e-01 6.330e-05 2.809e-06
10 1 2.000e-01 -4.000e-01 4.634e-05 -6.013e-06
11 1 4.000e-01 -4.000e-01 -1.999e-01 -4.000e-01
12 1 -4.000e-01 -4.000e-01 6.090e-05 1.378e-06
13 1 -2.000e-01 -4.000e-01 5.280e-05 -2.913e-06
14 1 0.000e+00 -4.000e-01 7.229e-05 -9.350e-06
15 1 2.000e-01 -2.000e-01 6.442e-05 -5.059e-06
16 1 4.000e-01 -2.000e-01 7.193e-05 1.617e-06
17 1 -4.000e-01 -2.000e-01 6.773e-05 -4.582e-06
18 1 -2.000e-01 -2.000e-01 7.619e-05 -9.589e-06
19 1 0.000e+00 -2.000e-01 8.697e-05 2.332e-06
20 1 2.000e-01 0.000e+00 7.458e-05 -1.030e-05
21 1 4.000e-01 0.000e+00 6.874e-05 1.378e-06
22 1 -4.000e-01 0.000e+00 7.792e-05 1.863e-07
23 1 -2.000e-01 0.000e+00 5.310e-05 4.478e-06
24 1 0.000e+00 0.000e+00 6.117e-05 -7.920e-06
