ITEM: TIMESTEP
0
ITEM: NUMBER OF ATOMS
107
ITEM: BOX BOUNDS xy xz yz pp pp pp
                     0.00000000000000e+00 1.06200000000000e+01 0.00000000000000e+00
0.00000000000000e+00	1.06200000000000e+01	0.00000000000000e+00
0.00000000000000e+00	1.06200000000000e+01	0.00000000000000e+00
ITEM: ATOMS id type x y z DisplacementX DisplacementY DisplacementZ
1 1 3.562e-01 3.560e-01 3.516e-01 2.753e-03 1.291e-03 4.365e-04
2 1 2.123e+00 2.125e+00 3.642e-01 2.905e-03 5.739e-04 1.412e-02
3 1 2.123e+00 3.523e-01 2.124e+00 5.125e-03 -7.067e-03 -2.944e-03
4 1 3.525e-01 2.126e+00 2.123e+00 1.649e-03 7.291e-04 2.327e-03
5 1 3.893e+00 3.557e-01 3.506e-01 -2.528e-02 -2.456e-02 4.540e-03
6 1 5.662e+00 2.123e+00 3.488e-01 -1.744e-02 -1.241e-02 3.637e-03
7 1 5.664e+00 3.541e-01 2.125e+00 2.016e-03 -5.523e-03 -6.911e-04
8 1 3.894e+00 2.123e+00 2.125e+00 4.605e-03 -3.873e-03 -3.852e-03
9 1 7.434e+00 3.532e-01 3.523e-01 8.550e-04 7.983e-04 9.043e-04
10 1 9.207e+00 2.124e+00 3.525e-01 1.892e-03 5.395e-04 -5.758e-04
11 1 9.206e+00 3.540e-01 2.124e+00 1.730e-03 5.452e-04 6.793e-04
12 1 7.434e+00 2.125e+00 2.125e+00 1.427e-03 5.765e-04 8.934e-04
13 1 3.562e-01 3.893e+00 3.531e-01 2.643e-03 -1.244e-03 6.288e-04
14 1 2.124e+00 3.897e+00 2.125e+00 1.414e-03 2.862e-03 -1.107e-06
15 1 3.893e+00 3.893e+00 3.513e-01 3.072e-03 1.550e-03 -1.072e-03
16 1 5.664e+00 3.894e+00 2.123e+00 1.791e-03 8.659e-04 4.011e-04
17 1 7.434e+00 3.894e+00 3.531e-01 1.157e-03 7.387e-04 -9.039e-05
18 1 9.204e+00 3.892e+00 2.126e+00 1.854e-03 4.337e-05 9.117e-04
19 1 3.544e-01 3.557e-01 3.895e+00 1.160e-02 5.419e-02 1.258e-02
20 1 2.125e+00 2.124e+00 3.883e+00 9.996e-03 2.072e-02 -4.107e-03
21 1 3.892e+00 3.549e-01 3.898e+00 1.990e-03 -9.503e-05 2.609e-03
22 1 5.662e+00 2.125e+00 3.897e+00 5.472e-04 9.241e-04 4.931e-03
23 1 7.435e+00 3.542e-01 3.894e+00 1.056e-03 5.331e-04 -5.392e-04
24 1 9.206e+00 2.122e+00 3.898e+00 1.153e-02 5.419e-02 1.143e-02
25 1 3.566e-01 3.893e+00 3.895e+00 6.795e-03 2.197e-02 5.946e-03
26 1 3.895e+00 3.891e+00 3.896e+00 2.200e-03 5.649e-04 2.923e-03
27 1 7.434e+00 3.894e+00 3.895e+00 7.934e-04 1.074e-03 3.471e-04
28 1 2.125e+00 3.635e-01 5.673e+00 -3.354e-02 2.284e-01 4.495e-01
29 1 3.607e-01 2.124e+00 5.672e+00 -3.455e-02 9.017e-02 1.614e-01
30 1 5.663e+00 3.562e-01 5.667e+00 2.372e-02 2.891e-02 1.686e-03
31 1 3.884e+00 2.123e+00 5.672e+00 -7.758e-02 6.105e-02 1.147e-01
32 1 9.205e+00 3.570e-01 5.665e+00 1.077e-02 5.424e-02 9.410e-03
33 1 7.433e+00 2.126e+00 5.662e+00 2.199e-03 7.770e-04 -2.280e-03
34 1 2.123e+00 3.886e+00 5.674e+00 -1.097e-01 -1.848e-01 2.299e-02
35 1 5.660e+00 3.892e+00 5.665e+00 -7.916e-04 1.333e-03 1.870e-03
36 1 9.207e+00 3.892e+00 5.667e+00 2.584e-02 9.163e-02 7.643e-03
37 1 3.633e-01 3.626e-01 7.434e+00 1.046e-01 1.199e-01 5.880e-02
38 1 2.126e+00 3.640e-01 9.196e+00 1.183e-01 1.070e-01 -3.767e-01
39 1 3.643e-01 2.125e+00 9.196e+00 1.500e-01 6.194e-03 -4.647e-01
40 1 3.885e+00 3.616e-01 7.433e+00 -2.912e-02 1.971e-01 7.925e-02
41 1 5.673e+00 2.123e+00 7.433e+00 2.678e-02 2.887e-02 -7.757e-03
42 1 5.663e+00 3.544e-01 9.202e+00 5.779e-03 1.546e-02 6.656e-03
43 1 3.885e+00 2.122e+00 9.197e+00 -4.644e-02 6.670e-03 -5.909e-02
44 1 7.434e+00 3.522e-01 7.434e+00 1.237e-03 -8.651e-04 -1.410e-03
45 1 9.195e+00 2.122e+00 7.435e+00 1.640e-02 8.670e-02 2.404e-02
46 1 9.207e+00 3.556e-01 9.203e+00 -4.121e-04 2.074e-03 1.321e-03
47 1 7.433e+00 2.123e+00 9.205e+00 4.518e-04 6.174e-04 1.512e-03
48 1 3.652e-01 3.887e+00 7.434e+00 3.269e-02 1.022e-02 -3.361e-02
49 1 2.124e+00 3.884e+00 9.195e+00 7.307e-02 -1.504e-02 -6.721e-02
50 1 3.887e+00 3.887e+00 7.431e+00 3.813e-02 -1.335e-01 1.589e-01
51 1 5.661e+00 3.893e+00 9.202e+00 3.929e-04 1.490e-03 -3.007e-04
52 1 7.432e+00 3.898e+00 7.434e+00 1.045e-03 3.233e-03 2.392e-04
53 1 9.206e+00 3.891e+00 9.202e+00 1.096e-02 3.064e-02 -2.237e-04
54 1 2.124e+00 5.661e+00 3.509e-01 2.453e-03 -2.088e-03 -4.939e-03
55 1 3.547e-01 5.664e+00 2.124e+00 1.988e-03 4.556e-04 1.440e-04
56 1 5.664e+00 5.663e+00 3.521e-01 1.212e-03 7.493e-04 -1.201e-03
57 1 3.893e+00 5.662e+00 2.123e+00 1.770e-03 8.449e-04 6.195e-05
58 1 9.203e+00 5.664e+00 3.525e-01 1.321e-03 -1.075e-04 -5.905e-04
59 1 7.434e+00 5.663e+00 2.123e+00 1.221e-03 6.852e-04 -1.115e-04
60 1 3.567e-01 7.436e+00 3.547e-01 1.024e-03 2.383e-04 -7.503e-04
61 1 2.127e+00 9.206e+00 3.494e-01 -1.026e-02 -5.631e-03 2.482e-03
62 1 2.124e+00 7.435e+00 2.125e+00 1.461e-03 4.079e-04 -5.175e-04
63 1 3.547e-01 9.205e+00 2.123e+00 1.709e-03 2.191e-05 1.613e-04
64 1 3.891e+00 7.433e+00 3.510e-01 -1.061e-02 -7.387e-03 1.425e-03
65 1 5.663e+00 9.206e+00 3.547e-01 -1.905e-02 -1.329e-02 4.151e-03
66 1 5.663e+00 7.433e+00 2.124e+00 1.245e-03 5.913e-04 -3.940e-04
67 1 3.892e+00 9.203e+00 2.124e+00 4.708e-03 -4.255e-03 -1.788e-03
68 1 7.433e+00 7.434e+00 3.526e-01 1.008e-03 5.610e-04 -3.378e-04
69 1 9.205e+00 9.207e+00 3.527e-01 9.265e-04 1.003e-03 1.810e-04
70 1 9.205e+00 7.434e+00 2.124e+00 1.197e-03 4.940e-04 -2.953e-04
71 1 7.435e+00 9.205e+00 2.123e+00 1.189e-03 4.815e-04 -1.582e-04
72 1 2.124e+00 5.660e+00 3.897e+00 1.297e-03 -6.813e-04 2.586e-03
73 1 5.663e+00 5.663e+00 3.895e+00 9.272e-04 7.522e-04 5.221e-04
74 1 9.205e+00 5.664e+00 3.893e+00 1.234e-03 5.964e-04 -2.075e-04
75 1 3.554e-01 7.434e+00 3.896e+00 1.312e-03 4.463e-04 -1.810e-03
76 1 2.121e+00 9.207e+00 3.898e+00 1.577e-03 1.521e-03 -7.989e-04
77 1 3.894e+00 7.435e+00 3.894e+00 1.138e-03 6.217e-04 -1.091e-03
78 1 5.663e+00 9.206e+00 3.895e+00 1.114e-03 6.057e-04 -2.096e-04
79 1 7.434e+00 7.435e+00 3.893e+00 1.050e-03 6.205e-04 -5.519e-04
80 1 9.205e+00 9.204e+00 3.896e+00 1.221e-03 5.085e-04 -1.152e-03
81 1 3.555e-01 5.660e+00 5.666e+00 1.565e-02 3.015e-02 -6.873e-03
82 1 3.894e+00 5.661e+00 5.667e+00 -5.585e-04 -6.940e-05 -1.076e-05
83 1 7.433e+00 5.663e+00 5.666e+00 4.242e-04 1.121e-03 -2.149e-04
84 1 2.125e+00 7.434e+00 5.663e+00 1.941e-03 -8.478e-05 -3.873e-03
85 1 3.558e-01 9.207e+00 5.666e+00 1.294e-03 2.060e-03 -4.222e-03
86 1 5.663e+00 7.435e+00 5.666e+00 9.101e-04 5.376e-04 -1.131e-03
87 1 3.893e+00 9.206e+00 5.667e+00 1.504e-02 1.735e-02 -1.354e-03
88 1 9.205e+00 7.433e+00 5.663e+00 7.123e-04 5.078e-04 -1.487e-03
89 1 7.434e+00 9.204e+00 5.665e+00 5.005e-04 4.080e-04 -9.089e-04
90 1 2.125e+00 5.674e+00 7.435e+00 1.382e-02 4.125e-02 -8.254e-03
91 1 3.556e-01 5.662e+00 9.203e+00 1.635e-02 3.396e-02 -7.932e-03
92 1 5.658e+00 5.661e+00 7.434e+00 -4.056e-04 1.930e-04 -6.518e-04
93 1 3.893e+00 5.661e+00 9.204e+00 1.590e-03 2.907e-04 -5.861e-03
94 1 9.207e+00 5.660e+00 7.433e+00 1.690e-02 3.434e-02 -7.152e-03
95 1 7.435e+00 5.663e+00 9.203e+00 6.742e-04 9.756e-04 -4.508e-04
96 1 3.511e-01 7.435e+00 7.435e+00 5.694e-04 1.302e-03 1.583e-03
97 1 2.125e+00 9.192e+00 7.435e+00 2.482e-02 1.660e-02 -6.615e-03
98 1 2.124e+00 7.435e+00 9.208e+00 1.110e-03 7.392e-04 2.002e-03
99 1 3.551e-01 9.205e+00 9.204e+00 8.887e-04 1.211e-03 -1.284e-03
100 1 3.896e+00 7.436e+00 7.435e+00 2.541e-03 2.956e-04 -4.087e-03
101 1 5.661e+00 9.207e+00 7.435e+00 2.462e-02 2.950e-02 2.669e-03
102 1 5.662e+00 7.433e+00 9.203e+00 8.431e-04 6.509e-04 -1.932e-03
103 1 3.892e+00 9.207e+00 9.203e+00 1.230e-02 2.088e-02 2.963e-03
104 1 7.434e+00 7.433e+00 7.434e+00 2.396e-04 6.155e-04 -1.088e-03
105 1 9.209e+00 9.207e+00 7.434e+00 2.591e-05 2.658e-03 -3.076e-03
106 1 9.207e+00 7.434e+00 9.203e+00 5.103e-04 2.426e-04 -1.075e-03
107 1 7.433e+00 9.205e+00 9.203e+00 6.100e-04 7.779e-04 -1.220e-04
ITEM: TIMESTEP
0
ITEM: NUMBER OF ATOMS
107
ITEM: BOX BOUNDS xy xz yz pp pp pp
                     0.00000000000000e+00 1.06200000000000e+01 0.00000000000000e+00
0.00000000000000e+00	1.06200000000000e+01	0.00000000000000e+00
0.00000000000000e+00	1.06200000000000e+01	0.00000000000000e+00
ITEM: ATOMS id type x y z DisplacementX DisplacementY DisplacementZ
1 1 3.562e-01 3.560e-01 3.516e-01 -3.198e-03 8.531e-04 -1.481e-03
2 1 2.123e+00 2.125e+00 3.642e-01 -3.396e-03 2.983e-03 1.587e-02
3 1 2.123e+00 3.523e-01 2.124e+00 -5.680e-04 2.794e-03 -1.771e-03
4 1 3.525e-01 2.126e+00 2.123e+00 -5.058e-03 1.449e-03 -3.122e-03
5 1 3.893e+00 3.557e-01 3.506e-01 4.277e-02 3.084e-02 -1.792e-02
6 1 5.662e+00 2.123e+00 3.488e-01 2.357e-02 1.793e-02 -1.473e-02
7 1 5.664e+00 3.541e-01 2.125e+00 2.673e-03 5.949e-03 -3.529e-03
8 1 3.894e+00 2.123e+00 2.125e+00 1.482e-03 1.580e-03 -1.696e-03
9 1 7.434e+00 3.532e-01 3.523e-01 -2.079e-03 3.972e-04 -2.047e-03
10 1 9.207e+00 2.124e+00 3.525e-01 -2.044e-04 -2.469e-04 -1.438e-03
11 1 9.206e+00 3.540e-01 2.124e+00 -2.288e-03 5.927e-04 -1.483e-03
12 1 7.434e+00 2.125e+00 2.125e+00 -1.618e-03 1.031e-03 -1.749e-03
13 1 3.562e-01 3.893e+00 3.531e-01 -9.493e-04 9.325e-05 -1.465e-03
14 1 2.124e+00 3.897e+00 2.125e+00 -2.371e-03 1.487e-03 -3.578e-03
15 1 3.893e+00 3.893e+00 3.513e-01 -1.496e-03 1.616e-03 -3.316e-03
16 1 5.664e+00 3.894e+00 2.123e+00 -1.618e-03 1.055e-03 -2.250e-03
17 1 7.434e+00 3.894e+00 3.531e-01 -1.194e-03 6.683e-04 -2.147e-03
18 1 9.204e+00 3.892e+00 2.126e+00 -1.987e-03 4.642e-04 -1.709e-03
19 1 3.544e-01 3.557e-01 3.895e+00 5.164e-02 4.127e-02 4.827e-02
20 1 2.125e+00 2.124e+00 3.883e+00 1.974e-02 1.662e-02 2.499e-03
21 1 3.892e+00 3.549e-01 3.898e+00 -2.302e-03 1.065e-03 -1.071e-03
22 1 5.662e+00 2.125e+00 3.897e+00 -3.298e-03 1.810e-03 2.357e-03
23 1 7.435e+00 3.542e-01 3.894e+00 -1.111e-03 7.245e-04 -2.544e-03
24 1 9.206e+00 2.122e+00 3.898e+00 5.413e-02 4.172e-02 4.717e-02
25 1 3.566e-01 3.893e+00 3.895e+00 2.031e-02 1.731e-02 1.756e-02
26 1 3.895e+00 3.891e+00 3.896e+00 -3.374e-03 7.788e-04 1.702e-04
27 1 7.434e+00 3.894e+00 3.895e+00 -1.303e-03 1.085e-03 -2.574e-03
28 1 2.125e+00 3.635e-01 5.673e+00 -1.642e-01 5.363e-02 1.818e-01
29 1 3.607e-01 2.124e+00 5.672e+00 1.654e-01 -6.584e-03 3.332e-01
30 1 5.663e+00 3.562e-01 5.667e+00 -1.256e-02 -1.563e-02 2.195e-02
31 1 3.884e+00 2.123e+00 5.672e+00 -1.518e-01 -1.133e-02 1.620e-02
32 1 9.205e+00 3.570e-01 5.665e+00 5.320e-02 4.218e-02 4.551e-02
33 1 7.433e+00 2.126e+00 5.662e+00 -2.236e-03 -4.760e-04 -6.345e-03
34 1 2.123e+00 3.886e+00 5.674e+00 9.619e-02 -1.404e-02 2.440e-01
35 1 5.660e+00 3.892e+00 5.665e+00 -1.957e-03 1.534e-03 -3.553e-04
36 1 9.207e+00 3.892e+00 5.667e+00 1.022e-01 7.588e-02 8.892e-02
37 1 3.633e-01 3.626e-01 7.434e+00 2.262e-01 3.803e-02 -3.774e-02
38 1 2.126e+00 3.640e-01 9.196e+00 1.880e-01 9.485e-02 -2.299e-01
39 1 3.643e-01 2.125e+00 9.196e+00 2.837e-01 2.914e-02 -4.573e-01
40 1 3.885e+00 3.616e-01 7.433e+00 -2.240e-01 1.157e-01 1.530e-01
41 1 5.673e+00 2.123e+00 7.433e+00 2.605e-04 -1.781e-02 2.175e-02
42 1 5.663e+00 3.544e-01 9.202e+00 1.159e-02 4.130e-04 1.149e-02
43 1 3.885e+00 2.122e+00 9.197e+00 -6.317e-02 2.824e-02 -4.249e-02
44 1 7.434e+00 3.522e-01 7.434e+00 -4.756e-04 2.357e-04 -1.676e-03
45 1 9.195e+00 2.122e+00 7.435e+00 7.394e-02 7.005e-02 7.779e-02
46 1 9.207e+00 3.556e-01 9.203e+00 -1.984e-03 2.213e-04 -1.357e-03
47 1 7.433e+00 2.123e+00 9.205e+00 -5.170e-04 1.085e-03 5.177e-04
48 1 3.652e-01 3.887e+00 7.434e+00 1.700e-01 4.301e-02 1.994e-01
49 1 2.124e+00 3.884e+00 9.195e+00 -2.575e-02 -2.408e-02 -3.226e-02
50 1 3.887e+00 3.887e+00 7.431e+00 -3.564e-02 -4.424e-02 3.606e-02
51 1 5.661e+00 3.893e+00 9.202e+00 -3.388e-03 -4.750e-04 -1.359e-03
52 1 7.432e+00 3.898e+00 7.434e+00 -2.787e-03 -6.526e-06 -2.957e-03
53 1 9.206e+00 3.891e+00 9.202e+00 3.597e-02 2.624e-02 2.755e-02
54 1 2.124e+00 5.661e+00 3.509e-01 -5.621e-05 1.664e-04 -4.956e-03
55 1 3.547e-01 5.664e+00 2.124e+00 -1.300e-03 6.435e-04 -2.421e-03
56 1 5.664e+00 5.663e+00 3.521e-01 -1.719e-03 6.862e-04 -3.302e-03
57 1 3.893e+00 5.662e+00 2.123e+00 -1.878e-03 1.066e-03 -2.634e-03
58 1 9.203e+00 5.664e+00 3.525e-01 -1.003e-03 2.003e-04 -2.653e-03
59 1 7.434e+00 5.663e+00 2.123e+00 -1.621e-03 6.161e-04 -2.618e-03
60 1 3.567e-01 7.436e+00 3.547e-01 -1.896e-03 7.370e-05 -2.881e-03
61 1 2.127e+00 9.206e+00 3.494e-01 1.198e-02 1.040e-02 -1.125e-02
62 1 2.124e+00 7.435e+00 2.125e+00 -1.739e-03 5.538e-04 -3.209e-03
63 1 3.547e-01 9.205e+00 2.123e+00 -2.409e-03 3.189e-04 -2.090e-03
64 1 3.891e+00 7.433e+00 3.510e-01 1.365e-02 9.951e-03 -8.820e-03
65 1 5.663e+00 9.206e+00 3.547e-01 2.555e-02 1.763e-02 -1.281e-02
66 1 5.663e+00 7.433e+00 2.124e+00 -1.589e-03 5.567e-04 -2.946e-03
67 1 3.892e+00 9.203e+00 2.124e+00 -8.363e-04 3.528e-03 -2.796e-03
68 1 7.433e+00 7.434e+00 3.526e-01 -1.701e-03 4.118e-04 -2.823e-03
69 1 9.205e+00 9.207e+00 3.527e-01 -2.340e-03 2.574e-04 -2.146e-03
70 1 9.205e+00 7.434e+00 2.124e+00 -1.755e-03 4.149e-04 -2.719e-03
71 1 7.435e+00 9.205e+00 2.123e+00 -1.679e-03 5.189e-04 -2.604e-03
72 1 2.124e+00 5.660e+00 3.897e+00 -2.819e-03 8.479e-05 -4.493e-04
73 1 5.663e+00 5.663e+00 3.895e+00 -2.142e-03 6.507e-04 -2.035e-03
74 1 9.205e+00 5.664e+00 3.893e+00 -1.366e-03 5.626e-04 -3.084e-03
75 1 3.554e-01 7.434e+00 3.896e+00 -1.470e-03 3.381e-04 -4.034e-03
76 1 2.121e+00 9.207e+00 3.898e+00 -9.383e-04 1.156e-03 -1.419e-03
77 1 3.894e+00 7.435e+00 3.894e+00 -1.639e-03 3.074e-04 -3.453e-03
78 1 5.663e+00 9.206e+00 3.895e+00 -1.295e-03 6.064e-04 -2.533e-03
79 1 7.434e+00 7.435e+00 3.893e+00 -1.536e-03 5.192e-04 -2.991e-03
80 1 9.205e+00 9.204e+00 3.896e+00 -1.400e-03 4.826e-04 -2.832e-03
81 1 3.555e-01 5.660e+00 5.666e+00 4.272e-02 3.009e-02 3.505e-02
82 1 3.894e+00 5.661e+00 5.667e+00 -2.973e-03 -5.548e-04 -3.177e-03
83 1 7.433e+00 5.663e+00 5.666e+00 -1.303e-03 8.841e-04 -2.818e-03
84 1 2.125e+00 7.434e+00 5.663e+00 -2.532e-03 -5.338e-05 -6.986e-03
85 1 3.558e-01 9.207e+00 5.666e+00 -3.252e-04 5.102e-04 -5.178e-03
86 1 5.663e+00 7.435e+00 5.666e+00 -1.470e-03 2.386e-04 -3.535e-03
87 1 3.893e+00 9.206e+00 5.667e+00 -7.553e-03 -8.679e-03 9.961e-03
88 1 9.205e+00 7.433e+00 5.663e+00 -1.500e-03 2.282e-04 -3.759e-03
89 1 7.434e+00 9.204e+00 5.665e+00 -1.291e-03 3.507e-04 -2.857e-03
90 1 2.125e+00 5.674e+00 7.435e+00 3.847e-02 3.130e-02 2.773e-02
91 1 3.556e-01 5.662e+00 9.203e+00 4.747e-02 3.325e-02 3.969e-02
92 1 5.658e+00 5.661e+00 7.434e+00 -3.958e-03 6.123e-04 -2.100e-03
93 1 3.893e+00 5.661e+00 9.204e+00 -1.203e-03 3.648e-04 -6.120e-03
94 1 9.207e+00 5.660e+00 7.433e+00 5.108e-02 3.349e-02 3.959e-02
95 1 7.435e+00 5.663e+00 9.203e+00 -1.524e-03 2.886e-04 -2.968e-03
96 1 3.511e-01 7.435e+00 7.435e+00 -4.742e-03 9.547e-04 -2.662e-03
97 1 2.125e+00 9.192e+00 7.435e+00 -1.048e-02 -1.906e-02 2.032e-02
98 1 2.124e+00 7.435e+00 9.208e+00 -2.001e-03 1.734e-04 1.151e-03
99 1 3.551e-01 9.205e+00 9.204e+00 -2.688e-03 -2.567e-04 -3.678e-03
100 1 3.896e+00 7.436e+00 7.435e+00 1.831e-03 -3.797e-04 -2.880e-03
101 1 5.661e+00 9.207e+00 7.435e+00 -1.510e-02 -1.553e-02 1.837e-02
102 1 5.662e+00 7.433e+00 9.203e+00 -1.287e-03 6.579e-04 -4.501e-03
103 1 3.892e+00 9.207e+00 9.203e+00 8.747e-04 -6.135e-03 1.181e-02
104 1 7.434e+00 7.433e+00 7.434e+00 -1.405e-03 4.061e-04 -3.747e-03
105 1 9.209e+00 9.207e+00 7.434e+00 -1.088e-03 2.244e-04 -3.331e-03
106 1 9.207e+00 7.434e+00 9.203e+00 -1.911e-03 -7.102e-05 -3.142e-03
107 1 7.433e+00 9.205e+00 9.203e+00 -1.908e-03 2.482e-04 -2.665e-03
ITEM: TIMESTEP
0
ITEM: NUMBER OF ATOMS
107
ITEM: BOX BOUNDS xy xz yz pp pp pp
                     0.00000000000000e+00 1.06200000000000e+01 0.00000000000000e+00
0.00000000000000e+00	1.06200000000000e+01	0.00000000000000e+00
0.00000000000000e+00	1.06200000000000e+01	0.00000000000000e+00
ITEM: ATOMS id type x y z DisplacementX DisplacementY DisplacementZ
1 1 3.562e-01 3.560e-01 3.516e-01 2.378e-04 -8.067e-04 -4.054e-03
2 1 2.123e+00 2.125e+00 3.642e-01 1.031e-03 -9.336e-04 1.805e-03
3 1 2.123e+00 3.523e-01 2.124e+00 -1.604e-03 1.878e-03 -1.693e-04
4 1 3.525e-01 2.126e+00 2.123e+00 -3.652e-03 -2.277e-03 -3.350e-04
5 1 3.893e+00 3.557e-01 3.506e-01 -4.065e-02 9.423e-03 -1.769e-02
6 1 5.662e+00 2.123e+00 3.488e-01 -2.751e-02 1.898e-03 -1.208e-02
7 1 5.664e+00 3.541e-01 2.125e+00 -4.112e-03 4.514e-03 -2.219e-03
8 1 3.894e+00 2.123e+00 2.125e+00 1.189e-03 4.803e-03 -1.502e-03
9 1 7.434e+00 3.532e-01 3.523e-01 2.750e-04 1.660e-04 -1.930e-03
10 1 9.207e+00 2.124e+00 3.525e-01 2.380e-03 6.897e-04 -3.818e-03
11 1 9.206e+00 3.540e-01 2.124e+00 5.944e-05 -1.271e-04 -1.623e-03
12 1 7.434e+00 2.125e+00 2.125e+00 2.330e-04 2.330e-04 -1.837e-03
13 1 3.562e-01 3.893e+00 3.531e-01 9.146e-04 3.576e-04 -9.639e-04
14 1 2.124e+00 3.897e+00 2.125e+00 -4.918e-04 1.269e-03 -9.279e-04
15 1 3.893e+00 3.893e+00 3.513e-01 -2.014e-03 -1.224e-03 -4.590e-06
16 1 5.664e+00 3.894e+00 2.123e+00 8.541e-04 -5.825e-04 -1.276e-03
17 1 7.434e+00 3.894e+00 3.531e-01 2.463e-05 -2.832e-04 -1.425e-03
18 1 9.204e+00 3.892e+00 2.126e+00 1.825e-04 5.400e-05 -1.478e-03
19 1 3.544e-01 3.557e-01 3.895e+00 -3.314e-02 1.001e-02 1.454e-03
20 1 2.125e+00 2.124e+00 3.883e+00 -1.392e-02 3.096e-03 -5.196e-03
21 1 3.892e+00 3.549e-01 3.898e+00 9.480e-04 -2.324e-04 -1.182e-04
22 1 5.662e+00 2.125e+00 3.897e+00 -1.130e-03 -1.005e-03 -1.124e-03
23 1 7.435e+00 3.542e-01 3.894e+00 -1.160e-03 2.256e-04 -1.203e-03
24 1 9.206e+00 2.122e+00 3.898e+00 -3.314e-02 1.096e-02 5.933e-04
25 1 3.566e-01 3.893e+00 3.895e+00 -1.230e-02 3.705e-03 -5.599e-04
26 1 3.895e+00 3.891e+00 3.896e+00 2.369e-03 -7.660e-04 -2.371e-03
27 1 7.434e+00 3.894e+00 3.895e+00 -5.850e-04 -1.604e-04 -2.156e-03
28 1 2.125e+00 3.635e-01 5.673e+00 1.001e-01 8.632e-02 -5.976e-02
29 1 3.607e-01 2.124e+00 5.672e+00 2.416e-01 4.018e-02 -2.742e-02
30 1 5.663e+00 3.562e-01 5.667e+00 -2.829e-02 7.266e-03 -3.388e-03
31 1 3.884e+00 2.123e+00 5.672e+00 -2.195e-01 -5.845e-02 1.646e-01
32 1 9.205e+00 3.570e-01 5.665e+00 -3.631e-02 1.025e-02 1.129e-03
33 1 7.433e+00 2.126e+00 5.662e+00 -1.045e-03 -8.811e-04 -2.431e-03
34 1 2.123e+00 3.886e+00 5.674e+00 -9.610e-02 -2.702e-02 1.456e-01
35 1 5.660e+00 3.892e+00 5.665e+00 -2.829e-03 3.849e-04 -2.875e-03
36 1 9.207e+00 3.892e+00 5.667e+00 -2.687e-02 1.787e-02 1.493e-02
37 1 3.633e-01 3.626e-01 7.434e+00 2.313e-01 1.439e-01 5.005e-03
38 1 2.126e+00 3.640e-01 9.196e+00 -1.613e-01 8.883e-04 6.937e-02
39 1 3.643e-01 2.125e+00 9.196e+00 2.334e-02 5.235e-02 -9.733e-05
40 1 3.885e+00 3.616e-01 7.433e+00 -1.456e-01 -1.402e-02 -2.720e-02
41 1 5.673e+00 2.123e+00 7.433e+00 -1.772e-02 1.330e-02 -8.854e-03
42 1 5.663e+00 3.544e-01 9.202e+00 -5.135e-02 1.076e-02 -1.684e-02
43 1 3.885e+00 2.122e+00 9.197e+00 -1.632e-01 -1.808e-02 -8.433e-02
44 1 7.434e+00 3.522e-01 7.434e+00 -6.592e-04 -2.402e-03 -1.308e-03
45 1 9.195e+00 2.122e+00 7.435e+00 -5.725e-02 8.511e-03 8.593e-03
46 1 9.207e+00 3.556e-01 9.203e+00 -9.410e-05 3.239e-04 -2.992e-03
47 1 7.433e+00 2.123e+00 9.205e+00 -4.915e-04 1.062e-04 1.509e-05
48 1 3.652e-01 3.887e+00 7.434e+00 5.189e-02 2.431e-03 -7.172e-02
49 1 2.124e+00 3.884e+00 9.195e+00 -1.211e-01 -3.055e-02 -2.468e-01
50 1 3.887e+00 3.887e+00 7.431e+00 -1.651e-01 -3.190e-02 2.709e-02
51 1 5.661e+00 3.893e+00 9.202e+00 -3.058e-03 -1.182e-03 -1.374e-03
52 1 7.432e+00 3.898e+00 7.434e+00 -1.059e-03 1.869e-03 1.801e-04
53 1 9.206e+00 3.891e+00 9.202e+00 -7.211e-03 5.123e-03 4.648e-03
54 1 2.124e+00 5.661e+00 3.509e-01 4.173e-04 -1.763e-03 -1.908e-04
55 1 3.547e-01 5.664e+00 2.124e+00 1.063e-03 -2.091e-04 -1.298e-03
56 1 5.664e+00 5.663e+00 3.521e-01 1.274e-04 -9.147e-04 -9.691e-04
57 1 3.893e+00 5.662e+00 2.123e+00 1.036e-03 -5.767e-04 -1.270e-03
58 1 9.203e+00 5.664e+00 3.525e-01 7.239e-04 -4.545e-05 -1.336e-03
59 1 7.434e+00 5.663e+00 2.123e+00 3.696e-04 -2.152e-04 -1.470e-03
60 1 3.567e-01 7.436e+00 3.547e-01 1.701e-03 -4.040e-04 -1.124e-03
61 1 2.127e+00 9.206e+00 3.494e-01 -1.192e-02 2.925e-03 -9.006e-03
62 1 2.124e+00 7.435e+00 2.125e+00 1.605e-03 -3.171e-04 -1.306e-03
63 1 3.547e-01 9.205e+00 2.123e+00 7.809e-04 2.423e-05 -1.548e-03
64 1 3.891e+00 7.433e+00 3.510e-01 -1.227e-02 1.039e-03 -7.198e-03
65 1 5.663e+00 9.206e+00 3.547e-01 -2.359e-02 3.029e-03 -1.240e-02
66 1 5.663e+00 7.433e+00 2.124e+00 6.574e-04 -2.390e-04 -1.344e-03
67 1 3.892e+00 9.203e+00 2.124e+00 -1.070e-03 4.258e-03 -4.438e-04
68 1 7.433e+00 7.434e+00 3.526e-01 4.979e-04 -2.333e-04 -1.443e-03
69 1 9.205e+00 9.207e+00 3.527e-01 1.096e-03 -1.523e-04 -2.117e-03
70 1 9.205e+00 7.434e+00 2.124e+00 4.242e-04 -2.008e-04 -1.366e-03
71 1 7.435e+00 9.205e+00 2.123e+00 2.344e-04 -4.608e-05 -1.418e-03
72 1 2.124e+00 5.660e+00 3.897e+00 2.083e-03 -1.274e-03 -2.105e-03
73 1 5.663e+00 5.663e+00 3.895e+00 5.236e-04 -4.652e-04 -1.983e-03
74 1 9.205e+00 5.664e+00 3.893e+00 3.553e-04 -1.308e-04 -1.477e-03
75 1 3.554e-01 7.434e+00 3.896e+00 9.134e-06 -4.336e-04 -1.246e-03
76 1 2.121e+00 9.207e+00 3.898e+00 5.754e-04 -1.501e-04 1.149e-03
77 1 3.894e+00 7.435e+00 3.894e+00 8.550e-04 -6.739e-04 -1.238e-03
78 1 5.663e+00 9.206e+00 3.895e+00 3.079e-04 -2.404e-04 -8.411e-04
79 1 7.434e+00 7.435e+00 3.893e+00 1.624e-04 -2.490e-04 -1.474e-03
80 1 9.205e+00 9.204e+00 3.896e+00 -2.393e-04 1.367e-06 -1.114e-03
81 1 3.555e-01 5.660e+00 5.666e+00 9.838e-03 7.925e-03 1.590e-02
82 1 3.894e+00 5.661e+00 5.667e+00 8.910e-04 -1.081e-03 -1.751e-03
83 1 7.433e+00 5.663e+00 5.666e+00 -5.724e-04 -4.292e-05 -1.855e-03
84 1 2.125e+00 7.434e+00 5.663e+00 -6.465e-04 -2.067e-04 -1.559e-03
85 1 3.558e-01 9.207e+00 5.666e+00 -4.260e-05 -1.779e-03 -8.633e-04
86 1 5.663e+00 7.435e+00 5.666e+00 1.084e-03 -6.171e-04 -1.358e-03
87 1 3.893e+00 9.206e+00 5.667e+00 -1.396e-02 3.251e-03 -1.670e-03
88 1 9.205e+00 7.433e+00 5.663e+00 -3.342e-04 -5.016e-04 -1.174e-03
89 1 7.434e+00 9.204e+00 5.665e+00 -7.133e-04 6.535e-05 -1.204e-03
90 1 2.125e+00 5.674e+00 7.435e+00 1.266e-02 1.313e-02 1.923e-02
91 1 3.556e-01 5.662e+00 9.203e+00 8.012e-03 7.731e-03 1.507e-02
92 1 5.658e+00 5.661e+00 7.434e+00 -1.965e-03 -3.129e-03 -2.037e-03
93 1 3.893e+00 5.661e+00 9.204e+00 6.834e-04 -1.024e-03 -1.375e-04
94 1 9.207e+00 5.660e+00 7.433e+00 8.490e-03 8.215e-03 1.454e-02
95 1 7.435e+00 5.663e+00 9.203e+00 1.145e-04 -6.759e-04 -1.618e-03
96 1 3.511e-01 7.435e+00 7.435e+00 -2.806e-03 -1.807e-03 6.852e-04
97 1 2.125e+00 9.192e+00 7.435e+00 -2.533e-02 -1.110e-03 -5.113e-03
98 1 2.124e+00 7.435e+00 9.208e+00 3.150e-04 -1.471e-03 4.585e-05
99 1 3.551e-01 9.205e+00 9.204e+00 3.841e-03 -4.947e-04 -1.963e-03
100 1 3.896e+00 7.436e+00 7.435e+00 2.547e-03 1.211e-03 -1.452e-03
101 1 5.661e+00 9.207e+00 7.435e+00 -2.692e-02 7.669e-03 -3.319e-03
102 1 5.662e+00 7.433e+00 9.203e+00 8.417e-04 -2.959e-04 -1.142e-03
103 1 3.892e+00 9.207e+00 9.203e+00 -3.897e-02 9.012e-03 -9.759e-03
104 1 7.434e+00 7.433e+00 7.434e+00 2.797e-04 -4.767e-04 -1.939e-03
105 1 9.209e+00 9.207e+00 7.434e+00 1.248e-03 1.139e-03 -2.223e-03
106 1 9.207e+00 7.434e+00 9.203e+00 9.096e-04 -2.328e-04 -1.320e-03
107 1 7.433e+00 9.205e+00 9.203e+00 -1.446e-04 5.853e-05 -2.014e-03
ITEM: TIMESTEP
0
ITEM: NUMBER OF ATOMS
107
ITEM: BOX BOUNDS xy xz yz pp pp pp
                     0.00000000000000e+00 1.06200000000000e+01 0.00000000000000e+00
0.00000000000000e+00	1.06200000000000e+01	0.00000000000000e+00
0.00000000000000e+00	1.06200000000000e+01	0.00000000000000e+00
ITEM: ATOMS id type x y z DisplacementX DisplacementY DisplacementZ
1 1 3.562e-01 3.560e-01 3.516e-01 -5.855e-04 -1.583e-03 -3.560e-03
2 1 2.123e+00 2.125e+00 3.642e-01 1.557e-03 -1.552e-03 1.333e-02
3 1 2.123e+00 3.523e-01 2.124e+00 -5.035e-04 -4.665e-03 -2.362e-03
4 1 3.525e-01 2.126e+00 2.123e+00 2.641e-03 -5.879e-04 -2.606e-03
5 1 3.893e+00 3.557e-01 3.506e-01 -1.607e-02 -1.753e-02 -1.847e-02
6 1 5.662e+00 2.123e+00 3.488e-01 -7.963e-03 -1.392e-02 -1.503e-02
7 1 5.664e+00 3.541e-01 2.125e+00 -3.338e-03 -1.206e-03 -4.046e-03
8 1 3.894e+00 2.123e+00 2.125e+00 -2.842e-03 -7.288e-04 -3.851e-03
9 1 7.434e+00 3.532e-01 3.523e-01 -2.305e-05 -1.618e-03 -2.402e-03
10 1 9.207e+00 2.124e+00 3.525e-01 -1.582e-03 -3.392e-03 -5.694e-03
11 1 9.206e+00 3.540e-01 2.124e+00 2.411e-04 -1.519e-03 -3.123e-03
12 1 7.434e+00 2.125e+00 2.125e+00 -2.704e-04 -2.042e-03 -3.211e-03
13 1 3.562e-01 3.893e+00 3.531e-01 -2.447e-04 -3.194e-03 -6.028e-03
14 1 2.124e+00 3.897e+00 2.125e+00 1.941e-04 3.013e-03 -2.687e-03
15 1 3.893e+00 3.893e+00 3.513e-01 4.599e-04 -1.784e-03 -4.044e-03
16 1 5.664e+00 3.894e+00 2.123e+00 4.115e-04 -1.708e-03 -2.901e-03
17 1 7.434e+00 3.894e+00 3.531e-01 4.118e-04 -2.339e-03 -2.872e-03
18 1 9.204e+00 3.892e+00 2.126e+00 3.236e-04 -2.079e-03 -3.688e-03
19 1 3.544e-01 3.557e-01 3.895e+00 8.640e-03 4.079e-02 3.753e-02
20 1 2.125e+00 2.124e+00 3.883e+00 1.937e-03 1.185e-02 -5.624e-03
21 1 3.892e+00 3.549e-01 3.898e+00 -2.910e-04 -3.133e-04 -1.161e-03
22 1 5.662e+00 2.125e+00 3.897e+00 4.226e-04 -2.048e-03 1.977e-04
23 1 7.435e+00 3.542e-01 3.894e+00 1.739e-04 -1.477e-03 -3.320e-03
24 1 9.206e+00 2.122e+00 3.898e+00 7.783e-03 4.085e-02 3.827e-02
25 1 3.566e-01 3.893e+00 3.895e+00 3.282e-03 1.449e-02 1.369e-02
26 1 3.895e+00 3.891e+00 3.896e+00 1.093e-03 -3.106e-03 -1.221e-03
27 1 7.434e+00 3.894e+00 3.895e+00 -3.515e-04 -1.760e-03 -3.408e-03
28 1 2.125e+00 3.635e-01 5.673e+00 -2.173e-02 2.205e-01 3.784e-01
29 1 3.607e-01 2.124e+00 5.672e+00 -2.567e-02 1.322e-01 3.532e-01
30 1 5.663e+00 3.562e-01 5.667e+00 -9.472e-03 -1.241e-02 3.020e-03
31 1 3.884e+00 2.123e+00 5.672e+00 5.911e-02 1.199e-01 1.772e-01
32 1 9.205e+00 3.570e-01 5.665e+00 7.995e-03 4.037e-02 3.748e-02
33 1 7.433e+00 2.126e+00 5.662e+00 6.983e-04 -1.975e-03 -6.964e-03
34 1 2.123e+00 3.886e+00 5.674e+00 2.604e-03 -2.384e-01 1.166e-01
35 1 5.660e+00 3.892e+00 5.665e+00 -1.207e-03 -3.927e-03 -2.396e-03
36 1 9.207e+00 3.892e+00 5.667e+00 3.963e-02 7.627e-02 8.984e-02
37 1 3.633e-01 3.626e-01 7.434e+00 -4.330e-02 1.821e-01 4.016e-02
38 1 2.126e+00 3.640e-01 9.196e+00 4.143e-02 1.254e-01 -2.579e-01
39 1 3.643e-01 2.125e+00 9.196e+00 2.871e-02 2.170e-02 -1.602e-01
40 1 3.885e+00 3.616e-01 7.433e+00 4.400e-02 1.632e-01 8.310e-02
41 1 5.673e+00 2.123e+00 7.433e+00 -1.586e-02 -1.720e-02 2.259e-04
42 1 5.663e+00 3.544e-01 9.202e+00 -1.876e-02 -2.496e-02 -6.309e-03
43 1 3.885e+00 2.122e+00 9.197e+00 -8.869e-03 2.324e-02 -7.929e-02
44 1 7.434e+00 3.522e-01 7.434e+00 7.368e-04 -5.945e-03 -3.033e-03
45 1 9.195e+00 2.122e+00 7.435e+00 2.694e-02 6.596e-02 6.984e-02
46 1 9.207e+00 3.556e-01 9.203e+00 -1.168e-03 -1.972e-03 -2.521e-03
47 1 7.433e+00 2.123e+00 9.205e+00 1.087e-03 -1.213e-03 1.525e-03
48 1 3.652e-01 3.887e+00 7.434e+00 -3.668e-03 -1.717e-01 1.160e-01
49 1 2.124e+00 3.884e+00 9.195e+00 2.198e-02 -1.946e-01 -1.828e-01
50 1 3.887e+00 3.887e+00 7.431e+00 4.925e-02 -1.490e-01 -6.370e-02
51 1 5.661e+00 3.893e+00 9.202e+00 5.822e-04 -3.961e-03 -4.495e-03
52 1 7.432e+00 3.898e+00 7.434e+00 4.338e-04 3.236e-03 -2.486e-03
53 1 9.206e+00 3.891e+00 9.202e+00 1.498e-02 2.292e-02 2.844e-02
54 1 2.124e+00 5.661e+00 3.509e-01 1.356e-03 -4.024e-03 -5.563e-03
55 1 3.547e-01 5.664e+00 2.124e+00 3.678e-04 -1.325e-03 -3.382e-03
56 1 5.664e+00 5.663e+00 3.521e-01 7.388e-04 -1.482e-03 -3.020e-03
57 1 3.893e+00 5.662e+00 2.123e+00 6.625e-04 -1.294e-03 -2.595e-03
58 1 9.203e+00 5.664e+00 3.525e-01 4.967e-04 -1.852e-03 -3.192e-03
59 1 7.434e+00 5.663e+00 2.123e+00 3.405e-04 -1.342e-03 -2.920e-03
60 1 3.567e-01 7.436e+00 3.547e-01 7.398e-04 -7.774e-04 -1.833e-03
61 1 2.127e+00 9.206e+00 3.494e-01 -5.918e-03 -4.494e-03 -9.581e-03
62 1 2.124e+00 7.435e+00 2.125e+00 4.657e-04 -5.186e-04 -2.582e-03
63 1 3.547e-01 9.205e+00 2.123e+00 2.908e-04 -1.578e-03 -2.532e-03
64 1 3.891e+00 7.433e+00 3.510e-01 -4.489e-03 -7.322e-03 -7.487e-03
65 1 5.663e+00 9.206e+00 3.547e-01 -8.852e-03 -1.265e-02 -1.218e-02
66 1 5.663e+00 7.433e+00 2.124e+00 4.164e-04 -1.029e-03 -2.692e-03
67 1 3.892e+00 9.203e+00 2.124e+00 -1.817e-03 1.007e-03 -2.324e-03
68 1 7.433e+00 7.434e+00 3.526e-01 4.200e-04 -1.170e-03 -2.594e-03
69 1 9.205e+00 9.207e+00 3.527e-01 1.283e-05 -1.035e-03 -2.416e-03
70 1 9.205e+00 7.434e+00 2.124e+00 4.400e-04 -1.097e-03 -2.795e-03
71 1 7.435e+00 9.205e+00 2.123e+00 2.665e-04 -1.260e-03 -2.766e-03
72 1 2.124e+00 5.660e+00 3.897e+00 9.120e-04 -2.771e-03 1.660e-04
73 1 5.663e+00 5.663e+00 3.895e+00 3.161e-04 -1.526e-03 -2.261e-03
74 1 9.205e+00 5.664e+00 3.893e+00 1.484e-04 -1.111e-03 -2.885e-03
75 1 3.554e-01 7.434e+00 3.896e+00 6.785e-04 -8.750e-05 -3.075e-03
76 1 2.121e+00 9.207e+00 3.898e+00 1.282e-03 1.784e-03 -5.627e-04
77 1 3.894e+00 7.435e+00 3.894e+00 5.888e-04 -3.994e-04 -2.655e-03
78 1 5.663e+00 9.206e+00 3.895e+00 3.725e-04 -7.024e-04 -2.433e-03
79 1 7.434e+00 7.435e+00 3.893e+00 3.418e-04 -1.059e-03 -2.892e-03
80 1 9.205e+00 9.204e+00 3.896e+00 6.268e-04 -9.351e-04 -2.868e-03
81 1 3.555e-01 5.660e+00 5.666e+00 3.281e-02 3.034e-02 4.830e-02
82 1 3.894e+00 5.661e+00 5.667e+00 2.592e-04 6.263e-04 -9.733e-04
83 1 7.433e+00 5.663e+00 5.666e+00 -1.464e-04 -1.370e-03 -2.958e-03
84 1 2.125e+00 7.434e+00 5.663e+00 8.775e-06 -1.387e-03 -6.738e-03
85 1 3.558e-01 9.207e+00 5.666e+00 1.978e-03 1.394e-03 -3.101e-03
86 1 5.663e+00 7.435e+00 5.666e+00 7.524e-04 -5.121e-04 -2.131e-03
87 1 3.893e+00 9.206e+00 5.667e+00 -4.485e-03 -7.289e-03 2.156e-03
88 1 9.205e+00 7.433e+00 5.663e+00 7.014e-04 -5.181e-04 -2.716e-03
89 1 7.434e+00 9.204e+00 5.665e+00 1.632e-04 -1.102e-03 -2.711e-03
90 1 2.125e+00 5.674e+00 7.435e+00 3.089e-02 5.105e-02 4.902e-02
91 1 3.556e-01 5.662e+00 9.203e+00 3.306e-02 3.267e-02 5.113e-02
92 1 5.658e+00 5.661e+00 7.434e+00 1.264e-03 -3.942e-03 -2.294e-03
93 1 3.893e+00 5.661e+00 9.204e+00 1.806e-03 2.980e-05 -1.997e-03
94 1 9.207e+00 5.660e+00 7.433e+00 3.240e-02 3.136e-02 5.053e-02
95 1 7.435e+00 5.663e+00 9.203e+00 6.010e-04 -1.776e-03 -3.175e-03
96 1 3.511e-01 7.435e+00 7.435e+00 1.705e-03 -8.866e-04 -2.235e-03
97 1 2.125e+00 9.192e+00 7.435e+00 -6.342e-03 -2.999e-02 3.840e-03
98 1 2.124e+00 7.435e+00 9.208e+00 2.020e-03 -1.041e-03 8.806e-04
99 1 3.551e-01 9.205e+00 9.204e+00 9.056e-04 6.069e-04 -1.603e-03
100 1 3.896e+00 7.436e+00 7.435e+00 5.925e-04 -1.287e-03 -2.475e-03
101 1 5.661e+00 9.207e+00 7.435e+00 -9.007e-03 -9.633e-03 3.466e-03
102 1 5.662e+00 7.433e+00 9.203e+00 5.568e-04 -4.168e-04 -2.415e-03
103 1 3.892e+00 9.207e+00 9.203e+00 -1.495e-02 -1.783e-02 -2.173e-03
104 1 7.434e+00 7.433e+00 7.434e+00 1.231e-04 -7.944e-04 -2.529e-03
105 1 9.209e+00 9.207e+00 7.434e+00 -4.143e-04 1.490e-03 -2.180e-03
106 1 9.207e+00 7.434e+00 9.203e+00 6.178e-04 -7.752e-04 -2.118e-03
107 1 7.433e+00 9.205e+00 9.203e+00 -3.867e-05 -1.208e-03 -2.496e-03
ITEM: TIMESTEP
0
ITEM: NUMBER OF ATOMS
107
ITEM: BOX BOUNDS xy xz yz pp pp pp