ITEM: TIMESTEP
0
ITEM: NUMBER OF ATOMS
24
ITEM: BOX BOUNDS xy xz yz pp pp pp
                     -5.00000000000000e-01 5.00000000000000e-01 0.00000000000000e+00
-5.00000000000000e-01	5.00000000000000e-01	0.00000000000000e+00
-5.00000000000000e-01	5.00000000000000e-01	0.00000000000000e+00
ITEM: ATOMS id type x y DisplacementX DisplacementY
1 1 0.000e+00 0.000e+00 4.470e-08 6.706e-08
2 1 2.000e-01 0.000e+00 -2.980e-08 5.960e-08
3 1 4.000e-01 0.000e+00 2.235e-08 5.960e-08
4 1 6.000e-01 0.000e+00 -2.980e-08 5.960e-08
5 1 8.000e-01 0.000e+00 4.470e-08 6.706e-08
6 1 0.000e+00 2.000e-01 6.706e-08 1.490e-08
7 1 2.000e-01 2.000e-01 -7.451e-08 1.490e-08
8 1 4.000e-01 2.000e-01 2.235e-08 -5.960e-08
9 1 6.000e-01 2.000e-01 -6.706e-08 0.000e+00
10 1 8.000e-01 2.000e-01 4.470e-08 6.706e-08
11 1 0.000e+00 4.000e-01 1.043e-07 7.451e-08
12 1 2.000e-01 4.000e-01 -6.706e-08 0.000e+00
13 1 4.000e-01 4.000e-01 -7.451e-08 2.980e-08
14 1 6.000e-01 4.000e-01 -2.980e-08 -2.980e-08
15 1 8.000e-01 4.000e-01 4.470e-08 6.706e-08
16 1 0.000e+00 6.000e-01 -5.215e-08 -3.725e-08
17 1 2.000e-01 6.000e-01 6.706e-08 8.941e-08
18 1 6.000e-01 6.000e-01 -1.000e+00 -2.980e-08
19 1 8.000e-01 6.000e-01 -7.451e-09 5.215e-08
20 1 0.000e+00 8.000e-01 -7.451e-08 2.980e-08
21 1 2.000e-01 8.000e-01 2.980e-08 -2.310e-07
22 1 4.000e-01 8.000e-01 -6.706e-08 0.000e+00
23 1 6.000e-01 8.000e-01 -7.451e-08 -7.451e-09
24 1 8.000e-01 8.000e-01 -7.451e-09 5.215e-08
ITEM: TIMESTEP
0
ITEM: NUMBER OF ATOMS
24
ITEM: BOX BOUNDS xy xz yz pp pp pp
                     -5.00000000000000e-01 5.00000000000000e-01 0.00000000000000e+00
-5.00000000000000e-01	5.00000000000000e-01	0.00000000000000e+00
-5.00000000000000e-01	5.00000000000000e-01	0.00000000000000e+00
ITEM: ATOMS id type x y DisplacementX DisplacementY
1 1 0.000e+00 0.000e+00 -1.490e-08 -1.863e-08
2 1 2.000e-01 0.000e+00 -2.235e-08 -4.098e-08
3 1 4.000e-01 0.000e+00 5.215e-08 1.490e-08
4 1 6.000e-01 0.000e+00 -2.235e-08 -4.098e-08
5 1 8.000e-01 0.000e+00 -1.490e-08 -1.863e-08
6 1 0.000e+00 2.000e-01 9.686e-08 -5.588e-08
7 1 2.000e-01 2.000e-01 -1.490e-08 9.313e-08
8 1 4.000e-01 2.000e-01 -3.725e-08 3.353e-08
9 1 6.000e-01 2.000e-01 -7.451e-09 -3.333e-01
10 1 8.000e-01 2.000e-01 -1.490e-08 -1.863e-08
11 1 0.000e+00 4.000e-01 1.714e-07 0.000e+00
12 1 2.000e-01 4.000e-01 -7.451e-09 -3.333e-01
13 1 4.000e-01 4.000e-01 -2.980e-08 1.118e-08
14 1 6.000e-01 4.000e-01 -9.686e-08 6.706e-08
15 1 8.000e-01 4.000e-01 -1.490e-08 -1.863e-08
16 1 0.000e+00 6.000e-01 1.118e-07 4.470e-08
17 1 2.000e-01 6.000e-01 -9.686e-08 6.706e-08
18 1 6.000e-01 6.000e-01 2.980e-08 1.490e-08
19 1 8.000e-01 6.000e-01 1.490e-08 5.215e-08
20 1 0.000e+00 8.000e-01 -2.980e-08 1.118e-08
21 1 2.000e-01 8.000e-01 -8.196e-08 -4.470e-08
22 1 4.000e-01 8.000e-01 -7.451e-09 -3.333e-01
23 1 6.000e-01 8.000e-01 5.960e-08 -3.353e-08
24 1 8.000e-01 8.000e-01 1.490e-08 5.215e-08
ITEM: TIMESTEP
0
ITEM: NUMBER OF ATOMS
24
ITEM: BOX BOUNDS xy xz yz pp pp pp
                     -5.00000000000000e-01 5.00000000000000e-01 0.00000000000000e+00
-5.00000000000000e-01	5.00000000000000e-01	0.00000000000000e+00
-5.00000000000000e-01	5.00000000000000e-01	0.00000000000000e+00
ITEM: ATOMS id type x y DisplacementX DisplacementY
1 1 0.000e+00 0.000e+00 7.451e-08 0.000e+00
2 1 2.000e-01 0.000e+00 -7.451e-08 2.608e-08
3 1 4.000e-01 0.000e+00 -2.235e-08 5.215e-08
4 1 6.000e-01 0.000e+00 -7.451e-08 2.608e-08
5 1 8.000e-01 0.000e+00 7.451e-08 0.000e+00
6 1 0.000e+00 2.000e-01 0.000e+00 1.006e-07
7 1 2.000e-01 2.000e-01 1.490e-08 6.706e-08
8 1 4.000e-01 2.000e-01 7.451e-08 -5.960e-08
9 1 6.000e-01 2.000e-01 -3.725e-08 3.353e-08
10 1 8.000e-01 2.000e-01 7.451e-08 0.000e+00
11 1 0.000e+00 4.000e-01 -6.706e-08 4.098e-08
12 1 2.000e-01 4.000e-01 -3.725e-08 3.353e-08
13 1 4.000e-01 4.000e-01 -3.725e-08 4.843e-08
14 1 6.000e-01 4.000e-01 -2.235e-08 -8.568e-08
15 1 8.000e-01 4.000e-01 7.451e-08 0.000e+00
16 1 0.000e+00 6.000e-01 1.490e-08 1.118e-08
17 1 2.000e-01 6.000e-01 1.000e+00 -7.451e-09
18 1 6.000e-01 6.000e-01 -1.490e-08 -5.588e-08
19 1 8.000e-01 6.000e-01 7.451e-09 6.333e-08
20 1 0.000e+00 8.000e-01 -3.725e-08 4.843e-08
21 1 2.000e-01 8.000e-01 5.215e-08 -2.608e-08
22 1 4.000e-01 8.000e-01 -3.725e-08 3.353e-08
23 1 6.000e-01 8.000e-01 -2.980e-08 -9.686e-08
24 1 8.000e-01 8.000e-01 7.451e-09 6.333e-08
ITEM: TIMESTEP
0
ITEM: NUMBER OF ATOMS
24
ITEM: BOX BOUNDS xy xz yz pp pp pp
                     -5.00000000000000e-01 5.00000000000000e-01 0.00000000000000e+00
-5.00000000000000e-01	5.00000000000000e-01	0.00000000000000e+00
-5.00000000000000e-01	5.00000000000000e-01	0.00000000000000e+00
ITEM: ATOMS id type x y DisplacementX DisplacementY
1 1 0.000e+00 0.000e+00 1.304e-08 2.421e-08
2 1 2.000e-01 0.000e+00 -1.118e-08 -9.686e-08
3 1 4.000e-01 0.000e+00 -1.863e-08 1.490e-08
4 1 6.000e-01 0.000e+00 -1.118e-08 -9.686e-08
5 1 8.000e-01 0.000e+00 1.304e-08 2.421e-08
6 1 0.000e+00 2.000e-01 -9.313e-08 -5.029e-08
7 1 2.000e-01 2.000e-01 2.421e-08 2.235e-08
8 1 4.000e-01 2.000e-01 6.892e-08 1.863e-09
9 1 6.000e-01 2.000e-01 -6.147e-08 -7.451e-09
10 1 8.000e-01 2.000e-01 1.304e-08 2.421e-08
11 1 0.000e+00 4.000e-01 -1.863e-08 -4.657e-08
12 1 2.000e-01 4.000e-01 -6.147e-08 -7.451e-09
13 1 4.000e-01 4.000e-01 -7.451e-09 5.000e-01
14 1 6.000e-01 4.000e-01 -1.304e-08 -4.843e-08
15 1 8.000e-01 4.000e-01 1.304e-08 2.421e-08
16 1 0.000e+00 6.000e-01 -1.080e-07 -1.863e-08
17 1 2.000e-01 6.000e-01 -5.588e-09 1.267e-07
18 1 6.000e-01 6.000e-01 -8.009e-08 9.313e-09
19 1 8.000e-01 6.000e-01 -2.235e-08 3.725e-08
20 1 0.000e+00 8.000e-01 -7.451e-09 5.000e-01
21 1 2.000e-01 8.000e-01 -1.304e-08 5.029e-08
22 1 4.000e-01 8.000e-01 -6.147e-08 -7.451e-09
23 1 6.000e-01 8.000e-01 6.333e-08 1.304e-08
24 1 8.000e-01 8.000e-01 -2.235e-08 3.725e-08
