ITEM: TIMESTEP
0
ITEM: NUMBER OF ATOMS
6
ITEM: BOX BOUNDS xy xz yz pp pp pp
                     -5.00000000000000e-01 5.00000000000000e-01 0.00000000000000e+00
-5.00000000000000e-01	5.00000000000000e-01	0.00000000000000e+00
-5.00000000000000e-01	5.00000000000000e-01	0.00000000000000e+00
ITEM: ATOMS id type x y z DisplacementX DisplacementY DisplacementZ
1 1 2.000e-01 2.000e-01 2.000e-01 -2.345e-02 2.039e-02 3.888e-03
2 1 2.000e-01 0.000e+00 4.000e-01 3.701e-03 3.020e-03 6.892e-03
3 1 2.000e-01 2.000e-01 4.000e-01 1.768e-02 1.555e-02 1.844e-01
4 1 0.000e+00 2.000e-01 4.000e-01 7.970e-03 1.237e-02 -1.009e-02
5 1 2.000e-01 4.000e-01 4.000e-01 9.838e-03 3.537e-03 2.010e-03
6 1 4.000e-01 2.000e-01 4.000e-01 -6.698e-03 2.757e-03 -1.495e-02
ITEM: TIMESTEP
0
ITEM: NUMBER OF ATOMS
6
ITEM: BOX BOUNDS xy xz yz pp pp pp
                     -5.00000000000000e-01 5.00000000000000e-01 0.00000000000000e+00
-5.00000000000000e-01	5.00000000000000e-01	0.00000000000000e+00
-5.00000000000000e-01	5.00000000000000e-01	0.00000000000000e+00
ITEM: ATOMS id type x y z DisplacementX DisplacementY DisplacementZ
7 1 6.000e-01 2.000e-01 6.000e-01 -3.701e-03 -2.482e-02 5.922e-03
8 1 4.000e-01 2.000e-01 8.000e-01 1.306e-02 -1.862e-03 -1.615e-02
9 1 4.000e-01 2.000e-01 6.000e-01 -1.901e-01 -6.258e-03 1.021e-02
10 1 4.000e-01 4.000e-01 6.000e-01 -7.236e-04 2.015e-03 -1.301e-02
11 1 4.000e-01 0.000e+00 6.000e-01 -1.685e-03 9.082e-03 -2.649e-03
12 1 4.000e-01 2.000e-01 4.000e-01 3.638e-03 -1.364e-02 3.070e-03
ITEM: TIMESTEP
0
ITEM: NUMBER OF ATOMS
6
ITEM: BOX BOUNDS xy xz yz pp pp pp
                     -5.00000000000000e-01 5.00000000000000e-01 0.00000000000000e+00
-5.00000000000000e-01	5.00000000000000e-01	0.00000000000000e+00
-5.00000000000000e-01	5.00000000000000e-01	0.00000000000000e+00
ITEM: ATOMS id type x y z DisplacementX DisplacementY DisplacementZ
13 1 2.000e-01 0.000e+00 4.000e-01 -9.879e-03 2.196e-03 1.467e-02
14 1 2.000e-01 8.000e-01 6.000e-01 -2.200e-04 2.912e-03 3.253e-03
15 1 2.000e-01 0.000e+00 8.000e-01 -1.535e-02 3.176e-03 4.666e-03
16 1 2.000e-01 0.000e+00 6.000e-01 9.044e-03 2.125e-01 8.808e-03
17 1 4.000e-01 0.000e+00 6.000e-01 -7.389e-04 3.139e-03 2.007e-03
18 1 0.000e+00 0.000e+00 6.000e-01 7.568e-03 3.837e-03 -3.608e-03
ITEM: TIMESTEP
0
ITEM: NUMBER OF ATOMS
6
ITEM: BOX BOUNDS xy xz yz pp pp pp
                     -5.00000000000000e-01 5.00000000000000e-01 0.00000000000000e+00
-5.00000000000000e-01	5.00000000000000e-01	0.00000000000000e+00
-5.00000000000000e-01	5.00000000000000e-01	0.00000000000000e+00
ITEM: ATOMS id type x y z DisplacementX DisplacementY DisplacementZ
19 1 0.000e+00 4.000e-01 6.000e-01 -3.419e-03 1.393e-02 -1.484e-02
20 1 2.000e-01 4.000e-01 4.000e-01 -9.354e-03 1.377e-04 -1.215e-02
21 1 2.000e-01 6.000e-01 6.000e-01 3.661e-03 1.030e-02 6.529e-03
22 1 4.000e-01 4.000e-01 6.000e-01 -1.532e-02 1.350e-02 8.205e-04
23 1 2.000e-01 4.000e-01 6.000e-01 -6.697e-04 -2.011e-01 -3.432e-03
24 1 2.000e-01 4.000e-01 8.000e-01 1.830e-02 -1.419e-02 1.058e-02
