ITEM: TIMESTEP
0
ITEM: NUMBER OF ATOMS
107
ITEM: BOX BOUNDS xy xz yz pp pp pp
                     0.00000000000000e+00 1.06200000000000e+01 0.00000000000000e+00
0.00000000000000e+00	1.06200000000000e+01	0.00000000000000e+00
0.00000000000000e+00	1.06200000000000e+01	0.00000000000000e+00
ITEM: ATOMS id type x y z DisplacementX DisplacementY DisplacementZ
1 1 3.543e-01 3.554e-01 3.514e-01 -6.633e-03 -1.671e-02 3.586e-02
2 1 2.123e+00 2.126e+00 3.644e-01 -4.728e-02 1.795e-02 3.412e-02
3 1 2.125e+00 3.512e-01 2.124e+00 1.454e-02 2.334e-02 3.155e-02
4 1 3.516e-01 2.123e+00 2.125e+00 -1.965e-02 1.332e-02 5.968e-02
5 1 3.892e+00 3.566e-01 3.523e-01 -3.009e-03 -2.606e-02 -2.252e-02
6 1 5.658e+00 2.124e+00 3.501e-01 -1.854e-02 -2.404e-02 -2.637e-02
7 1 5.664e+00 3.559e-01 2.125e+00 -7.503e-03 1.993e-02 1.813e-02
8 1 3.896e+00 2.125e+00 2.123e+00 -1.073e-02 -1.709e-02 3.533e-03
9 1 7.435e+00 3.538e-01 3.520e-01 -2.509e-02 2.117e-02 2.007e-02
10 1 9.206e+00 2.123e+00 3.514e-01 -5.034e-02 2.000e-02 5.577e-02
11 1 9.204e+00 3.550e-01 2.125e+00 -1.420e-02 2.130e-02 4.163e-02
12 1 7.435e+00 2.123e+00 2.124e+00 -2.450e-02 -1.024e-02 4.108e-02
13 1 3.548e-01 3.890e+00 3.505e-01 -6.200e-02 4.231e-02 -1.862e-02
14 1 2.124e+00 3.895e+00 2.125e+00 -1.857e-02 4.846e-02 -6.367e-02
15 1 3.894e+00 3.892e+00 3.515e-01 -4.120e-02 -5.909e-03 -4.510e-02
16 1 5.663e+00 3.893e+00 2.125e+00 -1.263e-02 -1.012e-02 2.706e-02
17 1 7.435e+00 3.892e+00 3.537e-01 -2.011e-02 -3.696e-03 4.503e-02
18 1 9.206e+00 3.894e+00 2.124e+00 -1.247e-02 1.799e-02 -1.916e-02
19 1 3.550e-01 3.560e-01 3.898e+00 -9.355e-03 8.084e-04 7.568e-02
20 1 2.124e+00 2.123e+00 3.885e+00 -3.718e-04 5.969e-02 -2.873e-02
21 1 3.894e+00 3.550e-01 3.896e+00 -1.036e-03 -3.536e-03 1.101e-02
22 1 5.660e+00 2.121e+00 3.898e+00 -7.547e-03 2.422e-02 7.134e-04
23 1 7.434e+00 3.543e-01 3.894e+00 -2.350e-03 1.094e-02 1.086e-02
24 1 9.206e+00 2.125e+00 3.898e+00 -6.922e-03 -1.649e-02 8.906e-02
25 1 3.551e-01 3.892e+00 3.896e+00 -1.542e-02 5.968e-02 -3.145e-02
26 1 3.892e+00 3.893e+00 3.897e+00 -6.039e-03 5.367e-02 -7.540e-02
27 1 7.434e+00 3.893e+00 3.896e+00 -1.218e-02 -3.441e-02 1.743e-03
28 1 2.125e+00 3.643e-01 5.673e+00 1.437e-02 7.225e-01 7.870e-01
29 1 3.642e-01 2.123e+00 5.673e+00 7.383e-03 -2.576e-02 1.180e-01
30 1 5.660e+00 3.576e-01 5.664e+00 5.964e-03 6.667e-03 -1.936e-02
31 1 3.884e+00 2.123e+00 5.671e+00 2.944e-02 5.341e-02 -1.630e-02
32 1 9.208e+00 3.557e-01 5.664e+00 -2.327e-03 2.852e-02 4.621e-02
33 1 7.432e+00 2.124e+00 5.661e+00 1.117e-02 -6.875e-03 -3.986e-02
34 1 2.123e+00 3.885e+00 5.673e+00 2.941e-02 1.187e-01 -9.385e-02
35 1 5.662e+00 3.894e+00 5.664e+00 9.295e-03 3.291e-02 -6.820e-02
36 1 9.206e+00 3.894e+00 5.668e+00 -1.731e-02 3.418e-02 3.301e-02
37 1 3.636e-01 3.624e-01 7.435e+00 -3.064e-02 -8.201e-02 6.972e-02
38 1 2.124e+00 3.630e-01 9.196e+00 1.783e-03 6.255e-01 -6.524e-01
39 1 3.642e-01 2.124e+00 9.196e+00 2.656e-01 -8.172e-02 -1.233e-01
40 1 3.885e+00 3.626e-01 7.435e+00 -1.712e-02 -1.151e-01 -1.479e-02
41 1 5.673e+00 2.123e+00 7.433e+00 8.101e-04 -4.534e-02 -8.005e-02
42 1 5.660e+00 3.543e-01 9.203e+00 -1.773e-03 -2.784e-02 -2.634e-02
43 1 3.885e+00 2.123e+00 9.194e+00 1.996e-02 -5.660e-02 3.713e-02
44 1 7.435e+00 3.524e-01 7.435e+00 4.916e-03 -1.693e-02 -3.149e-02
45 1 9.193e+00 2.124e+00 7.432e+00 -5.070e-02 2.134e-02 7.758e-02
46 1 9.206e+00 3.557e-01 9.204e+00 -3.722e-02 -1.591e-02 4.051e-02
47 1 7.434e+00 2.125e+00 9.206e+00 -2.299e-02 -3.190e-02 2.472e-02
48 1 3.638e-01 3.887e+00 7.433e+00 -6.268e-02 4.729e-02 7.579e-02
49 1 2.125e+00 3.886e+00 9.194e+00 -3.465e-02 -6.867e-02 4.581e-02
50 1 3.885e+00 3.886e+00 7.435e+00 2.028e-02 -5.928e-02 -6.823e-02
51 1 5.662e+00 3.893e+00 9.202e+00 -9.482e-03 -5.067e-02 -5.105e-02
52 1 7.433e+00 3.899e+00 7.436e+00 -7.386e-03 -3.037e-02 -1.776e-02
53 1 9.206e+00 3.892e+00 9.203e+00 -5.918e-02 -3.260e-02 4.453e-02
54 1 2.126e+00 5.660e+00 3.509e-01 7.810e-03 -4.783e-03 -2.603e-02
55 1 3.536e-01 5.663e+00 2.124e+00 4.061e-03 -1.672e-04 -1.552e-02
56 1 5.663e+00 5.663e+00 3.521e-01 4.077e-03 -1.575e-02 -1.891e-02
57 1 3.893e+00 5.663e+00 2.124e+00 -3.137e-03 -3.911e-02 7.373e-03
58 1 9.206e+00 5.663e+00 3.524e-01 6.184e-03 3.164e-02 -7.459e-03
59 1 7.435e+00 5.661e+00 2.123e+00 -7.288e-03 -8.604e-03 1.352e-02
60 1 3.566e-01 7.433e+00 3.525e-01 2.809e-03 -2.220e-02 -1.382e-02
61 1 2.124e+00 9.208e+00 3.504e-01 4.471e-03 -2.447e-02 1.733e-02
62 1 2.125e+00 7.433e+00 2.125e+00 -3.529e-03 -3.433e-02 2.006e-02
63 1 3.568e-01 9.206e+00 2.125e+00 -6.656e-03 -1.790e-02 1.747e-02
64 1 3.893e+00 7.435e+00 3.525e-01 8.610e-03 -1.237e-03 4.531e-03
65 1 5.662e+00 9.205e+00 3.540e-01 -5.032e-03 7.617e-03 1.060e-03
66 1 5.663e+00 7.434e+00 2.125e+00 1.604e-03 -4.141e-03 -3.963e-03
67 1 3.894e+00 9.203e+00 2.125e+00 9.076e-04 -3.953e-02 -5.947e-03
68 1 7.435e+00 7.433e+00 3.539e-01 -2.069e-03 5.143e-03 -2.091e-03
69 1 9.205e+00 9.206e+00 3.524e-01 -1.740e-02 1.873e-02 1.206e-02
70 1 9.204e+00 7.433e+00 2.123e+00 -6.676e-03 -2.004e-02 -2.175e-03
71 1 7.433e+00 9.205e+00 2.125e+00 -1.001e-02 2.011e-02 7.894e-04
72 1 2.125e+00 5.660e+00 3.897e+00 -6.065e-03 1.929e-02 -1.994e-02
73 1 5.662e+00 5.662e+00 3.894e+00 -9.053e-03 -2.242e-02 -4.699e-03
74 1 9.206e+00 5.664e+00 3.895e+00 -8.074e-03 -3.583e-02 4.975e-03
75 1 3.532e-01 7.431e+00 3.895e+00 -8.188e-03 -1.773e-02 2.706e-02
76 1 2.125e+00 9.209e+00 3.897e+00 -3.237e-03 -2.739e-02 3.657e-02
77 1 3.893e+00 7.436e+00 3.894e+00 -1.955e-03 -2.053e-02 -6.169e-03
78 1 5.664e+00 9.206e+00 3.897e+00 -3.677e-03 -6.077e-03 -2.534e-03
79 1 7.435e+00 7.435e+00 3.895e+00 -5.588e-03 -2.630e-02 1.647e-02
80 1 9.205e+00 9.204e+00 3.895e+00 -9.459e-03 1.155e-03 1.280e-02
81 1 3.551e-01 5.660e+00 5.668e+00 6.089e-03 1.915e-02 -2.070e-02
82 1 3.893e+00 5.664e+00 5.664e+00 1.212e-02 3.818e-02 -5.321e-02
83 1 7.434e+00 5.661e+00 5.665e+00 -1.253e-02 -3.416e-02 -1.452e-03
84 1 2.120e+00 7.434e+00 5.662e+00 -8.363e-04 1.198e-02 -7.170e-03
85 1 3.565e-01 9.207e+00 5.666e+00 -1.281e-03 1.812e-02 6.303e-03
86 1 5.663e+00 7.435e+00 5.662e+00 -9.568e-03 -2.500e-02 -1.124e-02
87 1 3.893e+00 9.208e+00 5.665e+00 -4.789e-03 -6.679e-04 7.926e-03
88 1 9.205e+00 7.434e+00 5.663e+00 -7.489e-03 -2.107e-02 1.015e-02
89 1 7.435e+00 9.205e+00 5.665e+00 2.046e-03 -8.457e-03 1.985e-03
90 1 2.124e+00 5.673e+00 7.435e+00 2.646e-02 1.553e-03 -8.689e-03
91 1 3.552e-01 5.662e+00 9.203e+00 1.305e-02 3.458e-02 9.544e-03
92 1 5.662e+00 5.661e+00 7.435e+00 6.281e-03 -2.076e-02 -4.004e-02
93 1 3.892e+00 5.663e+00 9.203e+00 2.149e-02 3.399e-02 -2.116e-02
94 1 9.205e+00 5.659e+00 7.436e+00 -3.253e-03 -2.334e-02 9.177e-03
95 1 7.436e+00 5.663e+00 9.203e+00 -5.344e-03 5.349e-02 4.128e-02
96 1 3.535e-01 7.434e+00 7.433e+00 2.544e-03 3.222e-03 -1.958e-02
97 1 2.124e+00 9.196e+00 7.435e+00 -1.238e-02 -3.500e-02 1.136e-02
98 1 2.125e+00 7.433e+00 9.207e+00 8.742e-04 -1.626e-02 -3.360e-02
99 1 3.562e-01 9.208e+00 9.202e+00 -8.480e-03 1.159e-02 1.342e-02
100 1 3.896e+00 7.434e+00 7.434e+00 -1.301e-03 -1.208e-02 -1.943e-02
101 1 5.662e+00 9.208e+00 7.435e+00 -8.494e-03 -7.201e-03 -1.986e-03
102 1 5.665e+00 7.435e+00 9.204e+00 5.082e-03 -3.188e-04 -4.427e-03
103 1 3.893e+00 9.208e+00 9.203e+00 -1.976e-05 -1.031e-02 -2.394e-03
104 1 7.433e+00 7.435e+00 7.435e+00 -6.051e-03 -3.371e-02 -6.491e-03
105 1 9.207e+00 9.207e+00 7.434e+00 3.342e-03 4.061e-03 -2.483e-02
106 1 9.205e+00 7.434e+00 9.205e+00 4.607e-03 -1.585e-02 -3.923e-02
107 1 7.435e+00 9.203e+00 9.204e+00 -9.747e-03 1.254e-02 -3.712e-03
ITEM: TIMESTEP
0
ITEM: NUMBER OF ATOMS
107
ITEM: BOX BOUNDS xy xz yz pp pp pp
                     0.00000000000000e+00 1.06200000000000e+01 0.00000000000000e+00
0.00000000000000e+00	1.06200000000000e+01	0.00000000000000e+00
0.00000000000000e+00	1.06200000000000e+01	0.00000000000000e+00
ITEM: ATOMS id type x y z DisplacementX DisplacementY DisplacementZ
1 1 3.543e-01 3.554e-01 3.514e-01 -5.395e-03 1.438e-03 3.967e-02
2 1 2.123e+00 2.126e+00 3.644e-01 -1.299e-01 1.813e-02 3.378e-02
3 1 2.125e+00 3.512e-01 2.124e+00 -2.557e-03 -2.613e-02 7.003e-02
4 1 3.516e-01 2.123e+00 2.125e+00 -7.321e-02 1.965e-04 8.013e-02
5 1 3.892e+00 3.566e-01 3.523e-01 -3.603e-02 -4.741e-03 -1.603e-02
6 1 5.658e+00 2.124e+00 3.501e-01 -5.368e-03 3.746e-03 -4.700e-02
7 1 5.664e+00 3.559e-01 2.125e+00 2.248e-02 -1.062e-02 2.761e-02
8 1 3.896e+00 2.125e+00 2.123e+00 -4.306e-03 -9.055e-03 -2.960e-02
9 1 7.435e+00 3.538e-01 3.520e-01 3.553e-02 -5.430e-03 -1.133e-02
10 1 9.206e+00 2.123e+00 3.514e-01 -5.004e-02 1.052e-01 -5.139e-02
11 1 9.204e+00 3.550e-01 2.125e+00 3.108e-02 -2.532e-03 4.236e-02
12 1 7.435e+00 2.123e+00 2.124e+00 1.936e-02 1.388e-02 -1.330e-03
13 1 3.548e-01 3.890e+00 3.505e-01 -9.022e-02 2.604e-02 -1.732e-02
14 1 2.124e+00 3.895e+00 2.125e+00 -2.590e-02 -1.840e-02 -6.729e-02
15 1 3.894e+00 3.892e+00 3.515e-01 -5.183e-02 -8.500e-03 -4.010e-02
16 1 5.663e+00 3.893e+00 2.125e+00 -1.597e-02 2.767e-02 -1.991e-02
17 1 7.435e+00 3.892e+00 3.537e-01 -1.432e-03 5.627e-02 -4.650e-02
18 1 9.206e+00 3.894e+00 2.124e+00 3.264e-02 2.748e-02 -1.122e-01
19 1 3.550e-01 3.560e-01 3.898e+00 9.959e-04 -2.003e-02 8.154e-02
20 1 2.124e+00 2.123e+00 3.885e+00 3.115e-02 -2.601e-02 -2.510e-02
21 1 3.894e+00 3.550e-01 3.896e+00 1.072e-02 -9.952e-03 1.260e-02
22 1 5.660e+00 2.121e+00 3.898e+00 1.077e-02 -1.091e-02 1.141e-02
23 1 7.434e+00 3.543e-01 3.894e+00 1.114e-02 -2.530e-02 4.451e-02
24 1 9.206e+00 2.125e+00 3.898e+00 -9.676e-03 3.717e-02 7.112e-02
25 1 3.551e-01 3.892e+00 3.896e+00 6.285e-02 -6.807e-02 -2.373e-02
26 1 3.892e+00 3.893e+00 3.897e+00 7.872e-02 -3.524e-02 -7.791e-02
27 1 7.434e+00 3.893e+00 3.896e+00 1.816e-02 -6.006e-02 4.066e-02
28 1 2.125e+00 3.643e-01 5.673e+00 1.245e-03 -1.162e-02 1.344e-01
29 1 3.642e-01 2.123e+00 5.673e+00 3.562e-01 -1.713e-02 5.500e-01
30 1 5.660e+00 3.576e-01 5.664e+00 1.380e-02 -9.906e-03 1.631e-02
31 1 3.884e+00 2.123e+00 5.671e+00 2.149e-03 4.122e-03 3.963e-02
32 1 9.208e+00 3.557e-01 5.664e+00 2.811e-02 3.077e-02 2.942e-02
33 1 7.432e+00 2.124e+00 5.661e+00 2.073e-02 -4.741e-02 4.026e-02
34 1 2.123e+00 3.885e+00 5.673e+00 4.140e-02 2.477e-02 -5.710e-02
35 1 5.662e+00 3.894e+00 5.664e+00 3.969e-02 -1.230e-02 -4.102e-02
36 1 9.206e+00 3.894e+00 5.668e+00 4.595e-02 -5.382e-03 6.515e-03
37 1 3.636e-01 3.624e-01 7.435e+00 -6.479e-03 9.027e-04 4.266e-02
38 1 2.124e+00 3.630e-01 9.196e+00 -4.624e-02 2.810e-01 -1.890e-01
39 1 3.642e-01 2.124e+00 9.196e+00 4.541e-01 -1.154e-02 -3.695e-01
40 1 3.885e+00 3.626e-01 7.435e+00 -3.858e-01 2.720e-01 6.658e-02
41 1 5.673e+00 2.123e+00 7.433e+00 -1.597e-02 -2.694e-02 -2.483e-02
42 1 5.660e+00 3.543e-01 9.203e+00 -1.985e-02 1.837e-03 -1.248e-03
43 1 3.885e+00 2.123e+00 9.194e+00 -1.553e-01 -1.588e-02 1.778e-01
44 1 7.435e+00 3.524e-01 7.435e+00 4.484e-03 -5.335e-03 -2.917e-03
45 1 9.193e+00 2.124e+00 7.432e+00 -7.545e-02 2.868e-03 1.055e-01
46 1 9.206e+00 3.557e-01 9.204e+00 4.315e-02 -1.308e-02 6.965e-03
47 1 7.434e+00 2.125e+00 9.206e+00 -7.395e-03 1.378e-03 6.826e-03
48 1 3.638e-01 3.887e+00 7.433e+00 -8.032e-02 -3.888e-02 1.266e-01
49 1 2.125e+00 3.886e+00 9.194e+00 -1.968e-01 2.009e-02 1.568e-01
50 1 3.885e+00 3.886e+00 7.435e+00 -2.167e-02 -5.937e-03 1.439e-02
51 1 5.662e+00 3.893e+00 9.202e+00 5.794e-03 5.385e-02 -1.117e-01
52 1 7.433e+00 3.899e+00 7.436e+00 -4.335e-03 -4.251e-02 3.037e-02
53 1 9.206e+00 3.892e+00 9.203e+00 -7.971e-02 3.700e-02 -5.049e-03
54 1 2.126e+00 5.660e+00 3.509e-01 3.169e-02 -2.374e-02 -2.339e-02
55 1 3.536e-01 5.663e+00 2.124e+00 1.453e-02 -2.410e-03 -4.800e-02
56 1 5.663e+00 5.663e+00 3.521e-01 -2.717e-04 3.703e-03 -4.920e-02
57 1 3.893e+00 5.663e+00 2.124e+00 2.874e-03 -8.602e-03 -3.860e-03
58 1 9.206e+00 5.663e+00 3.524e-01 2.654e-02 2.906e-03 -3.188e-02
59 1 7.435e+00 5.661e+00 2.123e+00 6.246e-03 -4.034e-03 -6.768e-03
60 1 3.566e-01 7.433e+00 3.525e-01 2.125e-02 -3.645e-02 3.466e-02
61 1 2.124e+00 9.208e+00 3.504e-01 3.276e-04 -1.291e-02 4.041e-02
62 1 2.125e+00 7.433e+00 2.125e+00 -7.809e-03 -2.319e-02 3.268e-02
63 1 3.568e-01 9.206e+00 2.125e+00 7.220e-03 -1.933e-02 2.269e-02
64 1 3.893e+00 7.435e+00 3.525e-01 -9.600e-03 -3.755e-03 -9.041e-04
65 1 5.662e+00 9.205e+00 3.540e-01 1.440e-02 -7.341e-03 -2.286e-03
66 1 5.663e+00 7.434e+00 2.125e+00 3.208e-03 -1.710e-02 6.058e-03
67 1 3.894e+00 9.203e+00 2.125e+00 -1.550e-03 -1.300e-02 -2.198e-03
68 1 7.435e+00 7.433e+00 3.539e-01 3.187e-02 -5.938e-03 -1.430e-02
69 1 9.205e+00 9.206e+00 3.524e-01 5.279e-02 -1.529e-02 2.020e-03
70 1 9.204e+00 7.433e+00 2.123e+00 1.870e-02 -2.416e-02 4.367e-03
71 1 7.433e+00 9.205e+00 2.125e+00 2.823e-02 -1.680e-02 7.810e-03
72 1 2.125e+00 5.660e+00 3.897e+00 2.064e-02 -1.730e-02 -3.446e-02
73 1 5.662e+00 5.662e+00 3.894e+00 1.295e-02 -2.974e-02 9.821e-03
74 1 9.206e+00 5.664e+00 3.895e+00 1.515e-02 -2.644e-02 3.655e-03
75 1 3.532e-01 7.431e+00 3.895e+00 2.013e-03 -1.561e-04 2.659e-03
76 1 2.125e+00 9.209e+00 3.897e+00 -5.872e-03 -9.304e-03 3.267e-02
77 1 3.893e+00 7.436e+00 3.894e+00 6.049e-03 -2.659e-02 2.139e-02
78 1 5.664e+00 9.206e+00 3.897e+00 1.344e-02 -1.802e-02 1.930e-02
79 1 7.435e+00 7.435e+00 3.895e+00 4.618e-03 -1.654e-02 2.360e-02
80 1 9.205e+00 9.204e+00 3.895e+00 2.041e-02 -1.144e-02 1.019e-02
81 1 3.551e-01 5.660e+00 5.668e+00 4.799e-02 -2.727e-02 1.571e-02
82 1 3.893e+00 5.664e+00 5.664e+00 5.056e-02 -1.848e-02 -7.744e-03
83 1 7.434e+00 5.661e+00 5.665e+00 9.878e-04 -2.659e-02 1.048e-02
84 1 2.120e+00 7.434e+00 5.662e+00 2.178e-02 3.797e-03 -2.511e-02
85 1 3.565e-01 9.207e+00 5.666e+00 2.830e-02 4.913e-03 -1.229e-02
86 1 5.663e+00 7.435e+00 5.662e+00 5.984e-03 -1.742e-02 -1.986e-03
87 1 3.893e+00 9.208e+00 5.665e+00 1.678e-02 -2.868e-02 3.494e-02
88 1 9.205e+00 7.434e+00 5.663e+00 2.946e-03 5.906e-03 -1.622e-02
89 1 7.435e+00 9.205e+00 5.665e+00 4.270e-03 -3.652e-03 1.165e-02
90 1 2.124e+00 5.673e+00 7.435e+00 3.828e-02 -1.784e-02 9.313e-02
91 1 3.552e-01 5.662e+00 9.203e+00 2.771e-02 -2.972e-03 5.216e-02
92 1 5.662e+00 5.661e+00 7.435e+00 3.650e-02 -3.378e-03 -3.374e-02
93 1 3.892e+00 5.663e+00 9.203e+00 5.030e-02 3.551e-03 -8.468e-04
94 1 9.205e+00 5.659e+00 7.436e+00 2.694e-03 -1.570e-02 3.893e-02
95 1 7.436e+00 5.663e+00 9.203e+00 -1.047e-03 2.803e-02 1.616e-03
96 1 3.535e-01 7.434e+00 7.433e+00 1.704e-02 9.117e-03 -1.859e-02
97 1 2.124e+00 9.196e+00 7.435e+00 3.407e-02 -3.636e-02 3.114e-02
98 1 2.125e+00 7.433e+00 9.207e+00 4.160e-02 -2.300e-02 -1.084e-02
99 1 3.562e-01 9.208e+00 9.202e+00 7.149e-02 -5.998e-03 -1.487e-03
100 1 3.896e+00 7.434e+00 7.434e+00 2.472e-02 -4.016e-03 -3.446e-02
101 1 5.662e+00 9.208e+00 7.435e+00 3.850e-03 -1.730e-02 2.420e-03
102 1 5.665e+00 7.435e+00 9.204e+00 3.995e-03 -1.419e-03 -1.719e-02
103 1 3.893e+00 9.208e+00 9.203e+00 2.013e-02 -3.665e-02 3.833e-02
104 1 7.433e+00 7.435e+00 7.435e+00 8.054e-03 -1.299e-02 5.357e-04
105 1 9.207e+00 9.207e+00 7.434e+00 2.685e-02 1.655e-03 -2.772e-02
106 1 9.205e+00 7.434e+00 9.205e+00 4.383e-02 -3.706e-02 1.045e-02
107 1 7.435e+00 9.203e+00 9.204e+00 1.367e-02 -4.215e-03 -1.295e-02
ITEM: TIMESTEP
0
ITEM: NUMBER OF ATOMS
107
ITEM: BOX BOUNDS xy xz yz pp pp pp
                     0.00000000000000e+00 1.06200000000000e+01 0.00000000000000e+00
0.00000000000000e+00	1.06200000000000e+01	0.00000000000000e+00
0.00000000000000e+00	1.06200000000000e+01	0.00000000000000e+00
ITEM: ATOMS id type x y z DisplacementX DisplacementY DisplacementZ
1 1 3.543e-01 3.554e-01 3.514e-01 3.538e-03 7.900e-03 1.123e-02
2 1 2.123e+00 2.126e+00 3.644e-01 1.050e-01 2.891e-02 8.528e-02
3 1 2.125e+00 3.512e-01 2.124e+00 1.228e-02 1.556e-02 2.598e-02
4 1 3.516e-01 2.123e+00 2.125e+00 -2.011e-02 3.829e-02 -9.601e-02
5 1 3.892e+00 3.566e-01 3.523e-01 9.217e-02 3.561e-03 8.630e-02
6 1 5.658e+00 2.124e+00 3.501e-01 3.765e-02 -1.834e-02 6.162e-02
7 1 5.664e+00 3.559e-01 2.125e+00 -2.845e-02 -5.565e-03 1.423e-02
8 1 3.896e+00 2.125e+00 2.123e+00 3.092e-02 1.301e-02 3.874e-03
9 1 7.435e+00 3.538e-01 3.520e-01 -2.264e-02 2.002e-04 -1.685e-02
10 1 9.206e+00 2.123e+00 3.514e-01 -7.102e-02 -1.756e-03 -5.154e-02
11 1 9.204e+00 3.550e-01 2.125e+00 -4.310e-02 -3.421e-03 2.135e-02
12 1 7.435e+00 2.123e+00 2.124e+00 -2.986e-02 -4.451e-03 -2.081e-02
13 1 3.548e-01 3.890e+00 3.505e-01 -9.797e-02 -3.233e-03 -1.361e-01
14 1 2.124e+00 3.895e+00 2.125e+00 -5.188e-02 3.732e-03 -8.555e-02
15 1 3.894e+00 3.892e+00 3.515e-01 -1.514e-02 -7.998e-03 -3.924e-02
16 1 5.663e+00 3.893e+00 2.125e+00 5.775e-03 -2.693e-03 2.146e-02
17 1 7.435e+00 3.892e+00 3.537e-01 -1.069e-02 -5.965e-03 -1.084e-02
18 1 9.206e+00 3.894e+00 2.124e+00 -1.811e-02 -1.692e-03 -3.712e-02
19 1 3.550e-01 3.560e-01 3.898e+00 2.116e-02 3.316e-02 1.359e-02
20 1 2.124e+00 2.123e+00 3.885e+00 -1.774e-02 -6.256e-03 4.980e-02
21 1 3.894e+00 3.550e-01 3.896e+00 3.569e-04 1.105e-02 1.472e-02
22 1 5.660e+00 2.121e+00 3.898e+00 -2.427e-02 -1.187e-02 3.698e-02
23 1 7.434e+00 3.543e-01 3.894e+00 -9.392e-03 -1.603e-03 2.695e-02
24 1 9.206e+00 2.125e+00 3.898e+00 -1.475e-02 9.860e-03 2.729e-02
25 1 3.551e-01 3.892e+00 3.896e+00 -2.786e-02 -1.268e-02 -5.337e-04
26 1 3.892e+00 3.893e+00 3.897e+00 -9.631e-02 -4.016e-02 -1.034e-02
27 1 7.434e+00 3.893e+00 3.896e+00 -5.812e-03 7.130e-04 -5.317e-02
28 1 2.125e+00 3.643e-01 5.673e+00 -5.729e-02 -7.200e-03 2.057e-02
29 1 3.642e-01 2.123e+00 5.673e+00 -9.588e-02 -9.991e-03 -2.457e-02
30 1 5.660e+00 3.576e-01 5.664e+00 -3.346e-02 -1.506e-02 3.107e-02
31 1 3.884e+00 2.123e+00 5.671e+00 -3.854e-01 -3.836e-02 4.686e-01
32 1 9.208e+00 3.557e-01 5.664e+00 -6.940e-02 -7.778e-03 2.254e-03
33 1 7.432e+00 2.124e+00 5.661e+00 -1.407e-02 -7.712e-03 6.473e-03
34 1 2.123e+00 3.885e+00 5.673e+00 -1.163e-01 -7.511e-02 1.233e-01
35 1 5.662e+00 3.894e+00 5.664e+00 -7.528e-02 -3.911e-02 1.941e-02
36 1 9.206e+00 3.894e+00 5.668e+00 -6.037e-02 -1.348e-03 -4.694e-02
37 1 3.636e-01 3.624e-01 7.435e+00 3.493e-01 3.385e-01 1.296e-02
38 1 2.124e+00 3.630e-01 9.196e+00 7.617e-02 -1.209e-02 1.052e-01
39 1 3.642e-01 2.124e+00 9.196e+00 1.099e-01 5.972e-02 3.976e-02
40 1 3.885e+00 3.626e-01 7.435e+00 1.275e-01 -1.013e-02 1.207e-01
41 1 5.673e+00 2.123e+00 7.433e+00 9.589e-02 -2.065e-02 1.389e-01
42 1 5.660e+00 3.543e-01 9.203e+00 4.335e-02 -1.180e-02 7.487e-02
43 1 3.885e+00 2.123e+00 9.194e+00 -8.373e-01 -2.016e-02 -6.934e-01
44 1 7.435e+00 3.524e-01 7.435e+00 -1.623e-03 -1.303e-02 2.213e-02
45 1 9.193e+00 2.124e+00 7.432e+00 -3.172e-02 1.515e-02 -4.268e-02
46 1 9.206e+00 3.557e-01 9.204e+00 -2.182e-02 5.411e-03 -4.625e-02
47 1 7.434e+00 2.125e+00 9.206e+00 3.649e-02 -2.078e-03 3.000e-02
48 1 3.638e-01 3.887e+00 7.433e+00 1.819e-02 1.275e-02 4.810e-02
49 1 2.125e+00 3.886e+00 9.194e+00 5.750e-02 5.581e-03 5.721e-02
50 1 3.885e+00 3.886e+00 7.435e+00 4.299e-02 -4.998e-02 1.648e-01
51 1 5.662e+00 3.893e+00 9.202e+00 1.543e-04 -2.909e-02 4.675e-02
52 1 7.433e+00 3.899e+00 7.436e+00 3.336e-02 -5.764e-03 9.935e-03
53 1 9.206e+00 3.892e+00 9.203e+00 3.895e-02 1.805e-02 -3.458e-02
54 1 2.126e+00 5.660e+00 3.509e-01 -8.526e-03 3.791e-03 -1.819e-02
55 1 3.536e-01 5.663e+00 2.124e+00 1.138e-02 4.380e-03 2.706e-05
56 1 5.663e+00 5.663e+00 3.521e-01 1.470e-02 4.378e-03 -2.393e-02
57 1 3.893e+00 5.663e+00 2.124e+00 -6.580e-04 2.215e-03 -1.175e-02
58 1 9.206e+00 5.663e+00 3.524e-01 -2.677e-02 -6.413e-03 -3.249e-02
59 1 7.435e+00 5.661e+00 2.123e+00 -8.187e-03 -1.716e-03 -3.872e-02
60 1 3.566e-01 7.433e+00 3.525e-01 -8.153e-03 -1.574e-02 2.329e-02
61 1 2.124e+00 9.208e+00 3.504e-01 2.735e-03 -3.206e-03 2.430e-02
62 1 2.125e+00 7.433e+00 2.125e+00 3.108e-02 1.140e-02 2.386e-02
63 1 3.568e-01 9.206e+00 2.125e+00 1.973e-02 1.099e-02 2.157e-02
64 1 3.893e+00 7.435e+00 3.525e-01 2.645e-02 2.052e-02 -3.938e-03
65 1 5.662e+00 9.205e+00 3.540e-01 -4.206e-03 4.663e-03 -1.090e-02
66 1 5.663e+00 7.434e+00 2.125e+00 -6.187e-04 3.382e-03 -1.455e-02
67 1 3.894e+00 9.203e+00 2.125e+00 2.457e-02 8.969e-03 -2.407e-03
68 1 7.435e+00 7.433e+00 3.539e-01 -3.387e-02 -2.487e-03 -4.572e-02
69 1 9.205e+00 9.206e+00 3.524e-01 -5.539e-02 -1.002e-02 -2.214e-02
70 1 9.204e+00 7.433e+00 2.123e+00 1.349e-03 -3.925e-03 -2.376e-03
71 1 7.433e+00 9.205e+00 2.125e+00 -2.237e-02 -5.584e-03 8.792e-03
72 1 2.125e+00 5.660e+00 3.897e+00 -9.691e-03 -8.148e-03 3.974e-02
73 1 5.662e+00 5.662e+00 3.894e+00 -2.609e-02 -6.593e-03 -3.838e-02
74 1 9.206e+00 5.664e+00 3.895e+00 -4.313e-04 -6.388e-04 -4.220e-02
75 1 3.532e-01 7.431e+00 3.895e+00 1.121e-02 1.118e-02 1.237e-02
76 1 2.125e+00 9.209e+00 3.897e+00 2.840e-02 3.295e-02 -4.221e-03
77 1 3.893e+00 7.436e+00 3.894e+00 -1.340e-02 -2.072e-03 -7.992e-04
78 1 5.664e+00 9.206e+00 3.897e+00 -2.009e-02 -7.727e-03 5.763e-03
79 1 7.435e+00 7.435e+00 3.895e+00 -8.853e-03 -1.249e-05 -3.232e-02
80 1 9.205e+00 9.204e+00 3.895e+00 -1.233e-02 -1.906e-03 1.390e-02
81 1 3.551e-01 5.660e+00 5.668e+00 -6.585e-02 -2.469e-02 3.658e-03
82 1 3.893e+00 5.664e+00 5.664e+00 -1.092e-01 -3.560e-02 8.512e-03
83 1 7.434e+00 5.661e+00 5.665e+00 1.072e-02 -1.169e-03 -2.891e-02
84 1 2.120e+00 7.434e+00 5.662e+00 -3.664e-02 1.144e-03 -1.036e-02
85 1 3.565e-01 9.207e+00 5.666e+00 -3.796e-02 1.118e-03 -1.652e-03
86 1 5.663e+00 7.435e+00 5.662e+00 -1.144e-02 -4.911e-03 -2.200e-02
87 1 3.893e+00 9.208e+00 5.665e+00 -2.644e-02 3.770e-03 -1.878e-02
88 1 9.205e+00 7.434e+00 5.663e+00 -2.909e-03 -2.447e-03 -1.412e-02
89 1 7.435e+00 9.205e+00 5.665e+00 -1.161e-02 -4.419e-03 -4.350e-03
90 1 2.124e+00 5.673e+00 7.435e+00 -1.163e-01 -3.744e-02 1.518e-02
91 1 3.552e-01 5.662e+00 9.203e+00 -6.127e-02 -1.776e-02 1.973e-02
92 1 5.662e+00 5.661e+00 7.435e+00 -6.712e-02 -1.860e-02 -5.102e-02
93 1 3.892e+00 5.663e+00 9.203e+00 -9.676e-02 -2.023e-02 -2.303e-02
94 1 9.205e+00 5.659e+00 7.436e+00 4.523e-03 -1.077e-02 1.206e-02
95 1 7.436e+00 5.663e+00 9.203e+00 -1.395e-02 2.008e-03 1.509e-03
96 1 3.535e-01 7.434e+00 7.433e+00 -4.503e-02 -1.590e-02 1.928e-04
97 1 2.124e+00 9.196e+00 7.435e+00 -2.230e-02 3.220e-03 -2.303e-02
98 1 2.125e+00 7.433e+00 9.207e+00 -4.063e-02 -7.782e-03 -3.914e-02
99 1 3.562e-01 9.208e+00 9.202e+00 -1.053e-01 -2.626e-02 -5.090e-02
100 1 3.896e+00 7.434e+00 7.434e+00 -1.015e-02 9.980e-03 -3.781e-02
101 1 5.662e+00 9.208e+00 7.435e+00 4.977e-03 9.416e-03 -2.263e-02
102 1 5.665e+00 7.435e+00 9.204e+00 6.625e-03 1.455e-02 -3.517e-02
103 1 3.893e+00 9.208e+00 9.203e+00 -2.020e-02 -5.585e-03 -1.852e-02
104 1 7.433e+00 7.435e+00 7.435e+00 -9.569e-03 -1.185e-02 -3.161e-02
105 1 9.207e+00 9.207e+00 7.434e+00 -3.401e-02 -1.661e-02 -8.092e-03
106 1 9.205e+00 7.434e+00 9.205e+00 -5.213e-02 -3.316e-02 -2.182e-02
107 1 7.435e+00 9.203e+00 9.204e+00 -1.335e-03 2.185e-03 -7.707e-03
ITEM: TIMESTEP
0
ITEM: NUMBER OF ATOMS
107
ITEM: BOX BOUNDS xy xz yz pp pp pp
                     0.00000000000000e+00 1.06200000000000e+01 0.00000000000000e+00
0.00000000000000e+00	1.06200000000000e+01	0.00000000000000e+00
0.00000000000000e+00	1.06200000000000e+01	0.00000000000000e+00
ITEM: ATOMS id type x y z DisplacementX DisplacementY DisplacementZ
1 1 3.543e-01 3.554e-01 3.514e-01 7.392e-04 -2.673e-02 -3.680e-02
2 1 2.123e+00 2.126e+00 3.644e-01 2.211e-03 6.951e-02 7.095e-02
3 1 2.125e+00 3.512e-01 2.124e+00 5.250e-04 -1.193e-02 -4.999e-02
4 1 3.516e-01 2.123e+00 2.125e+00 3.974e-04 6.331e-02 -8.564e-02
5 1 3.892e+00 3.566e-01 3.523e-01 1.346e-03 4.113e-02 3.577e-02
6 1 5.658e+00 2.124e+00 3.501e-01 1.066e-03 1.608e-02 2.998e-02
7 1 5.664e+00 3.559e-01 2.125e+00 1.073e-03 -5.299e-02 -1.431e-02
8 1 3.896e+00 2.125e+00 2.123e+00 1.621e-05 3.108e-02 -2.433e-02
9 1 7.435e+00 3.538e-01 3.520e-01 9.213e-04 -4.975e-02 -3.484e-02
10 1 9.206e+00 2.123e+00 3.514e-01 3.616e-03 -1.244e-01 -6.956e-03
11 1 9.204e+00 3.550e-01 2.125e+00 1.286e-03 -9.301e-02 -4.366e-02
12 1 7.435e+00 2.123e+00 2.124e+00 1.302e-03 -4.873e-02 -6.087e-02
13 1 3.548e-01 3.890e+00 3.505e-01 3.486e-03 6.042e-02 1.047e-01
14 1 2.124e+00 3.895e+00 2.125e+00 -1.423e-03 5.919e-02 7.590e-02
15 1 3.894e+00 3.892e+00 3.515e-01 1.105e-03 9.680e-02 8.049e-02
16 1 5.663e+00 3.893e+00 2.125e+00 1.270e-03 -2.882e-02 -2.682e-02
17 1 7.435e+00 3.892e+00 3.537e-01 1.537e-03 -7.446e-02 -3.652e-02
18 1 9.206e+00 3.894e+00 2.124e+00 6.322e-04 -6.391e-02 -9.269e-03
19 1 3.550e-01 3.560e-01 3.898e+00 4.532e-04 -2.503e-02 -1.080e-01
20 1 2.124e+00 2.123e+00 3.885e+00 1.498e-03 -6.562e-02 8.539e-03
21 1 3.894e+00 3.550e-01 3.896e+00 -5.664e-04 -2.794e-02 -4.725e-02
22 1 5.660e+00 2.121e+00 3.898e+00 7.902e-04 -3.918e-02 7.390e-03
23 1 7.434e+00 3.543e-01 3.894e+00 4.564e-04 -1.159e-02 -1.416e-02
24 1 9.206e+00 2.125e+00 3.898e+00 1.622e-03 -9.180e-02 -9.166e-02
25 1 3.551e-01 3.892e+00 3.896e+00 -2.795e-05 3.486e-03 3.560e-02
26 1 3.892e+00 3.893e+00 3.897e+00 1.182e-03 -5.900e-02 8.054e-02
27 1 7.434e+00 3.893e+00 3.896e+00 -3.676e-04 9.977e-02 -5.452e-02
28 1 2.125e+00 3.643e-01 5.673e+00 2.195e-04 5.300e-01 6.050e-01
29 1 3.642e-01 2.123e+00 5.673e+00 -2.592e-03 -1.236e-01 -1.348e-01
30 1 5.660e+00 3.576e-01 5.664e+00 3.998e-04 -3.066e-02 1.595e-02
31 1 3.884e+00 2.123e+00 5.671e+00 3.323e-03 -1.775e-01 6.069e-02
32 1 9.208e+00 3.557e-01 5.664e+00 1.115e-03 -1.287e-01 -3.345e-02
33 1 7.432e+00 2.124e+00 5.661e+00 -3.699e-04 3.590e-02 -9.461e-03
34 1 2.123e+00 3.885e+00 5.673e+00 2.583e-04 -5.903e-01 5.363e-01
35 1 5.662e+00 3.894e+00 5.664e+00 3.089e-04 -5.255e-02 7.713e-02
36 1 9.206e+00 3.894e+00 5.668e+00 1.846e-03 -7.062e-02 -3.888e-02
37 1 3.636e-01 3.624e-01 7.435e+00 -5.771e-03 -7.368e-02 -7.983e-02
38 1 2.124e+00 3.630e-01 9.196e+00 -3.645e-04 4.102e-01 -3.467e-01
39 1 3.642e-01 2.124e+00 9.196e+00 -3.148e-03 1.844e-01 -1.143e-01
40 1 3.885e+00 3.626e-01 7.435e+00 9.376e-04 1.122e-01 1.514e-02
41 1 5.673e+00 2.123e+00 7.433e+00 -2.088e-04 9.488e-02 8.847e-02
42 1 5.660e+00 3.543e-01 9.203e+00 1.251e-03 2.106e-02 3.853e-02
43 1 3.885e+00 2.123e+00 9.194e+00 4.345e-03 5.610e-02 1.113e-01
44 1 7.435e+00 3.524e-01 7.435e+00 5.793e-04 -1.046e-02 2.112e-02
45 1 9.193e+00 2.124e+00 7.432e+00 3.211e-03 3.403e-02 -2.393e-02
46 1 9.206e+00 3.557e-01 9.204e+00 1.325e-03 -1.848e-02 -6.834e-02
47 1 7.434e+00 2.125e+00 9.206e+00 3.836e-05 2.018e-02 -2.149e-02
48 1 3.638e-01 3.887e+00 7.433e+00 -3.544e-03 1.984e-02 2.043e-02
49 1 2.125e+00 3.886e+00 9.194e+00 -3.221e-04 -2.150e-01 -2.751e-01
50 1 3.885e+00 3.886e+00 7.435e+00 4.784e-03 -4.788e-03 1.264e-01
51 1 5.662e+00 3.893e+00 9.202e+00 1.106e-03 -5.079e-02 5.074e-02
52 1 7.433e+00 3.899e+00 7.436e+00 -7.670e-04 9.904e-02 1.472e-03
53 1 9.206e+00 3.892e+00 9.203e+00 2.249e-03 6.784e-02 -2.194e-03
54 1 2.126e+00 5.660e+00 3.509e-01 5.862e-04 -1.910e-03 -5.331e-03
55 1 3.536e-01 5.663e+00 2.124e+00 2.740e-04 -1.444e-02 1.705e-04
56 1 5.663e+00 5.663e+00 3.521e-01 -3.856e-07 1.952e-02 -4.880e-03
57 1 3.893e+00 5.663e+00 2.124e+00 1.422e-04 2.274e-02 -3.329e-02
58 1 9.206e+00 5.663e+00 3.524e-01 8.605e-04 -4.348e-02 1.368e-02
59 1 7.435e+00 5.661e+00 2.123e+00 4.917e-04 1.517e-02 -2.637e-02
60 1 3.566e-01 7.433e+00 3.525e-01 9.918e-04 2.251e-02 3.935e-02
61 1 2.124e+00 9.208e+00 3.504e-01 1.234e-03 8.211e-04 9.265e-03
62 1 2.125e+00 7.433e+00 2.125e+00 5.694e-04 3.419e-02 -3.292e-02
63 1 3.568e-01 9.206e+00 2.125e+00 2.854e-04 -1.597e-03 -3.504e-02
64 1 3.893e+00 7.435e+00 3.525e-01 3.057e-04 3.978e-03 -1.869e-02
65 1 5.662e+00 9.205e+00 3.540e-01 7.634e-04 -2.116e-02 -3.495e-03
66 1 5.663e+00 7.434e+00 2.125e+00 1.224e-04 1.744e-02 -1.226e-02
67 1 3.894e+00 9.203e+00 2.125e+00 3.287e-05 3.048e-02 -1.961e-02
68 1 7.435e+00 7.433e+00 3.539e-01 6.255e-04 -2.917e-02 -2.127e-03
69 1 9.205e+00 9.206e+00 3.524e-01 1.076e-03 -6.506e-02 -4.859e-03
70 1 9.204e+00 7.433e+00 2.123e+00 4.541e-04 1.898e-02 -3.627e-03
71 1 7.433e+00 9.205e+00 2.125e+00 7.278e-04 -4.016e-02 1.121e-04
72 1 2.125e+00 5.660e+00 3.897e+00 7.488e-04 -3.017e-02 3.783e-02
73 1 5.662e+00 5.662e+00 3.894e+00 1.099e-04 4.429e-02 -1.650e-02
74 1 9.206e+00 5.664e+00 3.895e+00 6.503e-05 5.539e-02 -3.892e-02
75 1 3.532e-01 7.431e+00 3.895e+00 2.319e-04 -1.484e-02 -4.449e-02
76 1 2.125e+00 9.209e+00 3.897e+00 -1.228e-03 4.230e-04 -8.864e-02
77 1 3.893e+00 7.436e+00 3.894e+00 -1.257e-05 2.207e-02 -5.564e-03
78 1 5.664e+00 9.206e+00 3.897e+00 2.796e-04 -5.880e-03 2.587e-03
79 1 7.435e+00 7.435e+00 3.895e+00 2.018e-04 3.147e-02 -3.605e-02
80 1 9.205e+00 9.204e+00 3.895e+00 5.689e-04 -2.849e-02 -1.450e-02
81 1 3.551e-01 5.660e+00 5.668e+00 1.628e-04 -4.259e-02 2.955e-02
82 1 3.893e+00 5.664e+00 5.664e+00 4.455e-04 -8.488e-02 7.210e-02
83 1 7.434e+00 5.661e+00 5.665e+00 3.105e-04 6.836e-02 -2.772e-02
84 1 2.120e+00 7.434e+00 5.662e+00 1.720e-04 -5.549e-02 -1.248e-02
85 1 3.565e-01 9.207e+00 5.666e+00 1.450e-04 -7.191e-02 -2.157e-02
86 1 5.663e+00 7.435e+00 5.662e+00 -9.370e-05 3.140e-02 -9.645e-03
87 1 3.893e+00 9.208e+00 5.665e+00 -4.892e-04 -6.723e-04 -3.159e-02
88 1 9.205e+00 7.434e+00 5.663e+00 1.227e-04 1.033e-03 -2.504e-02
89 1 7.435e+00 9.205e+00 5.665e+00 3.212e-04 -4.358e-03 -9.120e-03
90 1 2.124e+00 5.673e+00 7.435e+00 -1.187e-03 -5.703e-02 5.398e-02
91 1 3.552e-01 5.662e+00 9.203e+00 1.519e-03 -8.974e-02 3.077e-02
92 1 5.662e+00 5.661e+00 7.435e+00 5.185e-04 -2.573e-02 1.330e-02
93 1 3.892e+00 5.663e+00 9.203e+00 1.215e-03 -1.038e-01 2.017e-02
94 1 9.205e+00 5.659e+00 7.436e+00 1.131e-03 2.113e-02 6.179e-04
95 1 7.436e+00 5.663e+00 9.203e+00 1.399e-03 -8.271e-02 -1.199e-02
96 1 3.535e-01 7.434e+00 7.433e+00 -9.158e-05 -5.686e-02 3.170e-02
97 1 2.124e+00 9.196e+00 7.435e+00 1.680e-03 -6.209e-03 -4.648e-02
98 1 2.125e+00 7.433e+00 9.207e+00 -9.511e-04 -6.372e-03 9.589e-03
99 1 3.562e-01 9.208e+00 9.202e+00 1.612e-03 -8.597e-02 9.700e-03
100 1 3.896e+00 7.434e+00 7.434e+00 -6.227e-04 -1.187e-02 -8.253e-03
101 1 5.662e+00 9.208e+00 7.435e+00 -3.440e-04 2.475e-02 -2.016e-02
102 1 5.665e+00 7.435e+00 9.204e+00 1.151e-04 -7.215e-04 -2.226e-02
103 1 3.893e+00 9.208e+00 9.203e+00 1.943e-04 2.793e-02 8.034e-03
104 1 7.433e+00 7.435e+00 7.435e+00 7.112e-04 4.156e-02 4.688e-03
105 1 9.207e+00 9.207e+00 7.434e+00 3.788e-04 -2.695e-02 3.265e-02
106 1 9.205e+00 7.434e+00 9.205e+00 7.139e-04 1.754e-02 6.144e-02
107 1 7.435e+00 9.203e+00 9.204e+00 7.439e-04 -2.106e-02 -5.187e-03
ITEM: TIMESTEP
0
ITEM: NUMBER OF ATOMS
107