ITEM: TIMESTEP
0
ITEM: NUMBER OF ATOMS
107
ITEM: BOX BOUNDS xy xz yz pp pp pp
                     0.00000000000000e+00 1.06000000000000e+01 0.00000000000000e+00
0.00000000000000e+00	1.06000000000000e+01	0.00000000000000e+00
0.00000000000000e+00	1.06000000000000e+01	0.00000000000000e+00
ITEM: ATOMS id type x y z DisplacementX DisplacementY DisplacementZ
1 1 3.539e-01 3.539e-01 3.551e-01 8.352e-04 -1.972e-02 -1.916e-02
2 1 2.125e+00 2.123e+00 3.546e-01 4.491e-04 -1.917e-02 -1.907e-02
3 1 2.123e+00 3.548e-01 2.126e+00 1.546e-04 -1.541e-02 -1.542e-02
4 1 3.557e-01 2.127e+00 2.124e+00 1.017e-03 -2.036e-02 -2.056e-02
5 1 3.896e+00 3.534e-01 3.544e-01 2.887e-04 -1.706e-02 -1.689e-02
6 1 5.664e+00 2.123e+00 3.556e-01 7.052e-05 -2.209e-02 -2.208e-02
7 1 5.668e+00 3.519e-01 2.127e+00 -3.252e-04 -2.070e-02 -2.187e-02
8 1 3.895e+00 2.123e+00 2.126e+00 1.388e-04 -2.009e-02 -2.105e-02
9 1 7.432e+00 3.504e-01 3.562e-01 1.612e-03 -1.924e-02 -1.809e-02
10 1 9.202e+00 2.122e+00 3.538e-01 1.249e-03 -2.180e-02 -2.165e-02
11 1 9.204e+00 3.511e-01 2.126e+00 1.773e-03 -2.109e-02 -2.068e-02
12 1 7.433e+00 2.124e+00 2.122e+00 -5.217e-04 -1.480e-02 -1.281e-02
13 1 3.534e-01 3.896e+00 3.562e-01 5.731e-04 -1.889e-02 -1.882e-02
14 1 2.123e+00 3.894e+00 2.125e+00 1.219e-04 -1.685e-02 -1.685e-02
15 1 3.896e+00 3.895e+00 3.541e-01 4.341e-04 -2.099e-02 -2.098e-02
16 1 5.665e+00 3.899e+00 2.126e+00 1.474e-04 -1.997e-02 -2.137e-02
17 1 7.433e+00 3.895e+00 3.584e-01 9.994e-04 -2.425e-02 -2.489e-02
18 1 9.203e+00 3.898e+00 2.125e+00 1.335e-03 -2.110e-02 -2.146e-02
19 1 3.509e-01 3.492e-01 3.892e+00 7.675e-04 -2.573e-02 -2.524e-02
20 1 2.124e+00 2.124e+00 3.894e+00 -4.173e-05 -1.956e-02 -2.043e-02
21 1 3.897e+00 3.526e-01 3.893e+00 -8.553e-04 -1.995e-02 -2.025e-02
22 1 5.662e+00 2.124e+00 3.893e+00 1.525e-03 -1.725e-02 -1.625e-02
23 1 7.434e+00 3.620e-01 3.893e+00 7.295e-04 1.087e-02 5.069e-03
24 1 9.205e+00 2.123e+00 3.894e+00 -7.054e-04 -1.327e-02 -1.431e-02
25 1 3.490e-01 3.898e+00 3.894e+00 -2.225e-04 -1.182e-02 -1.272e-02
26 1 3.897e+00 3.898e+00 3.894e+00 2.593e-05 -1.275e-02 -1.423e-02
27 1 7.437e+00 3.884e+00 3.893e+00 -3.219e-03 -4.758e-02 -4.851e-02
28 1 2.124e+00 3.534e-01 5.665e+00 2.341e-04 -1.800e-02 -1.897e-02
29 1 3.535e-01 2.125e+00 5.664e+00 9.087e-05 -1.849e-02 -1.945e-02
30 1 5.666e+00 3.512e-01 5.663e+00 -9.607e-04 -2.028e-02 -2.054e-02
31 1 3.895e+00 2.123e+00 5.663e+00 2.460e-04 -1.902e-02 -1.961e-02
32 1 9.204e+00 3.517e-01 5.662e+00 7.269e-04 -2.781e-02 -2.596e-02
33 1 7.433e+00 2.122e+00 5.664e+00 2.289e-03 -1.435e-02 -1.305e-02
34 1 2.123e+00 3.895e+00 5.663e+00 -1.980e-04 -1.763e-02 -1.677e-02
35 1 5.665e+00 3.895e+00 5.661e+00 3.841e-04 -1.738e-02 -1.924e-02
36 1 9.205e+00 3.896e+00 5.662e+00 -6.350e-04 -1.223e-02 -1.573e-02
37 1 3.538e-01 3.535e-01 7.432e+00 5.603e-04 -2.071e-02 -2.081e-02
38 1 2.125e+00 2.122e+00 7.435e+00 3.541e-04 -1.907e-02 -1.908e-02
39 1 2.124e+00 3.503e-01 9.204e+00 4.945e-04 -1.880e-02 -1.874e-02
40 1 3.536e-01 2.125e+00 9.202e+00 5.555e-04 -1.998e-02 -1.977e-02
41 1 3.895e+00 3.533e-01 7.433e+00 2.808e-04 -2.032e-02 -2.053e-02
42 1 5.663e+00 2.122e+00 7.432e+00 4.209e-04 -1.978e-02 -2.041e-02
43 1 5.664e+00 3.532e-01 9.203e+00 6.332e-04 -1.951e-02 -1.938e-02
44 1 3.895e+00 2.124e+00 9.204e+00 4.310e-04 -1.998e-02 -1.985e-02
45 1 7.434e+00 3.491e-01 7.430e+00 -5.349e-04 -3.122e-02 -3.069e-02
46 1 9.203e+00 2.125e+00 7.434e+00 3.642e-04 -2.067e-02 -2.076e-02
47 1 9.203e+00 3.515e-01 9.203e+00 1.015e-03 -2.028e-02 -2.016e-02
48 1 7.435e+00 2.125e+00 9.204e+00 4.312e-04 -2.522e-02 -2.544e-02
49 1 3.512e-01 3.896e+00 7.435e+00 7.738e-05 -1.841e-02 -1.797e-02
50 1 2.126e+00 3.895e+00 9.204e+00 4.102e-04 -1.940e-02 -1.902e-02
51 1 3.894e+00 3.895e+00 7.433e+00 5.165e-04 -1.852e-02 -1.804e-02
52 1 5.662e+00 3.893e+00 9.205e+00 8.882e-04 -2.337e-02 -2.226e-02
53 1 7.434e+00 3.896e+00 7.432e+00 5.629e-04 -1.579e-02 -1.510e-02
54 1 9.203e+00 3.894e+00 9.205e+00 4.473e-04 -2.176e-02 -2.061e-02
55 1 2.121e+00 5.665e+00 3.557e-01 3.657e-04 -1.673e-02 -1.637e-02
56 1 3.518e-01 5.665e+00 2.126e+00 -2.890e-04 -8.487e-03 -8.585e-03
57 1 5.665e+00 5.666e+00 3.555e-01 7.541e-04 -2.322e-02 -2.268e-02
58 1 3.896e+00 5.666e+00 2.125e+00 -1.541e-04 -1.943e-02 -1.849e-02
59 1 9.202e+00 5.668e+00 3.561e-01 -1.517e-04 -2.299e-02 -2.141e-02
60 1 7.433e+00 5.674e+00 2.134e+00 -1.193e-03 1.716e+00 1.715e+00
61 1 3.508e-01 7.436e+00 3.585e-01 5.114e-04 -1.520e-02 -1.432e-02
62 1 2.124e+00 9.203e+00 3.523e-01 2.245e-04 -1.666e-02 -1.622e-02
63 1 2.127e+00 7.434e+00 2.121e+00 4.435e-05 -2.189e-02 -1.954e-02
64 1 3.508e-01 9.201e+00 2.127e+00 -3.156e-04 -1.428e-02 -1.473e-02
65 1 3.898e+00 7.434e+00 3.553e-01 7.367e-04 -1.312e-02 -1.289e-02
66 1 5.667e+00 9.204e+00 3.585e-01 1.344e-03 -1.500e-02 -1.402e-02
67 1 5.673e+00 7.433e+00 2.134e+00 -1.287e-05 -4.358e-02 -4.319e-02
68 1 3.897e+00 9.202e+00 2.124e+00 5.747e-04 -9.648e-03 -7.794e-03
69 1 7.434e+00 7.435e+00 3.464e-01 -1.066e-03 -4.342e-02 -3.544e-02
70 1 9.203e+00 9.202e+00 3.569e-01 1.155e-03 -2.044e-02 -1.665e-02
71 1 9.195e+00 7.434e+00 2.134e+00 -3.086e-05 -4.298e-02 -4.375e-02
72 1 7.433e+00 9.195e+00 2.134e+00 1.184e-03 -1.325e-02 -4.284e-02
73 1 2.124e+00 5.662e+00 3.893e+00 3.258e-04 -2.380e-02 -2.136e-02
74 1 5.676e+00 5.673e+00 3.892e+00 1.466e-03 -4.346e-02 -4.232e-02
75 1 9.197e+00 5.673e+00 3.894e+00 -2.946e-04 -4.279e-02 -4.208e-02
76 1 3.627e-01 7.434e+00 3.896e+00 -3.485e-03 -1.621e-03 -2.551e-03
77 1 2.124e+00 9.207e+00 3.893e+00 -1.032e-04 -5.802e-03 -5.868e-03
78 1 3.885e+00 7.434e+00 3.894e+00 -2.204e-03 -1.966e-02 -1.816e-02
79 1 5.673e+00 9.193e+00 3.894e+00 -6.488e-03 -2.611e-02 -3.552e-02
80 1 9.195e+00 9.197e+00 3.895e+00 9.070e-03 -2.540e-02 -3.485e-02
81 1 3.507e-01 5.663e+00 5.661e+00 -7.797e-04 -1.869e-02 -1.594e-02
82 1 3.897e+00 5.667e+00 5.662e+00 -1.067e-03 -8.300e-03 -8.493e-03
83 1 7.435e+00 5.674e+00 5.654e+00 -2.395e-05 -4.361e-02 -1.567e-02
84 1 2.124e+00 7.436e+00 5.665e+00 9.993e-04 -9.721e-03 -8.450e-03
85 1 3.501e-01 9.204e+00 5.664e+00 -1.051e-03 -1.631e-02 -1.693e-02
86 1 5.674e+00 7.433e+00 5.653e+00 -5.991e-03 -3.390e-02 -2.539e-02
87 1 3.896e+00 9.201e+00 5.663e+00 5.328e-04 -2.062e-02 -2.099e-02
88 1 9.195e+00 7.432e+00 5.654e+00 8.391e-03 -3.545e-02 -2.798e-02
89 1 7.434e+00 9.196e+00 5.655e+00 1.389e-03 -2.708e-02 -2.581e-02
90 1 2.123e+00 5.664e+00 7.434e+00 -1.814e-04 -1.652e-02 -1.598e-02
91 1 3.525e-01 5.665e+00 9.205e+00 5.595e-04 -2.045e-02 -1.922e-02
92 1 5.667e+00 5.665e+00 7.432e+00 1.147e-03 -2.743e-02 -2.265e-02
93 1 3.895e+00 5.665e+00 9.204e+00 5.758e-04 -2.216e-02 -2.075e-02
94 1 9.203e+00 5.666e+00 7.428e+00 1.118e-03 -1.706e-02 -1.429e-02
95 1 7.434e+00 5.664e+00 9.206e+00 7.268e-04 -1.810e-02 -1.571e-02
96 1 3.514e-01 7.435e+00 7.429e+00 1.761e-05 -2.253e-02 -2.077e-02
97 1 2.124e+00 9.203e+00 7.432e+00 3.094e-04 -1.844e-02 -1.877e-02
98 1 2.123e+00 7.435e+00 9.205e+00 2.649e-04 -1.899e-02 -1.905e-02
99 1 3.535e-01 9.202e+00 9.203e+00 1.076e-03 -2.055e-02 -1.929e-02
100 1 3.899e+00 7.435e+00 7.429e+00 2.214e-04 -2.038e-02 -1.927e-02
101 1 5.666e+00 9.201e+00 7.429e+00 -3.625e-04 -2.258e-02 -2.068e-02
102 1 5.662e+00 7.434e+00 9.204e+00 1.231e-04 -1.717e-02 -1.402e-02
103 1 3.896e+00 9.205e+00 9.203e+00 1.484e-04 -1.818e-02 -1.769e-02
104 1 7.434e+00 7.433e+00 7.442e+00 2.370e-03 -2.996e-03 -2.297e-03
105 1 9.202e+00 9.202e+00 7.432e+00 1.728e-03 -2.284e-02 -2.231e-02
106 1 9.205e+00 7.434e+00 9.204e+00 1.373e-03 -1.825e-02 -1.541e-02
107 1 7.435e+00 9.206e+00 9.204e+00 1.339e-03 -1.059e-02 -1.024e-02
ITEM: TIMESTEP
0
ITEM: NUMBER OF ATOMS
107
ITEM: BOX BOUNDS xy xz yz pp pp pp
                     0.00000000000000e+00 1.06000000000000e+01 0.00000000000000e+00
0.00000000000000e+00	1.06000000000000e+01	0.00000000000000e+00
0.00000000000000e+00	1.06000000000000e+01	0.00000000000000e+00
ITEM: ATOMS id type x y z DisplacementX DisplacementY DisplacementZ
1 1 3.539e-01 3.539e-01 3.551e-01 -2.457e-03 -6.267e-03 -3.730e-03
2 1 2.125e+00 2.123e+00 3.546e-01 -3.098e-03 -5.656e-03 -4.229e-03
3 1 2.123e+00 3.548e-01 2.126e+00 -5.667e-03 -5.995e-03 -6.650e-03
4 1 3.557e-01 2.127e+00 2.124e+00 6.084e-04 -5.939e-03 -8.062e-04
5 1 3.896e+00 3.534e-01 3.544e-01 -5.069e-03 -5.698e-03 -6.098e-03
6 1 5.664e+00 2.123e+00 3.556e-01 -7.892e-04 -5.287e-03 -1.844e-03
7 1 5.668e+00 3.519e-01 2.127e+00 -5.921e-04 -4.610e-03 -9.849e-04
8 1 3.895e+00 2.123e+00 2.126e+00 -1.732e-03 -5.106e-03 -2.303e-03
9 1 7.432e+00 3.504e-01 3.562e-01 9.922e-04 -7.095e-03 -2.942e-04
10 1 9.202e+00 2.122e+00 3.538e-01 -1.111e-03 -6.191e-03 -2.799e-03
11 1 9.204e+00 3.511e-01 2.126e+00 5.009e-03 -7.097e-03 3.129e-03
12 1 7.433e+00 2.124e+00 2.122e+00 -8.347e-03 -5.136e-03 -1.131e-02
13 1 3.534e-01 3.896e+00 3.562e-01 -2.045e-03 -5.914e-03 -3.346e-03
14 1 2.123e+00 3.894e+00 2.125e+00 -2.941e-03 -5.159e-03 -3.821e-03
15 1 3.896e+00 3.895e+00 3.541e-01 -2.868e-03 -5.301e-03 -3.920e-03
16 1 5.665e+00 3.899e+00 2.126e+00 1.096e-04 -5.367e-03 -9.276e-04
17 1 7.433e+00 3.895e+00 3.584e-01 1.355e-03 -6.668e-03 4.987e-04
18 1 9.203e+00 3.898e+00 2.125e+00 9.412e-04 -5.418e-03 -5.929e-04
19 1 3.509e-01 3.492e-01 3.892e+00 -3.930e-03 -6.313e-03 -5.870e-03
20 1 2.124e+00 2.124e+00 3.894e+00 -2.813e-03 -5.484e-03 -2.848e-03
21 1 3.897e+00 3.526e-01 3.893e+00 -1.861e-04 -4.540e-03 -2.122e-05
22 1 5.662e+00 2.124e+00 3.893e+00 -6.298e-03 -6.341e-03 -8.671e-03
23 1 7.434e+00 3.620e-01 3.893e+00 -5.972e-04 -5.983e-03 2.650e-03
24 1 9.205e+00 2.123e+00 3.894e+00 4.098e-03 -4.278e-03 3.466e-03
25 1 3.490e-01 3.898e+00 3.894e+00 -5.725e-03 -5.701e-03 -5.249e-03
26 1 3.897e+00 3.898e+00 3.894e+00 1.997e-03 -5.044e-03 2.453e-03
27 1 7.437e+00 3.884e+00 3.893e+00 8.156e-03 -4.416e-03 5.601e-03
28 1 2.124e+00 3.534e-01 5.665e+00 -2.778e-03 -5.756e-03 -3.769e-03
29 1 3.535e-01 2.125e+00 5.664e+00 -2.600e-03 -5.509e-03 -3.164e-03
30 1 5.666e+00 3.512e-01 5.663e+00 2.691e-03 -4.562e-03 4.407e-03
31 1 3.895e+00 2.123e+00 5.663e+00 -2.446e-03 -5.873e-03 -2.795e-03
32 1 9.204e+00 3.517e-01 5.662e+00 7.200e-05 -4.267e-03 -7.999e-05
33 1 7.433e+00 2.122e+00 5.664e+00 3.101e-03 -7.320e-03 1.842e-03
34 1 2.123e+00 3.895e+00 5.663e+00 -2.247e-03 -5.213e-03 -1.362e-03
35 1 5.665e+00 3.895e+00 5.661e+00 -1.759e-03 -7.559e-03 -2.479e-03
36 1 9.205e+00 3.896e+00 5.662e+00 -6.252e-03 -6.467e-03 -7.056e-03
37 1 3.538e-01 3.535e-01 7.432e+00 -3.406e-03 -5.789e-03 -5.222e-03
38 1 2.125e+00 2.122e+00 7.435e+00 -3.001e-03 -5.807e-03 -3.692e-03
39 1 2.124e+00 3.503e-01 9.204e+00 -3.933e-03 -5.873e-03 -5.132e-03
40 1 3.536e-01 2.125e+00 9.202e+00 -2.594e-03 -5.833e-03 -3.711e-03
41 1 3.895e+00 3.533e-01 7.433e+00 -2.631e-03 -5.702e-03 -3.396e-03
42 1 5.663e+00 2.122e+00 7.432e+00 -2.033e-03 -6.416e-03 -2.093e-03
43 1 5.664e+00 3.532e-01 9.203e+00 -5.899e-03 -6.071e-03 -7.300e-03
44 1 3.895e+00 2.124e+00 9.204e+00 -3.333e-03 -5.785e-03 -4.238e-03
45 1 7.434e+00 3.491e-01 7.430e+00 -3.471e-03 -4.754e-03 -5.581e-03
46 1 9.203e+00 2.125e+00 7.434e+00 -2.381e-03 -5.681e-03 -2.705e-03
47 1 9.203e+00 3.515e-01 9.203e+00 -3.305e-03 -6.551e-03 -5.861e-03
48 1 7.435e+00 2.125e+00 9.204e+00 -1.967e-03 -5.877e-03 -2.443e-03
49 1 3.512e-01 3.896e+00 7.435e+00 -4.335e-03 -5.468e-03 -4.529e-03
50 1 2.126e+00 3.895e+00 9.204e+00 -3.361e-03 -5.647e-03 -4.246e-03
51 1 3.894e+00 3.895e+00 7.433e+00 -2.738e-03 -5.986e-03 -3.319e-03
52 1 5.662e+00 3.893e+00 9.205e+00 -3.546e-03 -5.584e-03 -4.937e-03
53 1 7.434e+00 3.896e+00 7.432e+00 -6.754e-03 -5.526e-03 -7.442e-03
54 1 9.203e+00 3.894e+00 9.205e+00 -2.017e-03 -5.722e-03 -3.131e-03
55 1 2.121e+00 5.665e+00 3.557e-01 -4.309e-03 -4.921e-03 -5.925e-03
56 1 3.518e-01 5.665e+00 2.126e+00 -6.960e-03 -6.140e-03 -7.899e-03
57 1 5.665e+00 5.666e+00 3.555e-01 -9.886e-03 -7.372e-03 -1.070e-02
58 1 3.896e+00 5.666e+00 2.125e+00 8.687e-04 -4.005e-03 -1.056e-03
59 1 9.202e+00 5.668e+00 3.561e-01 1.457e-03 -7.207e-03 -2.944e-04
60 1 7.433e+00 5.674e+00 2.134e+00 -2.978e-02 -5.222e-03 -3.200e-02
61 1 3.508e-01 7.436e+00 3.585e-01 -2.141e-03 -7.668e-03 -3.592e-03
62 1 2.124e+00 9.203e+00 3.523e-01 -6.810e-03 -5.586e-03 -8.394e-03
63 1 2.127e+00 7.434e+00 2.121e+00 3.068e-04 -4.047e-03 -2.806e-03
64 1 3.508e-01 9.201e+00 2.127e+00 -7.426e-03 -5.551e-03 -7.436e-03
65 1 3.898e+00 7.434e+00 3.553e-01 -9.716e-03 -5.571e-03 -1.081e-02
66 1 5.667e+00 9.204e+00 3.585e-01 -6.345e-03 -6.116e-03 -6.791e-03
67 1 5.673e+00 7.433e+00 2.134e+00 1.729e+00 -5.859e-03 1.727e+00
68 1 3.897e+00 9.202e+00 2.124e+00 -5.644e-03 -6.854e-03 -8.487e-03
69 1 7.434e+00 7.435e+00 3.464e-01 -1.758e-02 -1.170e-03 -2.237e-02
70 1 9.203e+00 9.202e+00 3.569e-01 -8.434e-04 -7.086e-03 -2.450e-03
71 1 9.195e+00 7.434e+00 2.134e+00 -1.732e-03 -4.412e-03 -3.092e-02
72 1 7.433e+00 9.195e+00 2.134e+00 -2.969e-02 -5.728e-03 -3.128e-02
73 1 2.124e+00 5.662e+00 3.893e+00 -2.069e-03 -5.657e-03 -3.685e-03
74 1 5.676e+00 5.673e+00 3.892e+00 -2.881e-02 -5.386e-03 -3.067e-02
75 1 9.197e+00 5.673e+00 3.894e+00 -1.343e-02 -1.396e-02 -2.261e-02
76 1 3.627e-01 7.434e+00 3.896e+00 6.275e-03 -1.421e-03 1.123e-02
77 1 2.124e+00 9.207e+00 3.893e+00 -9.812e-04 -5.544e-03 -7.792e-04
78 1 3.885e+00 7.434e+00 3.894e+00 -1.227e-02 -9.531e-03 -1.603e-02
79 1 5.673e+00 9.193e+00 3.894e+00 -3.035e-02 -6.751e-03 -3.112e-02
80 1 9.195e+00 9.197e+00 3.895e+00 -1.418e-02 1.898e-03 -2.226e-02
81 1 3.507e-01 5.663e+00 5.661e+00 -3.928e-03 -4.299e-03 -2.496e-03
82 1 3.897e+00 5.667e+00 5.662e+00 -2.877e-03 -5.440e-03 -4.019e-04
83 1 7.435e+00 5.674e+00 5.654e+00 -2.219e-02 -1.383e-02 -1.456e-02
84 1 2.124e+00 7.436e+00 5.665e+00 -1.410e-03 -7.497e-03 -3.407e-03
85 1 3.501e-01 9.204e+00 5.664e+00 -8.019e-03 -5.143e-03 -8.960e-03
86 1 5.674e+00 7.433e+00 5.653e+00 -2.946e-02 -6.338e-03 -3.187e-03
87 1 3.896e+00 9.201e+00 5.663e+00 2.537e-03 -5.401e-03 1.531e-03
88 1 9.195e+00 7.432e+00 5.654e+00 -1.236e-02 -5.247e-03 -1.326e-02
89 1 7.434e+00 9.196e+00 5.655e+00 -2.057e-02 2.277e-03 -1.555e-02
90 1 2.123e+00 5.664e+00 7.434e+00 -3.650e-03 -5.784e-03 -3.257e-03
91 1 3.525e-01 5.665e+00 9.205e+00 -3.289e-03 -5.846e-03 -4.511e-03
92 1 5.667e+00 5.665e+00 7.432e+00 -1.246e-03 -4.409e-03 -3.613e-03
93 1 3.895e+00 5.665e+00 9.204e+00 -5.365e-03 -5.934e-03 -6.455e-03
94 1 9.203e+00 5.666e+00 7.428e+00 -9.023e-03 -5.341e-03 -1.105e-02
95 1 7.434e+00 5.664e+00 9.206e+00 -1.539e-03 -5.510e-03 -5.052e-03
96 1 3.514e-01 7.435e+00 7.429e+00 -9.735e-03 -5.265e-03 -1.212e-02
97 1 2.124e+00 9.203e+00 7.432e+00 -3.272e-03 -5.774e-03 -4.154e-03
98 1 2.123e+00 7.435e+00 9.205e+00 -6.790e-03 -5.584e-03 -7.559e-03
99 1 3.535e-01 9.202e+00 9.203e+00 -2.295e-03 -6.271e-03 -4.566e-03
100 1 3.899e+00 7.435e+00 7.429e+00 8.559e-05 -4.563e-03 -6.441e-04
101 1 5.666e+00 9.201e+00 7.429e+00 -6.936e-03 -5.783e-03 -9.877e-03
102 1 5.662e+00 7.434e+00 9.204e+00 -1.171e-03 -7.924e-03 -4.145e-03
103 1 3.896e+00 9.205e+00 9.203e+00 -6.829e-03 -5.975e-03 -7.650e-03
104 1 7.434e+00 7.433e+00 7.442e+00 3.598e-03 -1.308e-02 9.305e-04
105 1 9.202e+00 9.202e+00 7.432e+00 -5.010e-03 -7.255e-03 -1.086e-02
106 1 9.205e+00 7.434e+00 9.204e+00 2.468e-05 -5.107e-03 -1.768e-03
107 1 7.435e+00 9.206e+00 9.204e+00 -6.102e-03 -6.351e-03 -8.953e-03
ITEM: TIMESTEP
0
ITEM: NUMBER OF ATOMS
107
ITEM: BOX BOUNDS xy xz yz pp pp pp
                     0.00000000000000e+00 1.06000000000000e+01 0.00000000000000e+00
0.00000000000000e+00	1.06000000000000e+01	0.00000000000000e+00
0.00000000000000e+00	1.06000000000000e+01	0.00000000000000e+00
ITEM: ATOMS id type x y z DisplacementX DisplacementY DisplacementZ
1 1 3.539e-01 3.539e-01 3.551e-01 3.704e-03 2.139e-03 -4.889e-03
2 1 2.125e+00 2.123e+00 3.546e-01 2.681e-03 2.036e-03 -3.538e-03
3 1 2.123e+00 3.548e-01 2.126e+00 4.341e-03 1.656e-03 -5.264e-03
4 1 3.557e-01 2.127e+00 2.124e+00 3.368e-04 1.448e-03 -3.779e-05
5 1 3.896e+00 3.534e-01 3.544e-01 2.562e-03 2.055e-03 -3.106e-03
6 1 5.664e+00 2.123e+00 3.556e-01 -9.835e-05 2.336e-03 -4.460e-04
7 1 5.668e+00 3.519e-01 2.127e+00 -7.632e-03 1.266e-03 7.263e-03
8 1 3.895e+00 2.123e+00 2.126e+00 -3.006e-03 1.954e-03 2.348e-03
9 1 7.432e+00 3.504e-01 3.562e-01 -4.007e-03 2.601e-03 2.705e-03
10 1 9.202e+00 2.122e+00 3.538e-01 5.445e-04 1.558e-03 -1.084e-03
11 1 9.204e+00 3.511e-01 2.126e+00 -6.639e-04 2.934e-03 1.083e-03
12 1 7.433e+00 2.124e+00 2.122e+00 1.727e-02 3.540e-03 -1.732e-02
13 1 3.534e-01 3.896e+00 3.562e-01 4.517e-03 1.806e-03 -5.149e-03
14 1 2.123e+00 3.894e+00 2.125e+00 2.007e-03 1.841e-03 -3.203e-03
15 1 3.896e+00 3.895e+00 3.541e-01 9.156e-04 2.334e-03 -2.179e-03
16 1 5.665e+00 3.899e+00 2.126e+00 -4.253e-03 2.735e-03 5.115e-03
17 1 7.433e+00 3.895e+00 3.584e-01 3.406e-04 1.852e-03 -9.893e-04
18 1 9.203e+00 3.898e+00 2.125e+00 -1.658e-03 -6.733e-05 1.787e-03
19 1 3.509e-01 3.492e-01 3.892e+00 -5.536e-03 2.604e-03 4.033e-03
20 1 2.124e+00 2.124e+00 3.894e+00 -1.635e-03 1.532e-03 5.642e-04
21 1 3.897e+00 3.526e-01 3.893e+00 1.890e-03 1.369e-03 -2.732e-03
22 1 5.662e+00 2.124e+00 3.893e+00 3.539e-04 2.691e-03 -1.609e-05
23 1 7.434e+00 3.620e-01 3.893e+00 9.937e-03 3.486e-04 -3.064e-03
24 1 9.205e+00 2.123e+00 3.894e+00 9.934e-03 1.980e-03 -8.234e-03
25 1 3.490e-01 3.898e+00 3.894e+00 -4.469e-04 1.355e-03 7.511e-04
26 1 3.897e+00 3.898e+00 3.894e+00 3.495e-03 1.767e-03 -3.517e-03
27 1 7.437e+00 3.884e+00 3.893e+00 -1.932e-02 3.187e-03 1.684e-02
28 1 2.124e+00 3.534e-01 5.665e+00 2.169e-03 2.262e-03 -2.905e-03
29 1 3.535e-01 2.125e+00 5.664e+00 1.286e-03 1.783e-03 -6.356e-04
30 1 5.666e+00 3.512e-01 5.663e+00 3.915e-03 1.468e-03 -6.015e-03
31 1 3.895e+00 2.123e+00 5.663e+00 1.472e-03 1.866e-03 -2.200e-03
32 1 9.204e+00 3.517e-01 5.662e+00 -3.901e-03 1.163e-03 6.549e-03
33 1 7.433e+00 2.122e+00 5.664e+00 -1.543e-03 3.074e-03 4.216e-04
34 1 2.123e+00 3.895e+00 5.663e+00 1.918e-03 1.871e-03 -2.588e-03
35 1 5.665e+00 3.895e+00 5.661e+00 4.226e-03 2.242e-03 -2.260e-03
36 1 9.205e+00 3.896e+00 5.662e+00 1.481e-03 3.057e-03 -1.655e-03
37 1 3.538e-01 3.535e-01 7.432e+00 2.762e-03 2.608e-03 -3.281e-03
38 1 2.125e+00 2.122e+00 7.435e+00 2.864e-03 2.127e-03 -3.554e-03
39 1 2.124e+00 3.503e-01 9.204e+00 4.218e-03 2.194e-03 -4.977e-03
40 1 3.536e-01 2.125e+00 9.202e+00 3.634e-03 2.113e-03 -4.198e-03
41 1 3.895e+00 3.533e-01 7.433e+00 4.359e-03 2.056e-03 -5.238e-03
42 1 5.663e+00 2.122e+00 7.432e+00 2.890e-03 2.072e-03 -3.430e-03
43 1 5.664e+00 3.532e-01 9.203e+00 4.768e-03 2.525e-03 -5.416e-03
44 1 3.895e+00 2.124e+00 9.204e+00 2.760e-03 2.209e-03 -3.651e-03
45 1 7.434e+00 3.491e-01 7.430e+00 5.812e-03 2.733e-03 -6.488e-03
46 1 9.203e+00 2.125e+00 7.434e+00 1.699e-03 2.439e-03 -1.465e-03
47 1 9.203e+00 3.515e-01 9.203e+00 6.744e-03 2.784e-03 -7.604e-03
48 1 7.435e+00 2.125e+00 9.204e+00 6.469e-04 1.878e-03 -1.236e-03
49 1 3.512e-01 3.896e+00 7.435e+00 3.569e-03 2.054e-03 -3.825e-03
50 1 2.126e+00 3.895e+00 9.204e+00 3.912e-03 2.127e-03 -4.777e-03
51 1 3.894e+00 3.895e+00 7.433e+00 4.874e-03 2.171e-03 -5.762e-03
52 1 5.662e+00 3.893e+00 9.205e+00 3.659e-03 2.200e-03 -5.396e-03
53 1 7.434e+00 3.896e+00 7.432e+00 1.034e-02 2.338e-03 -9.939e-03
54 1 9.203e+00 3.894e+00 9.205e+00 7.004e-03 2.306e-03 -7.341e-03
55 1 2.121e+00 5.665e+00 3.557e-01 3.280e-03 1.902e-03 -4.918e-03
56 1 3.518e-01 5.665e+00 2.126e+00 3.531e-03 1.851e-03 -5.558e-03
57 1 5.665e+00 5.666e+00 3.555e-01 2.753e-03 2.768e-03 -5.429e-03
58 1 3.896e+00 5.666e+00 2.125e+00 1.743e-03 1.272e-03 -2.923e-03
59 1 9.202e+00 5.668e+00 3.561e-01 1.606e-02 4.459e-03 -1.582e-02
60 1 7.433e+00 5.674e+00 2.134e+00 2.992e-02 2.007e-03 -3.275e-02
61 1 3.508e-01 7.436e+00 3.585e-01 1.058e-02 2.522e-03 -1.329e-02
62 1 2.124e+00 9.203e+00 3.523e-01 5.342e-03 1.892e-03 -6.680e-03
63 1 2.127e+00 7.434e+00 2.121e+00 4.858e-03 3.312e-03 -5.234e-03
64 1 3.508e-01 9.201e+00 2.127e+00 4.144e-04 1.283e-03 -4.579e-03
65 1 3.898e+00 7.434e+00 3.553e-01 1.242e-03 1.856e-03 -2.866e-03
66 1 5.667e+00 9.204e+00 3.585e-01 4.547e-03 2.576e-03 -6.630e-03
67 1 5.673e+00 7.433e+00 2.134e+00 2.787e-03 1.580e-03 -3.239e-02
68 1 3.897e+00 9.202e+00 2.124e+00 8.992e-03 2.464e-03 -6.956e-03
69 1 7.434e+00 7.435e+00 3.464e-01 2.921e-02 4.279e-03 -2.806e-02
70 1 9.203e+00 9.202e+00 3.569e-01 1.159e-02 3.602e-03 -1.233e-02
71 1 9.195e+00 7.434e+00 2.134e+00 -1.727e+00 3.296e-03 1.726e+00
72 1 7.433e+00 9.195e+00 2.134e+00 3.053e-02 3.567e-03 -3.361e-02
73 1 2.124e+00 5.662e+00 3.893e+00 3.188e-03 3.279e-03 -3.997e-03
74 1 5.676e+00 5.673e+00 3.892e+00 1.256e-02 -5.449e-03 -2.385e-02
75 1 9.197e+00 5.673e+00 3.894e+00 2.967e-02 2.157e-03 -3.029e-02
76 1 3.627e-01 7.434e+00 3.896e+00 1.881e-02 -1.026e-03 -1.782e-02
77 1 2.124e+00 9.207e+00 3.893e+00 1.057e-02 2.195e-03 -9.838e-03
78 1 3.885e+00 7.434e+00 3.894e+00 -1.467e-02 4.166e-03 1.130e-02
79 1 5.673e+00 9.193e+00 3.894e+00 1.487e-02 1.065e-02 -2.398e-02
80 1 9.195e+00 9.197e+00 3.895e+00 3.184e-02 1.887e-03 -3.120e-02
81 1 3.507e-01 5.663e+00 5.661e+00 -7.639e-04 2.685e-03 1.328e-03
82 1 3.897e+00 5.667e+00 5.662e+00 7.336e-03 1.207e-03 -9.791e-03
83 1 7.435e+00 5.674e+00 5.654e+00 2.222e-02 -6.700e-03 -1.310e-02
84 1 2.124e+00 7.436e+00 5.665e+00 2.007e-03 2.311e-03 -4.387e-03
85 1 3.501e-01 9.204e+00 5.664e+00 5.369e-04 3.634e-03 -2.978e-03
86 1 5.674e+00 7.433e+00 5.653e+00 1.448e-02 2.257e-03 -1.672e-02
87 1 3.896e+00 9.201e+00 5.663e+00 5.355e-03 1.813e-03 -5.444e-03
88 1 9.195e+00 7.432e+00 5.654e+00 3.057e-02 2.247e-03 -5.280e-03
89 1 7.434e+00 9.196e+00 5.655e+00 2.325e-02 8.999e-03 -1.514e-02
90 1 2.123e+00 5.664e+00 7.434e+00 4.521e-03 1.995e-03 -5.132e-03
91 1 3.525e-01 5.665e+00 9.205e+00 8.834e-03 2.021e-03 -9.676e-03
92 1 5.667e+00 5.665e+00 7.432e+00 8.270e-03 3.465e-03 -1.101e-02
93 1 3.895e+00 5.665e+00 9.204e+00 4.372e-03 3.055e-03 -6.328e-03
94 1 9.203e+00 5.666e+00 7.428e+00 8.000e-03 1.174e-03 -9.555e-03
95 1 7.434e+00 5.664e+00 9.206e+00 5.463e-03 3.457e-03 -6.977e-03
96 1 3.514e-01 7.435e+00 7.429e+00 3.499e-03 3.283e-03 -3.937e-03
97 1 2.124e+00 9.203e+00 7.432e+00 3.636e-03 2.381e-03 -4.485e-03
98 1 2.123e+00 7.435e+00 9.205e+00 6.920e-03 1.888e-03 -7.896e-03
99 1 3.535e-01 9.202e+00 9.203e+00 8.035e-03 2.960e-03 -9.075e-03
100 1 3.899e+00 7.435e+00 7.429e+00 1.414e-02 1.845e-03 -1.494e-02
101 1 5.666e+00 9.201e+00 7.429e+00 1.125e-02 2.907e-03 -1.319e-02
102 1 5.662e+00 7.434e+00 9.204e+00 7.219e-03 4.788e-03 -9.614e-03
103 1 3.896e+00 9.205e+00 9.203e+00 5.429e-03 2.406e-03 -7.035e-03
104 1 7.434e+00 7.433e+00 7.442e+00 -7.195e-03 3.209e-03 -2.675e-03
105 1 9.202e+00 9.202e+00 7.432e+00 8.697e-03 3.930e-03 -1.178e-02
106 1 9.205e+00 7.434e+00 9.204e+00 4.697e-03 2.208e-03 -6.958e-03
107 1 7.435e+00 9.206e+00 9.204e+00 1.291e-02 2.882e-03 -1.271e-02
ITEM: TIMESTEP
0
ITEM: NUMBER OF ATOMS
107
ITEM: BOX BOUNDS xy xz yz pp pp pp
                     0.00000000000000e+00 1.06000000000000e+01 0.00000000000000e+00
0.00000000000000e+00	1.06000000000000e+01	0.00000000000000e+00
0.00000000000000e+00	1.06000000000000e+01	0.00000000000000e+00
ITEM: ATOMS id type x y z DisplacementX DisplacementY DisplacementZ
1 1 3.539e-01 3.539e-01 3.551e-01 -2.819e-03 1.310e-02 -8.383e-03
2 1 2.125e+00 2.123e+00 3.546e-01 -2.711e-03 1.232e-02 -7.926e-03
3 1 2.123e+00 3.548e-01 2.126e+00 -2.522e-03 8.281e-03 -3.827e-03
4 1 3.557e-01 2.127e+00 2.124e+00 -3.339e-03 1.365e-02 -9.521e-03
5 1 3.896e+00 3.534e-01 3.544e-01 -2.550e-03 1.306e-02 -8.725e-03
6 1 5.664e+00 2.123e+00 3.556e-01 -2.793e-03 1.426e-02 -1.095e-02
7 1 5.668e+00 3.519e-01 2.127e+00 -3.156e-03 1.522e-02 -1.255e-02
8 1 3.895e+00 2.123e+00 2.126e+00 -3.051e-03 1.342e-02 -9.878e-03
9 1 7.432e+00 3.504e-01 3.562e-01 -2.742e-03 2.322e-02 -1.812e-02
10 1 9.202e+00 2.122e+00 3.538e-01 -3.125e-03 1.455e-02 -1.039e-02
11 1 9.204e+00 3.511e-01 2.126e+00 -4.714e-03 1.520e-02 -1.170e-02
12 1 7.433e+00 2.124e+00 2.122e+00 -1.345e-03 4.374e-03 -8.411e-04
13 1 3.534e-01 3.896e+00 3.562e-01 -2.714e-03 1.211e-02 -7.393e-03
14 1 2.123e+00 3.894e+00 2.125e+00 -2.738e-03 1.074e-02 -6.378e-03
15 1 3.896e+00 3.895e+00 3.541e-01 -2.665e-03 1.179e-02 -7.599e-03
16 1 5.665e+00 3.899e+00 2.126e+00 -2.927e-03 1.059e-02 -8.311e-03
17 1 7.433e+00 3.895e+00 3.584e-01 -3.763e-03 9.012e-03 -5.151e-03
18 1 9.203e+00 3.898e+00 2.125e+00 -2.865e-03 1.119e-02 -8.167e-03
19 1 3.509e-01 3.492e-01 3.892e+00 -3.684e-03 7.930e-03 -3.437e-03
20 1 2.124e+00 2.124e+00 3.894e+00 -3.444e-03 1.101e-02 -6.875e-03
21 1 3.897e+00 3.526e-01 3.893e+00 -2.546e-03 6.638e-03 -4.032e-03
22 1 5.662e+00 2.124e+00 3.893e+00 -3.889e-03 1.207e-02 -8.192e-03
23 1 7.434e+00 3.620e-01 3.893e+00 -7.772e-03 1.676e-02 -1.686e-02
24 1 9.205e+00 2.123e+00 3.894e+00 -1.734e-03 1.111e-02 -8.493e-03
25 1 3.490e-01 3.898e+00 3.894e+00 -3.725e-03 1.337e-02 -9.866e-03
26 1 3.897e+00 3.898e+00 3.894e+00 -3.306e-03 1.283e-02 -9.211e-03
27 1 7.437e+00 3.884e+00 3.893e+00 -1.076e-03 2.923e-03 -1.646e-03
28 1 2.124e+00 3.534e-01 5.665e+00 -3.100e-03 1.122e-02 -6.769e-03
29 1 3.535e-01 2.125e+00 5.664e+00 -3.169e-03 1.182e-02 -7.878e-03
30 1 5.666e+00 3.512e-01 5.663e+00 -1.970e-03 7.286e-03 -5.645e-03
31 1 3.895e+00 2.123e+00 5.663e+00 -3.528e-03 1.159e-02 -7.569e-03
32 1 9.204e+00 3.517e-01 5.662e+00 -2.608e-03 8.862e-03 -4.750e-03
33 1 7.433e+00 2.122e+00 5.664e+00 -2.459e-03 8.453e-03 -3.748e-03
34 1 2.123e+00 3.895e+00 5.663e+00 -2.493e-03 1.168e-02 -7.623e-03
35 1 5.665e+00 3.895e+00 5.661e+00 -5.637e-03 1.509e-02 -1.053e-02
36 1 9.205e+00 3.896e+00 5.662e+00 -4.790e-03 1.406e-02 -1.234e-02
37 1 3.538e-01 3.535e-01 7.432e+00 -2.563e-03 1.256e-02 -7.517e-03
38 1 2.125e+00 2.122e+00 7.435e+00 -2.813e-03 1.233e-02 -7.813e-03
39 1 2.124e+00 3.503e-01 9.204e+00 -2.619e-03 1.264e-02 -7.898e-03
40 1 3.536e-01 2.125e+00 9.202e+00 -2.699e-03 1.333e-02 -8.816e-03
41 1 3.895e+00 3.533e-01 7.433e+00 -2.759e-03 1.213e-02 -7.830e-03
42 1 5.663e+00 2.122e+00 7.432e+00 -3.044e-03 1.254e-02 -8.057e-03
43 1 5.664e+00 3.532e-01 9.203e+00 -2.970e-03 1.560e-02 -1.101e-02
44 1 3.895e+00 2.124e+00 9.204e+00 -2.733e-03 1.325e-02 -8.825e-03
45 1 7.434e+00 3.491e-01 7.430e+00 -1.868e-03 1.012e-02 -6.498e-03
46 1 9.203e+00 2.125e+00 7.434e+00 -3.334e-03 1.242e-02 -8.739e-03
47 1 9.203e+00 3.515e-01 9.203e+00 -2.413e-03 1.605e-02 -1.053e-02
48 1 7.435e+00 2.125e+00 9.204e+00 -3.201e-03 1.777e-02 -1.377e-02
49 1 3.512e-01 3.896e+00 7.435e+00 -2.633e-03 1.321e-02 -9.205e-03
50 1 2.126e+00 3.895e+00 9.204e+00 -2.532e-03 1.240e-02 -7.807e-03
51 1 3.894e+00 3.895e+00 7.433e+00 -2.756e-03 1.322e-02 -8.465e-03
52 1 5.662e+00 3.893e+00 9.205e+00 -2.366e-03 1.297e-02 -8.412e-03
53 1 7.434e+00 3.896e+00 7.432e+00 -2.976e-03 1.775e-02 -1.424e-02
54 1 9.203e+00 3.894e+00 9.205e+00 -2.077e-03 1.341e-02 -8.694e-03
55 1 2.121e+00 5.665e+00 3.557e-01 -2.152e-03 1.119e-02 -6.594e-03
56 1 3.518e-01 5.665e+00 2.126e+00 -1.586e-03 7.009e-03 -2.409e-03
57 1 5.665e+00 5.666e+00 3.555e-01 -2.990e-03 9.755e-03 -4.850e-03
58 1 3.896e+00 5.666e+00 2.125e+00 -2.816e-03 7.567e-03 -4.243e-03
59 1 9.202e+00 5.668e+00 3.561e-01 -3.382e-03 1.162e-02 -6.093e-03
60 1 7.433e+00 5.674e+00 2.134e+00 -2.876e-03 9.646e-03 -3.136e-02
61 1 3.508e-01 7.436e+00 3.585e-01 -2.531e-03 8.931e-03 -2.588e-03
62 1 2.124e+00 9.203e+00 3.523e-01 -2.723e-03 8.434e-03 -4.095e-03
63 1 2.127e+00 7.434e+00 2.121e+00 -1.564e-03 1.547e-02 -1.253e-02
64 1 3.508e-01 9.201e+00 2.127e+00 -3.269e-03 7.643e-03 -3.621e-03
65 1 3.898e+00 7.434e+00 3.553e-01 -2.389e-03 7.736e-03 -3.023e-03
66 1 5.667e+00 9.204e+00 3.585e-01 -1.268e-03 1.900e-02 -1.300e-02
67 1 5.673e+00 7.433e+00 2.134e+00 -2.512e-03 3.805e-02 -3.199e-02
68 1 3.897e+00 9.202e+00 2.124e+00 -2.223e-03 8.037e-03 -3.067e-03
69 1 7.434e+00 7.435e+00 3.464e-01 2.324e-03 2.936e-02 -2.640e-02
70 1 9.203e+00 9.202e+00 3.569e-01 -8.155e-04 1.717e-02 -1.127e-02
71 1 9.195e+00 7.434e+00 2.134e+00 -2.647e-03 3.765e-02 -3.139e-02
72 1 7.433e+00 9.195e+00 2.134e+00 -1.095e-03 -1.722e+00 1.729e+00
73 1 2.124e+00 5.662e+00 3.893e+00 -2.418e-03 6.496e-03 -3.400e-03
74 1 5.676e+00 5.673e+00 3.892e+00 -1.049e-02 2.076e-02 -2.161e-02
75 1 9.197e+00 5.673e+00 3.894e+00 6.293e-03 2.064e-02 -2.157e-02
76 1 3.627e-01 7.434e+00 3.896e+00 -2.990e-03 2.854e-03 -3.537e-03
77 1 2.124e+00 9.207e+00 3.893e+00 -1.973e-03 1.382e-02 -1.072e-02
78 1 3.885e+00 7.434e+00 3.894e+00 -2.635e-03 1.014e-02 -5.086e-03
79 1 5.673e+00 9.193e+00 3.894e+00 -3.912e-03 3.891e-02 -2.887e-02
80 1 9.195e+00 9.197e+00 3.895e+00 -2.806e-03 3.883e-02 -2.953e-02
81 1 3.507e-01 5.663e+00 5.661e+00 -3.195e-03 1.270e-02 -8.787e-03
82 1 3.897e+00 5.667e+00 5.662e+00 -1.905e-03 1.082e-02 -8.153e-03
83 1 7.435e+00 5.674e+00 5.654e+00 -1.786e-03 2.182e-02 -1.514e-02
84 1 2.124e+00 7.436e+00 5.665e+00 -3.090e-03 7.656e-03 -2.558e-03
85 1 3.501e-01 9.204e+00 5.664e+00 -2.772e-03 7.356e-03 -4.128e-03
86 1 5.674e+00 7.433e+00 5.653e+00 -8.638e-03 3.021e-02 -1.397e-02
87 1 3.896e+00 9.201e+00 5.663e+00 -3.241e-03 8.787e-03 -3.503e-03
88 1 9.195e+00 7.432e+00 5.654e+00 5.130e-03 2.982e-02 -1.454e-02
89 1 7.434e+00 9.196e+00 5.655e+00 -1.627e-03 3.774e-02 -1.068e-03
90 1 2.123e+00 5.664e+00 7.434e+00 -2.612e-03 1.257e-02 -7.773e-03
91 1 3.525e-01 5.665e+00 9.205e+00 -2.233e-03 1.235e-02 -7.782e-03
92 1 5.667e+00 5.665e+00 7.432e+00 -2.309e-03 1.406e-02 -1.071e-02
93 1 3.895e+00 5.665e+00 9.204e+00 -2.216e-03 1.220e-02 -7.220e-03
94 1 9.203e+00 5.666e+00 7.428e+00 3.265e-04 1.501e-02 -1.042e-02
95 1 7.434e+00 5.664e+00 9.206e+00 -5.537e-04 1.096e-02 -5.729e-03
96 1 3.514e-01 7.435e+00 7.429e+00 -1.312e-03 1.546e-02 -1.031e-02
97 1 2.124e+00 9.203e+00 7.432e+00 -2.716e-03 1.185e-02 -6.596e-03
98 1 2.123e+00 7.435e+00 9.205e+00 -2.299e-03 1.218e-02 -6.797e-03
99 1 3.535e-01 9.202e+00 9.203e+00 -1.872e-03 1.498e-02 -9.209e-03
100 1 3.899e+00 7.435e+00 7.429e+00 -1.835e-03 1.439e-02 -1.016e-02
101 1 5.666e+00 9.201e+00 7.429e+00 -2.588e-03 1.294e-02 -1.011e-02
102 1 5.662e+00 7.434e+00 9.204e+00 -1.028e-03 1.325e-02 -7.496e-03
103 1 3.896e+00 9.205e+00 9.203e+00 -2.224e-03 1.444e-02 -9.931e-03
104 1 7.434e+00 7.433e+00 7.442e+00 -3.547e-03 4.355e-03 3.614e-03
105 1 9.202e+00 9.202e+00 7.432e+00 -1.884e-03 1.516e-02 -8.304e-03