ITEM: TIMESTEP
0
ITEM: NUMBER OF ATOMS
4
ITEM: BOX BOUNDS xy xz yz pp pp pp
                     -5.00000000000000e-01 5.00000000000000e-01 0.00000000000000e+00
-5.00000000000000e-01	5.00000000000000e-01	0.00000000000000e+00
-5.00000000000000e-01	5.00000000000000e-01	0.00000000000000e+00
ITEM: ATOMS id type x y z DisplacementX DisplacementY DisplacementZ
1 1 0.000e+00 -1.000e-01 0.000e+00 5.890e-04 1.000e-04 -1.788e-03
2 1 0.000e+00 0.000e+00 0.000e+00 -4.057e-04 1.003e-01 5.178e-04
3 1 1.000e-01 0.000e+00 0.000e+00 -7.230e-04 5.924e-04 6.919e-04
4 1 -1.000e-01 0.000e+00 0.000e+00 9.763e-04 1.667e-04 -1.812e-03
ITEM: TIMESTEP
0
ITEM: NUMBER OF ATOMS
4
ITEM: BOX BOUNDS xy xz yz pp pp pp
                     -5.00000000000000e-01 5.00000000000000e-01 0.00000000000000e+00
-5.00000000000000e-01	5.00000000000000e-01	0.00000000000000e+00
-5.00000000000000e-01	5.00000000000000e-01	0.00000000000000e+00
ITEM: ATOMS id type x y z DisplacementX DisplacementY DisplacementZ
5 1 -1.000e-01 0.000e+00 0.000e+00 3.164e-04 4.225e-04 -1.839e-04
6 1 1.000e-01 0.000e+00 0.000e+00 -2.763e-04 8.098e-04 -3.947e-04
7 1 0.000e+00 0.000e+00 0.000e+00 2.127e-03 -1.001e-01 6.376e-05
8 1 0.000e+00 1.000e-01 0.000e+00 -3.211e-04 1.551e-03 6.512e-04
ITEM: TIMESTEP
0
ITEM: NUMBER OF ATOMS
4
ITEM: BOX BOUNDS xy xz yz pp pp pp
                     -5.00000000000000e-01 5.00000000000000e-01 0.00000000000000e+00
-5.00000000000000e-01	5.00000000000000e-01	0.00000000000000e+00
-5.00000000000000e-01	5.00000000000000e-01	0.00000000000000e+00
ITEM: ATOMS id type x y z DisplacementX DisplacementY DisplacementZ
9 1 0.000e+00 1.000e-01 0.000e+00 1.231e-03 1.151e-03 -1.033e-03
10 1 0.000e+00 -1.000e-01 0.000e+00 -1.105e-03 -1.930e-03 -1.919e-03
11 1 0.000e+00 0.000e+00 0.000e+00 -9.946e-02 -1.451e-03 2.076e-03
12 1 1.000e-01 0.000e+00 0.000e+00 1.695e-03 9.262e-04 9.937e-04
ITEM: TIMESTEP
0
ITEM: NUMBER OF ATOMS
4
ITEM: BOX BOUNDS xy xz yz pp pp pp
                     -5.00000000000000e-01 5.00000000000000e-01 0.00000000000000e+00
-5.00000000000000e-01	5.00000000000000e-01	0.00000000000000e+00
-5.00000000000000e-01	5.00000000000000e-01	0.00000000000000e+00
ITEM: ATOMS id type x y z DisplacementX DisplacementY DisplacementZ
13 1 -1.000e-01 0.000e+00 0.000e+00 3.847e-04 -2.756e-04 -7.982e-04
14 1 0.000e+00 1.000e-01 0.000e+00 1.442e-03 5.189e-04 1.965e-04
15 1 0.000e+00 -1.000e-01 0.000e+00 -1.578e-03 2.074e-04 -6.592e-04
16 1 0.000e+00 0.000e+00 0.000e+00 1.008e-01 6.077e-04 -8.073e-04
ITEM: TIMESTEP
0
ITEM: NUMBER OF ATOMS
4
ITEM: BOX BOUNDS xy xz yz pp pp pp
                     -5.00000000000000e-01 5.00000000000000e-01 0.00000000000000e+00
-5.00000000000000e-01	5.00000000000000e-01	0.00000000000000e+00
-5.00000000000000e-01	5.00000000000000e-01	0.00000000000000e+00
ITEM: ATOMS id type x y z DisplacementX DisplacementY DisplacementZ
17 1 1.000e-01 0.000e+00 0.000e+00 -7.272e-04 -1.304e-03 6.820e-04
18 1 0.000e+00 0.000e+00 0.000e+00 -4.012e-04 -9.948e-02 -7.991e-04
19 1 -1.000e-01 0.000e+00 0.000e+00 1.552e-03 -1.182e-03 1.410e-03
20 1 0.000e+00 1.000e-01 0.000e+00 1.393e-03 4.455e-04 1.717e-03
ITEM: TIMESTEP
0
ITEM: NUMBER OF ATOMS
4
ITEM: BOX BOUNDS xy xz yz pp pp pp
                     -5.00000000000000e-01 5.00000000000000e-01 0.00000000000000e+00
-5.00000000000000e-01	5.00000000000000e-01	0.00000000000000e+00
-5.00000000000000e-01	5.00000000000000e-01	0.00000000000000e+00
ITEM: ATOMS id type x y z DisplacementX DisplacementY DisplacementZ
21 1 0.000e+00 1.000e-01 0.000e+00 9.596e-04 2.904e-04 1.437e-03
22 1 1.000e-01 0.000e+00 0.000e+00 4.308e-04 2.417e-04 5.122e-04
23 1 0.000e+00 0.000e+00 0.000e+00 -9.976e-02 -1.650e-04 -6.459e-04
24 1 0.000e+00 -1.000e-01 0.000e+00 -3.695e-04 1.714e-04 -1.432e-03
ITEM: TIMESTEP
0
ITEM: NUMBER OF ATOMS
4
ITEM: BOX BOUNDS xy xz yz pp pp pp
                     -5.00000000000000e-01 5.00000000000000e-01 0.00000000000000e+00
-5.00000000000000e-01	5.00000000000000e-01	0.00000000000000e+00
-5.00000000000000e-01	5.00000000000000e-01	0.00000000000000e+00
ITEM: ATOMS id type x y z DisplacementX DisplacementY DisplacementZ
25 1 0.000e+00 -1.000e-01 0.000e+00 -1.977e-03 3.190e-03 4.091e-05
26 1 0.000e+00 0.000e+00 0.000e+00 9.923e-02 2.315e-04 -9.703e-04
27 1 0.000e+00 1.000e-01 0.000e+00 1.320e-03 -8.534e-04 -1.101e-03
28 1 -1.000e-01 0.000e+00 0.000e+00 -3.833e-04 4.625e-05 -3.984e-04
ITEM: TIMESTEP
0
ITEM: NUMBER OF ATOMS
4
ITEM: BOX BOUNDS xy xz yz pp pp pp
                     -5.00000000000000e-01 5.00000000000000e-01 0.00000000000000e+00
-5.00000000000000e-01	5.00000000000000e-01	0.00000000000000e+00
-5.00000000000000e-01	5.00000000000000e-01	0.00000000000000e+00
ITEM: ATOMS id type x y z DisplacementX DisplacementY DisplacementZ
29 1 -1.000e-01 0.000e+00 0.000e+00 -4.128e-04 1.009e-03 1.224e-03
30 1 0.000e+00 -1.000e-01 0.000e+00 2.253e-04 -2.248e-04 2.283e-05
31 1 0.000e+00 0.000e+00 0.000e+00 1.714e-03 1.002e-01 -1.751e-07
32 1 1.000e-01 0.000e+00 0.000e+00 2.010e-03 -1.385e-03 -5.960e-04
ITEM: TIMESTEP
0
ITEM: NUMBER OF ATOMS
4
ITEM: BOX BOUNDS xy xz yz pp pp pp
                     -5.00000000000000e-01 5.00000000000000e-01 0.00000000000000e+00
-5.00000000000000e-01	5.00000000000000e-01	0.00000000000000e+00
-5.00000000000000e-01	5.00000000000000e-01	0.00000000000000e+00
ITEM: ATOMS id type x y z DisplacementX DisplacementY DisplacementZ
33 1 0.000e+00 0.000e+00 0.000e+00 -9.984e-02 7.948e-04 -1.474e-03
34 1 0.000e+00 1.000e-01 0.000e+00 8.309e-04 8.091e-04 5.706e-04
35 1 0.000e+00 -1.000e-01 0.000e+00 -4.126e-04 -7.696e-04 6.628e-04
36 1 1.000e-01 0.000e+00 0.000e+00 -3.435e-04 -1.531e-03 -4.876e-04
ITEM: TIMESTEP
0
ITEM: NUMBER OF ATOMS
4
ITEM: BOX BOUNDS xy xz yz pp pp pp
                     -5.00000000000000e-01 5.00000000000000e-01 0.00000000000000e+00
-5.00000000000000e-01	5.00000000000000e-01	0.00000000000000e+00
-5.00000000000000e-01	5.00000000000000e-01	0.00000000000000e+00
ITEM: ATOMS id type x y z DisplacementX DisplacementY DisplacementZ
37 1 1.000e-01 0.000e+00 0.000e+00 -1.433e-04 9.454e-04 -8.242e-04
38 1 0.000e+00 0.000e+00 0.000e+00 -4.694e-04 9.940e-02 -2.042e-03
39 1 0.000e+00 -1.000e-01 0.000e+00 -3.675e-04 -3.169e-04 -1.529e-04
40 1 -1.000e-01 0.000e+00 0.000e+00 -1.049e-03 -3.325e-04 1.064e-03
ITEM: TIMESTEP
0
ITEM: NUMBER OF ATOMS
4
ITEM: BOX BOUNDS xy xz yz pp pp pp
                     -5.00000000000000e-01 5.00000000000000e-01 0.00000000000000e+00
-5.00000000000000e-01	5.00000000000000e-01	0.00000000000000e+00
-5.00000000000000e-01	5.00000000000000e-01	0.00000000000000e+00
ITEM: ATOMS id type x y z DisplacementX DisplacementY DisplacementZ
41 1 1.000e-01 0.000e+00 0.000e+00 4.206e-04 3.239e-04 2.532e-04
42 1 0.000e+00 0.000e+00 0.000e+00 -3.793e-04 -9.991e-02 -1.037e-03
43 1 -1.000e-01 0.000e+00 0.000e+00 -1.677e-03 -4.961e-04 -1.221e-03
44 1 0.000e+00 1.000e-01 0.000e+00 2.250e-05 -1.198e-03 7.771e-04
ITEM: TIMESTEP
0
ITEM: NUMBER OF ATOMS
4
ITEM: BOX BOUNDS xy xz yz pp pp pp
                     -5.00000000000000e-01 5.00000000000000e-01 0.00000000000000e+00
-5.00000000000000e-01	5.00000000000000e-01	0.00000000000000e+00
-5.00000000000000e-01	5.00000000000000e-01	0.00000000000000e+00
ITEM: ATOMS id type x y z DisplacementX DisplacementY DisplacementZ
45 1 -1.000e-01 0.000e+00 0.000e+00 -5.677e-05 5.548e-04 -1.076e-03
46 1 0.000e+00 1.000e-01 0.000e+00 1.102e-03 -9.714e-04 1.290e-03
47 1 0.000e+00 0.000e+00 0.000e+00 1.013e-01 -1.290e-03 -4.575e-04
48 1 0.000e+00 -1.000e-01 0.000e+00 2.316e-03 2.308e-04 1.093e-03
ITEM: TIMESTEP
0
ITEM: NUMBER OF ATOMS
4
ITEM: BOX BOUNDS xy xz yz pp pp pp
                     -5.00000000000000e-01 5.00000000000000e-01 0.00000000000000e+00
-5.00000000000000e-01	5.00000000000000e-01	0.00000000000000e+00
-5.00000000000000e-01	5.00000000000000e-01	0.00000000000000e+00
ITEM: ATOMS id type x y z DisplacementX DisplacementY DisplacementZ
49 1 0.000e+00 -1.000e-01 0.000e+00 -1.972e-04 2.920e-03 3.459e-05
50 1 0.000e+00 1.000e-01 0.000e+00 2.860e-04 3.076e-05 1.455e-03
51 1 0.000e+00 0.000e+00 0.000e+00 -1.005e-01 4.216e-04 -1.457e-03
52 1 1.000e-01 0.000e+00 0.000e+00 -9.287e-04 -1.473e-03 -7.239e-04
ITEM: TIMESTEP
0
ITEM: NUMBER OF ATOMS
4
ITEM: BOX BOUNDS xy xz yz pp pp pp
                     -5.00000000000000e-01 5.00000000000000e-01 0.00000000000000e+00
-5.00000000000000e-01	5.00000000000000e-01	0.00000000000000e+00
-5.00000000000000e-01	5.00000000000000e-01	0.00000000000000e+00
ITEM: ATOMS id type x y z DisplacementX DisplacementY DisplacementZ
53 1 1.000e-01 0.000e+00 0.000e+00 8.027e-04 -1.298e-03 -5.147e-04
54 1 -1.000e-01 0.000e+00 0.000e+00 5.223e-04 3.369e-04 -3.454e-04
55 1 0.000e+00 -1.000e-01 0.000e+00 5.218e-04 -8.998e-04 6.028e-04
56 1 0.000e+00 0.000e+00 0.000e+00 1.625e-04 9.989e-02 6.443e-04
ITEM: TIMESTEP
0
ITEM: NUMBER OF ATOMS
4
ITEM: BOX BOUNDS xy xz yz pp pp pp
                     -5.00000000000000e-01 5.00000000000000e-01 0.00000000000000e+00
-5.00000000000000e-01	5.00000000000000e-01	0.00000000000000e+00
-5.00000000000000e-01	5.00000000000000e-01	0.00000000000000e+00
ITEM: ATOMS id type x y z DisplacementX DisplacementY DisplacementZ
57 1 1.000e-01 0.000e+00 0.000e+00 -9.097e-04 -1.837e-04 4.782e-04
58 1 -1.000e-01 0.000e+00 0.000e+00 1.663e-03 -1.142e-03 2.852e-04
59 1 0.000e+00 0.000e+00 0.000e+00 -8.141e-04 -9.966e-02 2.480e-04
60 1 0.000e+00 1.000e-01 0.000e+00 -4.097e-04 5.187e-04 -6.902e-04
ITEM: TIMESTEP
0
ITEM: NUMBER OF ATOMS
4
ITEM: BOX BOUNDS xy xz yz pp pp pp
                     -5.00000000000000e-01 5.00000000000000e-01 0.00000000000000e+00
-5.00000000000000e-01	5.00000000000000e-01	0.00000000000000e+00
-5.00000000000000e-01	5.00000000000000e-01	0.00000000000000e+00
ITEM: ATOMS id type x y z DisplacementX DisplacementY DisplacementZ
61 1 0.000e+00 -1.000e-01 0.000e+00 -2.016e-03 -1.529e-03 2.268e-03
62 1 0.000e+00 1.000e-01 0.000e+00 4.649e-04 3.625e-04 6.971e-04
63 1 0.000e+00 0.000e+00 0.000e+00 9.966e-02 5.098e-04 -8.024e-04
64 1 -1.000e-01 0.000e+00 0.000e+00 2.450e-03 6.031e-04 3.986e-04
ITEM: TIMESTEP
0
ITEM: NUMBER OF ATOMS
4
ITEM: BOX BOUNDS xy xz yz pp pp pp
                     -5.00000000000000e-01 5.00000000000000e-01 0.00000000000000e+00
-5.00000000000000e-01	5.00000000000000e-01	0.00000000000000e+00
-5.00000000000000e-01	5.00000000000000e-01	0.00000000000000e+00
ITEM: ATOMS id type x y z DisplacementX DisplacementY DisplacementZ
65 1 0.000e+00 0.000e+00 0.000e+00 -1.512e-03 1.007e-01 8.012e-04
66 1 -1.000e-01 0.000e+00 0.000e+00 -1.711e-03 1.937e-05 3.865e-04
67 1 0.000e+00 -1.000e-01 0.000e+00 -8.062e-04 -1.414e-03 1.563e-03
68 1 1.000e-01 0.000e+00 0.000e+00 1.015e-03 -2.359e-04 7.872e-04
ITEM: TIMESTEP
0
ITEM: NUMBER OF ATOMS
4
ITEM: BOX BOUNDS xy xz yz pp pp pp
                     -5.00000000000000e-01 5.00000000000000e-01 0.00000000000000e+00
-5.00000000000000e-01	5.00000000000000e-01	0.00000000000000e+00
-5.00000000000000e-01	5.00000000000000e-01	0.00000000000000e+00
ITEM: ATOMS id type x y z DisplacementX DisplacementY DisplacementZ
69 1 0.000e+00 1.000e-01 0.000e+00 1.279e-03 -9.110e-04 -3.385e-04
70 1 1.000e-01 0.000e+00 0.000e+00 1.462e-03 -7.904e-04 4.518e-05
71 1 0.000e+00 0.000e+00 0.000e+00 -1.004e-01 1.445e-03 -4.421e-04
72 1 0.000e+00 -1.000e-01 0.000e+00 5.054e-04 9.415e-04 2.579e-03
ITEM: TIMESTEP
0
ITEM: NUMBER OF ATOMS
4
ITEM: BOX BOUNDS xy xz yz pp pp pp
                     -5.00000000000000e-01 5.00000000000000e-01 0.00000000000000e+00
-5.00000000000000e-01	5.00000000000000e-01	0.00000000000000e+00
-5.00000000000000e-01	5.00000000000000e-01	0.00000000000000e+00
ITEM: ATOMS id type x y z DisplacementX DisplacementY DisplacementZ
73 1 0.000e+00 1.000e-01 0.000e+00 6.142e-04 -1.329e-03 -9.673e-04
74 1 -1.000e-01 0.000e+00 0.000e+00 -6.766e-04 -1.923e-03 5.050e-04
75 1 0.000e+00 -1.000e-01 0.000e+00 -2.570e-04 1.213e-03 -7.016e-04
76 1 0.000e+00 0.000e+00 0.000e+00 1.001e-01 9.861e-04 -4.562e-04
ITEM: TIMESTEP
0
ITEM: NUMBER OF ATOMS
4
ITEM: BOX BOUNDS xy xz yz pp pp pp
                     -5.00000000000000e-01 5.00000000000000e-01 0.00000000000000e+00
-5.00000000000000e-01	5.00000000000000e-01	0.00000000000000e+00
-5.00000000000000e-01	5.00000000000000e-01	0.00000000000000e+00
ITEM: ATOMS id type x y z DisplacementX DisplacementY DisplacementZ
77 1 -1.000e-01 0.000e+00 0.000e+00 1.956e-03 1.003e-03 1.636e-03
78 1 1.000e-01 0.000e+00 0.000e+00 6.046e-04 5.817e-04 -9.239e-04
79 1 0.000e+00 1.000e-01 0.000e+00 -3.751e-04 -5.805e-04 1.239e-05
80 1 0.000e+00 0.000e+00 0.000e+00 7.008e-04 -1.006e-01 9.958e-04
