ITEM: TIMESTEP
0
ITEM: NUMBER OF ATOMS
24
ITEM: BOX BOUNDS xy xz yz pp pp pp
                     -5.00000000000000e-01 5.00000000000000e-01 0.00000000000000e+00
-5.00000000000000e-01	5.00000000000000e-01	0.00000000000000e+00
-5.00000000000000e-01	5.00000000000000e-01	0.00000000000000e+00
ITEM: ATOMS id type x y DisplacementX DisplacementY
1 1 0.000e+00 0.000e+00 -1.748e-05 9.000e-06
2 1 2.000e-01 0.000e+00 -1.618e-05 -1.677e-05
3 1 4.000e-01 0.000e+00 1.274e-05 4.277e-06
4 1 6.000e-01 0.000e+00 -3.939e-05 7.495e-06
5 1 8.000e-01 0.000e+00 -4.988e-02 2.885e-05
6 1 0.000e+00 2.000e-01 -4.988e-02 2.885e-05
7 1 2.000e-01 2.000e-01 -4.988e-02 2.885e-05
8 1 4.000e-01 2.000e-01 -4.988e-02 2.885e-05
9 1 6.000e-01 2.000e-01 -4.988e-02 2.885e-05
10 1 8.000e-01 2.000e-01 -4.988e-02 2.885e-05
11 1 0.000e+00 4.000e-01 -4.988e-02 2.885e-05
12 1 2.000e-01 4.000e-01 -4.988e-02 2.885e-05
13 1 4.000e-01 4.000e-01 -4.988e-02 2.885e-05
14 1 8.000e-01 4.000e-01 -4.988e-02 2.885e-05
15 1 0.000e+00 6.000e-01 -4.988e-02 2.885e-05
16 1 2.000e-01 6.000e-01 -4.988e-02 2.885e-05
17 1 4.000e-01 6.000e-01 -4.988e-02 2.885e-05
18 1 6.000e-01 6.000e-01 -4.988e-02 2.885e-05
19 1 8.000e-01 6.000e-01 -4.988e-02 2.885e-05
20 1 0.000e+00 8.000e-01 -4.988e-02 2.885e-05
21 1 2.000e-01 8.000e-01 -4.988e-02 2.885e-05
22 1 4.000e-01 8.000e-01 -4.988e-02 2.885e-05
23 1 6.000e-01 8.000e-01 -4.988e-02 2.885e-05
24 1 8.000e-01 8.000e-01 -4.988e-02 2.885e-05
ITEM: TIMESTEP
0
ITEM: NUMBER OF ATOMS
24
ITEM: BOX BOUNDS xy xz yz pp pp pp
                     -5.00000000000000e-01 5.00000000000000e-01 0.00000000000000e+00
-5.00000000000000e-01	5.00000000000000e-01	0.00000000000000e+00
-5.00000000000000e-01	5.00000000000000e-01	0.00000000000000e+00
ITEM: ATOMS id type x y DisplacementX DisplacementY
1 1 0.000e+00 0.000e+00 4.932e-06 -2.204e-05
2 1 2.000e-01 0.000e+00 1.030e-05 -3.053e-05
3 1 4.000e-01 0.000e+00 -4.888e-06 1.996e-05
4 1 6.000e-01 0.000e+00 5.327e-06 -1.015e-04
5 1 8.000e-01 0.000e+00 -2.880e-05 -4.970e-02
6 1 0.000e+00 2.000e-01 -2.880e-05 -4.970e-02
7 1 2.000e-01 2.000e-01 -2.880e-05 -4.970e-02
8 1 4.000e-01 2.000e-01 -2.880e-05 -4.970e-02
9 1 6.000e-01 2.000e-01 -2.880e-05 -4.970e-02
10 1 8.000e-01 2.000e-01 -2.880e-05 -4.970e-02
11 1 0.000e+00 4.000e-01 -2.880e-05 -4.970e-02
12 1 2.000e-01 4.000e-01 -2.880e-05 -4.970e-02
13 1 4.000e-01 4.000e-01 -2.880e-05 -4.970e-02
14 1 8.000e-01 4.000e-01 -2.880e-05 -4.970e-02
15 1 0.000e+00 6.000e-01 -2.880e-05 -4.970e-02
16 1 2.000e-01 6.000e-01 -2.880e-05 -4.970e-02
17 1 4.000e-01 6.000e-01 -2.880e-05 -4.970e-02
18 1 6.000e-01 6.000e-01 -2.880e-05 -4.970e-02
19 1 8.000e-01 6.000e-01 -2.880e-05 -4.970e-02
20 1 0.000e+00 8.000e-01 -2.880e-05 -4.970e-02
21 1 2.000e-01 8.000e-01 -2.880e-05 -4.970e-02
22 1 4.000e-01 8.000e-01 -2.880e-05 -4.970e-02
23 1 6.000e-01 8.000e-01 -2.880e-05 -4.970e-02
24 1 8.000e-01 8.000e-01 -2.880e-05 -4.970e-02
ITEM: TIMESTEP
0
ITEM: NUMBER OF ATOMS
24
ITEM: BOX BOUNDS xy xz yz pp pp pp
                     -5.00000000000000e-01 5.00000000000000e-01 0.00000000000000e+00
-5.00000000000000e-01	5.00000000000000e-01	0.00000000000000e+00
-5.00000000000000e-01	5.00000000000000e-01	0.00000000000000e+00
ITEM: ATOMS id type x y DisplacementX DisplacementY
1 1 0.000e+00 0.000e+00 -6.832e-06 -1.940e-05
2 1 2.000e-01 0.000e+00 -2.541e-06 -4.794e-06
3 1 4.000e-01 0.000e+00 -2.556e-06 1.157e-05
4 1 6.000e-01 0.000e+00 2.346e-05 -6.589e-05
5 1 8.000e-01 0.000e+00 5.000e-02 1.167e-04
6 1 0.000e+00 2.000e-01 5.000e-02 1.167e-04
7 1 2.000e-01 2.000e-01 5.000e-02 1.167e-04
8 1 4.000e-01 2.000e-01 5.000e-02 1.167e-04
9 1 6.000e-01 2.000e-01 5.000e-02 1.167e-04
10 1 8.000e-01 2.000e-01 5.000e-02 1.167e-04
11 1 0.000e+00 4.000e-01 5.000e-02 1.167e-04
12 1 2.000e-01 4.000e-01 5.000e-02 1.167e-04
13 1 4.000e-01 4.000e-01 5.000e-02 1.167e-04
14 1 8.000e-01 4.000e-01 5.000e-02 1.167e-04
15 1 0.000e+00 6.000e-01 5.000e-02 1.167e-04
16 1 2.000e-01 6.000e-01 5.000e-02 1.167e-04
17 1 4.000e-01 6.000e-01 5.000e-02 1.167e-04
18 1 6.000e-01 6.000e-01 5.000e-02 1.167e-04
19 1 8.000e-01 6.000e-01 5.000e-02 1.167e-04
20 1 0.000e+00 8.000e-01 5.000e-02 1.167e-04
21 1 2.000e-01 8.000e-01 5.000e-02 1.167e-04
22 1 4.000e-01 8.000e-01 5.000e-02 1.167e-04
23 1 6.000e-01 8.000e-01 5.000e-02 1.167e-04
24 1 8.000e-01 8.000e-01 5.000e-02 1.167e-04
ITEM: TIMESTEP
0
ITEM: NUMBER OF ATOMS
24
ITEM: BOX BOUNDS xy xz yz pp pp pp
                     -5.00000000000000e-01 5.00000000000000e-01 0.00000000000000e+00
-5.00000000000000e-01	5.00000000000000e-01	0.00000000000000e+00
-5.00000000000000e-01	5.00000000000000e-01	0.00000000000000e+00
ITEM: ATOMS id type x y DisplacementX DisplacementY
1 1 0.000e+00 0.000e+00 -4.709e-06 4.657e-06
2 1 2.000e-01 0.000e+00 -2.319e-05 4.239e-06
3 1 4.000e-01 0.000e+00 4.023e-07 -2.347e-06
4 1 6.000e-01 0.000e+00 -6.640e-05 2.980e-05
5 1 8.000e-01 0.000e+00 2.600e-04 4.994e-02
6 1 0.000e+00 2.000e-01 2.600e-04 4.994e-02
7 1 2.000e-01 2.000e-01 2.600e-04 4.994e-02
8 1 4.000e-01 2.000e-01 2.600e-04 4.994e-02
9 1 6.000e-01 2.000e-01 2.600e-04 4.994e-02
10 1 8.000e-01 2.000e-01 2.600e-04 4.994e-02
11 1 0.000e+00 4.000e-01 2.600e-04 4.994e-02
12 1 2.000e-01 4.000e-01 2.600e-04 4.994e-02
13 1 4.000e-01 4.000e-01 2.600e-04 4.994e-02
14 1 8.000e-01 4.000e-01 2.600e-04 4.994e-02
15 1 0.000e+00 6.000e-01 2.600e-04 4.994e-02
16 1 2.000e-01 6.000e-01 2.600e-04 4.994e-02
17 1 4.000e-01 6.000e-01 2.600e-04 4.994e-02
18 1 6.000e-01 6.000e-01 2.600e-04 4.994e-02
19 1 8.000e-01 6.000e-01 2.600e-04 4.994e-02
20 1 0.000e+00 8.000e-01 2.600e-04 4.994e-02
21 1 2.000e-01 8.000e-01 2.600e-04 4.994e-02
22 1 4.000e-01 8.000e-01 2.600e-04 4.994e-02
23 1 6.000e-01 8.000e-01 2.600e-04 4.994e-02
24 1 8.000e-01 8.000e-01 2.600e-04 4.994e-02
