ITEM: TIMESTEP
0
ITEM: NUMBER OF ATOMS
12
ITEM: BOX BOUNDS xy xz yz pp pp pp
                     -5.00000000000000e-01 5.00000000000000e-01 0.00000000000000e+00
-5.00000000000000e-01	5.00000000000000e-01	0.00000000000000e+00
-5.00000000000000e-01	5.00000000000000e-01	0.00000000000000e+00
ITEM: ATOMS id type x y z DisplacementX DisplacementY DisplacementZ
1 1 0.000e+00 -4.000e-01 0.000e+00 -1.378e-03 1.168e-03 -9.141e-04
2 1 0.000e+00 0.000e+00 0.000e+00 1.999e-01 -4.712e-04 -5.055e-04
3 1 0.000e+00 -2.000e-01 0.000e+00 1.224e-03 6.023e-04 -1.212e-03
4 1 -2.000e-01 0.000e+00 0.000e+00 -2.503e-06 -9.402e-04 -9.661e-04
5 1 -4.000e-01 0.000e+00 0.000e+00 -2.988e-04 -2.032e-03 5.074e-04
6 1 0.000e+00 4.000e-01 0.000e+00 -4.858e-05 -2.548e-03 -1.289e-03
7 1 0.000e+00 2.000e-01 0.000e+00 -4.971e-04 1.384e-03 5.114e-04
8 1 -2.000e-01 -2.000e-01 0.000e+00 -3.056e-04 -4.597e-04 -3.785e-04
9 1 2.000e-01 -2.000e-01 0.000e+00 5.375e-05 -3.778e-04 1.009e-03
10 1 2.000e-01 2.000e-01 0.000e+00 6.931e-04 4.392e-04 -1.269e-04
11 1 -2.000e-01 2.000e-01 0.000e+00 6.611e-04 8.010e-04 2.995e-05
12 1 4.000e-01 0.000e+00 0.000e+00 7.192e-04 4.860e-04 -6.896e-04
ITEM: TIMESTEP
0
ITEM: NUMBER OF ATOMS
12
ITEM: BOX BOUNDS xy xz yz pp pp pp
                     -5.00000000000000e-01 5.00000000000000e-01 0.00000000000000e+00
-5.00000000000000e-01	5.00000000000000e-01	0.00000000000000e+00
-5.00000000000000e-01	5.00000000000000e-01	0.00000000000000e+00
ITEM: ATOMS id type x y z DisplacementX DisplacementY DisplacementZ
13 1 0.000e+00 -2.000e-01 0.000e+00 7.794e-04 -3.953e-04 -9.500e-04
14 1 -2.000e-01 -2.000e-01 0.000e+00 2.980e-04 -1.064e-03 9.371e-04
15 1 -2.000e-01 2.000e-01 0.000e+00 1.254e-03 1.463e-04 -1.241e-03
16 1 2.000e-01 -2.000e-01 0.000e+00 1.279e-03 -9.508e-04 -8.717e-04
17 1 -2.000e-01 0.000e+00 0.000e+00 5.324e-05 9.458e-04 2.344e-03
18 1 4.000e-01 0.000e+00 0.000e+00 -5.922e-05 -2.037e-04 -1.963e-03
19 1 -4.000e-01 0.000e+00 0.000e+00 -1.120e-04 -3.177e-04 1.867e-03
20 1 0.000e+00 0.000e+00 0.000e+00 1.717e-03 2.010e-01 -8.847e-04
21 1 0.000e+00 4.000e-01 0.000e+00 -6.277e-04 -5.211e-05 -1.384e-03
22 1 0.000e+00 -4.000e-01 0.000e+00 1.067e-03 -1.195e-03 -9.879e-04
23 1 2.000e-01 2.000e-01 0.000e+00 1.565e-04 -1.602e-03 -1.195e-03
24 1 2.000e-01 0.000e+00 0.000e+00 3.225e-04 -7.145e-04 -1.959e-03
ITEM: TIMESTEP
0
ITEM: NUMBER OF ATOMS
12
ITEM: BOX BOUNDS xy xz yz pp pp pp
                     -5.00000000000000e-01 5.00000000000000e-01 0.00000000000000e+00
-5.00000000000000e-01	5.00000000000000e-01	0.00000000000000e+00
-5.00000000000000e-01	5.00000000000000e-01	0.00000000000000e+00
ITEM: ATOMS id type x y z DisplacementX DisplacementY DisplacementZ
25 1 0.000e+00 4.000e-01 0.000e+00 -9.125e-04 -2.995e-03 1.384e-03
26 1 -2.000e-01 -2.000e-01 0.000e+00 7.402e-04 3.810e-04 3.551e-04
27 1 4.000e-01 0.000e+00 0.000e+00 -2.856e-03 -1.677e-03 -1.752e-03
28 1 2.000e-01 2.000e-01 0.000e+00 -1.542e-04 -8.083e-04 -1.946e-03
29 1 -2.000e-01 2.000e-01 0.000e+00 1.229e-03 -3.390e-04 1.392e-03
30 1 -2.000e-01 0.000e+00 0.000e+00 -8.230e-04 -7.167e-04 -2.175e-03
31 1 0.000e+00 -4.000e-01 0.000e+00 1.019e-03 -1.571e-04 -3.495e-04
32 1 0.000e+00 0.000e+00 0.000e+00 -1.150e-03 -1.984e-01 -1.957e-03
33 1 2.000e-01 0.000e+00 0.000e+00 9.902e-05 1.921e-03 1.181e-04
34 1 0.000e+00 2.000e-01 0.000e+00 5.173e-04 2.034e-03 8.352e-04
35 1 -4.000e-01 0.000e+00 0.000e+00 5.660e-04 5.238e-04 4.384e-04
36 1 2.000e-01 -2.000e-01 0.000e+00 -3.786e-04 -6.171e-04 -2.521e-05
ITEM: TIMESTEP
0
ITEM: NUMBER OF ATOMS
12
ITEM: BOX BOUNDS xy xz yz pp pp pp
                     -5.00000000000000e-01 5.00000000000000e-01 0.00000000000000e+00
-5.00000000000000e-01	5.00000000000000e-01	0.00000000000000e+00
-5.00000000000000e-01	5.00000000000000e-01	0.00000000000000e+00
ITEM: ATOMS id type x y z DisplacementX DisplacementY DisplacementZ
37 1 -4.000e-01 0.000e+00 0.000e+00 7.278e-04 -5.839e-04 4.370e-04
38 1 2.000e-01 2.000e-01 0.000e+00 3.278e-04 3.874e-04 -1.750e-04
39 1 0.000e+00 4.000e-01 0.000e+00 2.343e-03 3.521e-04 -5.254e-04
40 1 0.000e+00 -4.000e-01 0.000e+00 9.361e-04 1.353e-03 -8.964e-04
41 1 4.000e-01 0.000e+00 0.000e+00 1.408e-03 -5.053e-04 -4.317e-04
42 1 2.000e-01 0.000e+00 0.000e+00 -5.607e-04 -5.825e-04 -5.429e-04
43 1 2.000e-01 -2.000e-01 0.000e+00 -2.154e-03 6.223e-04 -5.811e-07
44 1 -2.000e-01 -2.000e-01 0.000e+00 -5.395e-04 -1.080e-03 4.584e-04
45 1 -2.000e-01 2.000e-01 0.000e+00 6.746e-04 -6.460e-04 -8.644e-04
46 1 0.000e+00 2.000e-01 0.000e+00 -2.259e-03 8.154e-04 -1.544e-03
47 1 0.000e+00 0.000e+00 0.000e+00 -2.009e-01 4.711e-04 -1.179e-03
48 1 0.000e+00 -2.000e-01 0.000e+00 5.201e-05 9.019e-04 -5.531e-04
ITEM: TIMESTEP
0
ITEM: NUMBER OF ATOMS
12
ITEM: BOX BOUNDS xy xz yz pp pp pp
                     -5.00000000000000e-01 5.00000000000000e-01 0.00000000000000e+00
-5.00000000000000e-01	5.00000000000000e-01	0.00000000000000e+00
-5.00000000000000e-01	5.00000000000000e-01	0.00000000000000e+00
ITEM: ATOMS id type x y z DisplacementX DisplacementY DisplacementZ
49 1 -2.000e-01 2.000e-01 0.000e+00 1.247e-03 2.994e-03 1.908e-03
50 1 0.000e+00 -2.000e-01 0.000e+00 -3.202e-05 2.257e-04 1.141e-03
51 1 0.000e+00 -4.000e-01 0.000e+00 -4.227e-04 4.950e-04 1.719e-03
52 1 0.000e+00 0.000e+00 0.000e+00 1.999e-01 1.694e-03 -4.567e-04
53 1 -2.000e-01 -2.000e-01 0.000e+00 7.181e-05 -9.360e-04 -7.109e-04
54 1 -2.000e-01 0.000e+00 0.000e+00 3.699e-04 3.830e-04 -4.716e-04
55 1 -4.000e-01 0.000e+00 0.000e+00 6.862e-04 4.370e-05 -1.124e-04
56 1 4.000e-01 0.000e+00 0.000e+00 3.120e-04 1.481e-03 2.026e-03
57 1 0.000e+00 2.000e-01 0.000e+00 -2.660e-03 9.040e-04 2.448e-04
58 1 0.000e+00 4.000e-01 0.000e+00 -8.819e-04 -1.021e-03 9.796e-05
59 1 2.000e-01 -2.000e-01 0.000e+00 6.936e-04 8.381e-04 -1.503e-03
60 1 2.000e-01 2.000e-01 0.000e+00 4.535e-04 -2.381e-04 1.592e-03
ITEM: TIMESTEP
0
ITEM: NUMBER OF ATOMS
12
ITEM: BOX BOUNDS xy xz yz pp pp pp
                     -5.00000000000000e-01 5.00000000000000e-01 0.00000000000000e+00
-5.00000000000000e-01	5.00000000000000e-01	0.00000000000000e+00
-5.00000000000000e-01	5.00000000000000e-01	0.00000000000000e+00
ITEM: ATOMS id type x y z DisplacementX DisplacementY DisplacementZ
61 1 0.000e+00 -4.000e-01 0.000e+00 -2.914e-04 2.812e-04 -1.491e-03
62 1 2.000e-01 -2.000e-01 0.000e+00 -9.488e-04 5.203e-04 1.052e-03
63 1 0.000e+00 -2.000e-01 0.000e+00 1.429e-04 -8.227e-04 -7.905e-04
64 1 0.000e+00 2.000e-01 0.000e+00 1.637e-04 -1.102e-03 -6.789e-04
65 1 0.000e+00 4.000e-01 0.000e+00 -8.991e-04 -3.286e-04 -4.475e-04
66 1 -4.000e-01 0.000e+00 0.000e+00 -4.789e-05 9.558e-04 -5.351e-05
67 1 4.000e-01 0.000e+00 0.000e+00 6.161e-04 1.014e-03 -1.281e-04
68 1 2.000e-01 0.000e+00 0.000e+00 1.214e-03 -2.197e-04 5.138e-05
69 1 2.000e-01 2.000e-01 0.000e+00 -1.010e-03 -5.978e-04 1.480e-04
70 1 0.000e+00 0.000e+00 0.000e+00 -1.986e-01 6.729e-04 6.712e-04
71 1 -2.000e-01 -2.000e-01 0.000e+00 -1.712e-03 -1.365e-03 -9.641e-04
72 1 -2.000e-01 2.000e-01 0.000e+00 4.189e-05 6.933e-04 1.308e-03
ITEM: TIMESTEP
0
ITEM: NUMBER OF ATOMS
12
ITEM: BOX BOUNDS xy xz yz pp pp pp
                     -5.00000000000000e-01 5.00000000000000e-01 0.00000000000000e+00
-5.00000000000000e-01	5.00000000000000e-01	0.00000000000000e+00
-5.00000000000000e-01	5.00000000000000e-01	0.00000000000000e+00
ITEM: ATOMS id type x y z DisplacementX DisplacementY DisplacementZ
73 1 2.000e-01 -2.000e-01 0.000e+00 3.801e-04 1.104e-03 -1.373e-03
74 1 -2.000e-01 0.000e+00 0.000e+00 2.370e-03 2.323e-03 1.876e-05
75 1 -2.000e-01 -2.000e-01 0.000e+00 1.176e-03 1.106e-03 9.643e-04
76 1 0.000e+00 -2.000e-01 0.000e+00 -6.987e-04 5.529e-04 2.986e-04
77 1 4.000e-01 0.000e+00 0.000e+00 -1.581e-03 1.409e-03 9.757e-04
78 1 2.000e-01 0.000e+00 0.000e+00 -2.514e-04 8.127e-04 3.392e-04
79 1 -2.000e-01 2.000e-01 0.000e+00 -2.459e-04 4.972e-04 -9.331e-05
80 1 -4.000e-01 0.000e+00 0.000e+00 2.523e-04 7.480e-04 1.978e-04
81 1 0.000e+00 -4.000e-01 0.000e+00 2.970e-04 2.583e-05 -5.123e-04
82 1 2.000e-01 2.000e-01 0.000e+00 1.514e-03 -5.525e-04 -1.422e-03
83 1 0.000e+00 0.000e+00 0.000e+00 2.700e-04 2.007e-01 5.864e-04
84 1 0.000e+00 4.000e-01 0.000e+00 -1.251e-03 -1.259e-03 -4.341e-04
ITEM: TIMESTEP
0
ITEM: NUMBER OF ATOMS
12
ITEM: BOX BOUNDS xy xz yz pp pp pp
                     -5.00000000000000e-01 5.00000000000000e-01 0.00000000000000e+00
-5.00000000000000e-01	5.00000000000000e-01	0.00000000000000e+00
-5.00000000000000e-01	5.00000000000000e-01	0.00000000000000e+00
ITEM: ATOMS id type x y z DisplacementX DisplacementY DisplacementZ
85 1 -4.000e-01 0.000e+00 0.000e+00 2.184e-03 -1.386e-03 2.927e-04
86 1 0.000e+00 4.000e-01 0.000e+00 1.070e-03 -3.860e-04 2.908e-04
87 1 2.000e-01 0.000e+00 0.000e+00 -1.009e-03 5.016e-04 -1.284e-03
88 1 2.000e-01 2.000e-01 0.000e+00 -7.482e-04 -1.120e-03 -1.892e-03
89 1 -2.000e-01 -2.000e-01 0.000e+00 -7.917e-05 -4.650e-04 1.128e-03
90 1 0.000e+00 2.000e-01 0.000e+00 5.385e-05 1.577e-03 8.091e-04
91 1 4.000e-01 0.000e+00 0.000e+00 -2.891e-05 -1.224e-03 8.900e-05
92 1 2.000e-01 -2.000e-01 0.000e+00 1.200e-03 -6.318e-04 -1.856e-03
93 1 -2.000e-01 0.000e+00 0.000e+00 2.247e-04 1.205e-03 1.185e-03
94 1 -2.000e-01 2.000e-01 0.000e+00 4.306e-04 -4.055e-04 -4.524e-05
95 1 0.000e+00 -4.000e-01 0.000e+00 1.645e-04 -9.210e-04 1.381e-03
96 1 0.000e+00 0.000e+00 0.000e+00 -1.115e-03 -1.974e-01 -1.993e-03
ITEM: TIMESTEP
0
ITEM: NUMBER OF ATOMS
12
ITEM: BOX BOUNDS xy xz yz pp pp pp
                     -5.00000000000000e-01 5.00000000000000e-01 0.00000000000000e+00
-5.00000000000000e-01	5.00000000000000e-01	0.00000000000000e+00
-5.00000000000000e-01	5.00000000000000e-01	0.00000000000000e+00
ITEM: ATOMS id type x y z DisplacementX DisplacementY DisplacementZ
97 1 0.000e+00 -4.000e-01 0.000e+00 -5.843e-05 -1.058e-03 -5.831e-04
98 1 2.000e-01 2.000e-01 0.000e+00 -1.189e-03 2.441e-05 -1.813e-03
99 1 0.000e+00 4.000e-01 0.000e+00 -7.483e-04 -3.010e-03 1.394e-03
100 1 0.000e+00 0.000e+00 0.000e+00 -1.985e-01 2.485e-03 5.635e-04
101 1 -2.000e-01 -2.000e-01 0.000e+00 -1.737e-03 4.712e-04 1.481e-03
102 1 -2.000e-01 2.000e-01 0.000e+00 1.583e-03 4.450e-04 -4.132e-04
103 1 0.000e+00 2.000e-01 0.000e+00 -5.624e-04 5.148e-04 6.122e-04
104 1 2.000e-01 -2.000e-01 0.000e+00 -4.311e-04 2.237e-04 9.619e-04
105 1 2.000e-01 0.000e+00 0.000e+00 1.786e-03 -1.619e-03 -7.596e-04
106 1 4.000e-01 0.000e+00 0.000e+00 2.760e-03 4.783e-04 -1.734e-03
107 1 0.000e+00 -2.000e-01 0.000e+00 -4.846e-04 -2.093e-04 1.211e-03
108 1 -4.000e-01 0.000e+00 0.000e+00 6.020e-04 3.672e-04 1.137e-03
ITEM: TIMESTEP
0
ITEM: NUMBER OF ATOMS
12
ITEM: BOX BOUNDS xy xz yz pp pp pp
                     -5.00000000000000e-01 5.00000000000000e-01 0.00000000000000e+00
-5.00000000000000e-01	5.00000000000000e-01	0.00000000000000e+00
-5.00000000000000e-01	5.00000000000000e-01	0.00000000000000e+00
ITEM: ATOMS id type x y z DisplacementX DisplacementY DisplacementZ
109 1 0.000e+00 -2.000e-01 0.000e+00 1.136e-03 -1.534e-03 2.464e-04
110 1 -2.000e-01 -2.000e-01 0.000e+00 -8.428e-05 7.191e-04 -1.221e-03
111 1 2.000e-01 -2.000e-01 0.000e+00 -2.183e-05 1.219e-05 1.516e-03
112 1 2.000e-01 2.000e-01 0.000e+00 4.867e-04 -7.874e-04 -6.834e-05
113 1 0.000e+00 0.000e+00 0.000e+00 -7.174e-04 1.998e-01 8.672e-04
114 1 -2.000e-01 0.000e+00 0.000e+00 7.061e-04 -8.402e-04 -3.730e-04
115 1 0.000e+00 4.000e-01 0.000e+00 -1.600e-03 -3.553e-04 1.931e-03
116 1 4.000e-01 0.000e+00 0.000e+00 -2.180e-03 6.893e-05 5.720e-04
117 1 2.000e-01 0.000e+00 0.000e+00 -3.000e-04 -9.749e-04 1.032e-03
118 1 0.000e+00 -4.000e-01 0.000e+00 -4.325e-04 1.837e-04 4.008e-04
119 1 -4.000e-01 0.000e+00 0.000e+00 1.838e-03 -1.585e-05 7.476e-04
120 1 -2.000e-01 2.000e-01 0.000e+00 -2.133e-03 -8.691e-04 9.448e-04
ITEM: TIMESTEP
0
ITEM: NUMBER OF ATOMS
12
ITEM: BOX BOUNDS xy xz yz pp pp pp
                     -5.00000000000000e-01 5.00000000000000e-01 0.00000000000000e+00
-5.00000000000000e-01	5.00000000000000e-01	0.00000000000000e+00
-5.00000000000000e-01	5.00000000000000e-01	0.00000000000000e+00
ITEM: ATOMS id type x y z DisplacementX DisplacementY DisplacementZ
121 1 0.000e+00 4.000e-01 0.000e+00 -2.104e-04 -7.388e-04 -3.445e-04
122 1 -2.000e-01 0.000e+00 0.000e+00 1.606e-03 -1.404e-03 9.039e-04
123 1 4.000e-01 0.000e+00 0.000e+00 -5.465e-04 -4.420e-04 -7.553e-04
124 1 2.000e-01 2.000e-01 0.000e+00 2.104e-03 8.531e-04 1.563e-03
125 1 2.000e-01 -2.000e-01 0.000e+00 -9.139e-04 -1.787e-04 1.695e-04
126 1 0.000e+00 -4.000e-01 0.000e+00 1.349e-03 -6.368e-04 3.659e-04
127 1 0.000e+00 0.000e+00 0.000e+00 -1.889e-04 -1.996e-01 -6.062e-04
128 1 2.000e-01 0.000e+00 0.000e+00 -3.190e-05 5.073e-04 -8.736e-04
129 1 -4.000e-01 0.000e+00 0.000e+00 7.966e-04 -1.695e-04 6.645e-04
130 1 -2.000e-01 2.000e-01 0.000e+00 1.300e-03 2.503e-04 -1.144e-04
131 1 0.000e+00 2.000e-01 0.000e+00 -1.065e-03 1.195e-03 -7.453e-04
132 1 -2.000e-01 -2.000e-01 0.000e+00 6.693e-04 5.352e-04 9.705e-05
ITEM: TIMESTEP
0
ITEM: NUMBER OF ATOMS
12
ITEM: BOX BOUNDS xy xz yz pp pp pp
                     -5.00000000000000e-01 5.00000000000000e-01 0.00000000000000e+00
-5.00000000000000e-01	5.00000000000000e-01	0.00000000000000e+00
-5.00000000000000e-01	5.00000000000000e-01	0.00000000000000e+00
ITEM: ATOMS id type x y z DisplacementX DisplacementY DisplacementZ
133 1 0.000e+00 -4.000e-01 0.000e+00 -4.462e-04 -6.294e-05 -1.500e-03
134 1 0.000e+00 2.000e-01 0.000e+00 5.787e-04 3.949e-04 5.174e-04
135 1 4.000e-01 0.000e+00 0.000e+00 6.547e-04 -1.423e-03 -1.212e-03
136 1 2.000e-01 -2.000e-01 0.000e+00 4.071e-04 1.105e-03 -1.089e-03
137 1 0.000e+00 -2.000e-01 0.000e+00 4.556e-04 -1.132e-05 -1.336e-04
138 1 2.000e-01 2.000e-01 0.000e+00 2.338e-04 -2.521e-04 -8.116e-04
139 1 -2.000e-01 2.000e-01 0.000e+00 -2.906e-04 -1.947e-04 2.535e-04
140 1 -4.000e-01 0.000e+00 0.000e+00 -5.495e-04 -1.570e-03 -4.766e-04
141 1 -2.000e-01 0.000e+00 0.000e+00 7.318e-05 -5.626e-04 -4.940e-04
142 1 0.000e+00 4.000e-01 0.000e+00 -5.706e-04 6.164e-04 -7.629e-05
143 1 -2.000e-01 -2.000e-01 0.000e+00 -8.759e-04 1.930e-04 1.436e-04
144 1 0.000e+00 0.000e+00 0.000e+00 1.990e-01 1.984e-03 2.644e-04
ITEM: TIMESTEP
0
ITEM: NUMBER OF ATOMS
12
ITEM: BOX BOUNDS xy xz yz pp pp pp
                     -5.00000000000000e-01 5.00000000000000e-01 0.00000000000000e+00
-5.00000000000000e-01	5.00000000000000e-01	0.00000000000000e+00
-5.00000000000000e-01	5.00000000000000e-01	0.00000000000000e+00
ITEM: ATOMS id type x y z DisplacementX DisplacementY DisplacementZ
145 1 0.000e+00 0.000e+00 0.000e+00 2.002e-01 2.677e-04 4.228e-04
146 1 -2.000e-01 2.000e-01 0.000e+00 -4.334e-04 -1.133e-03 7.032e-04
147 1 -4.000e-01 0.000e+00 0.000e+00 5.981e-04 2.020e-04 1.421e-03
148 1 0.000e+00 -2.000e-01 0.000e+00 1.011e-03 1.389e-03 3.367e-04
149 1 0.000e+00 4.000e-01 0.000e+00 5.571e-04 -1.761e-03 -9.325e-04
150 1 -2.000e-01 -2.000e-01 0.000e+00 1.208e-04 1.066e-03 1.002e-03
151 1 2.000e-01 2.000e-01 0.000e+00 -6.153e-04 -1.797e-04 1.884e-03
152 1 0.000e+00 2.000e-01 0.000e+00 -8.102e-04 1.226e-03 -9.947e-04
153 1 2.000e-01 -2.000e-01 0.000e+00 -1.362e-03 1.004e-03 3.473e-04
154 1 4.000e-01 0.000e+00 0.000e+00 -5.691e-04 1.007e-03 1.329e-03
155 1 0.000e+00 -4.000e-01 0.000e+00 -5.545e-04 1.534e-03 -1.714e-03
156 1 -2.000e-01 0.000e+00 0.000e+00 -1.045e-03 1.409e-03 1.131e-03
ITEM: TIMESTEP
0
ITEM: NUMBER OF ATOMS
12
ITEM: BOX BOUNDS xy xz yz pp pp pp
                     -5.00000000000000e-01 5.00000000000000e-01 0.00000000000000e+00
-5.00000000000000e-01	5.00000000000000e-01	0.00000000000000e+00
-5.00000000000000e-01	5.00000000000000e-01	0.00000000000000e+00
ITEM: ATOMS id type x y z DisplacementX DisplacementY DisplacementZ
157 1 -2.000e-01 -2.000e-01 0.000e+00 -8.564e-04 -4.060e-04 1.380e-03
158 1 -4.000e-01 0.000e+00 0.000e+00 1.557e-03 8.160e-04 1.273e-03
159 1 -2.000e-01 2.000e-01 0.000e+00 -4.627e-04 -5.270e-04 1.254e-03
160 1 0.000e+00 2.000e-01 0.000e+00 -7.947e-04 1.386e-03 -3.142e-04
161 1 4.000e-01 0.000e+00 0.000e+00 -4.835e-04 3.778e-04 1.341e-07
162 1 0.000e+00 0.000e+00 0.000e+00 -2.995e-03 -2.000e-01 -4.421e-05
163 1 -2.000e-01 0.000e+00 0.000e+00 -6.810e-06 2.154e-03 1.520e-03
164 1 0.000e+00 -4.000e-01 0.000e+00 6.975e-04 2.290e-03 7.295e-04
165 1 2.000e-01 -2.000e-01 0.000e+00 -1.420e-04 -9.701e-04 6.762e-04
166 1 2.000e-01 0.000e+00 0.000e+00 -1.696e-03 1.167e-03 2.089e-03
167 1 2.000e-01 2.000e-01 0.000e+00 8.128e-04 -4.827e-04 9.494e-04
168 1 0.000e+00 4.000e-01 0.000e+00 -1.148e-03 -5.782e-04 2.556e-03
ITEM: TIMESTEP
0
ITEM: NUMBER OF ATOMS
12
ITEM: BOX BOUNDS xy xz yz pp pp pp
                     -5.00000000000000e-01 5.00000000000000e-01 0.00000000000000e+00
-5.00000000000000e-01	5.00000000000000e-01	0.00000000000000e+00
-5.00000000000000e-01	5.00000000000000e-01	0.00000000000000e+00
ITEM: ATOMS id type x y z DisplacementX DisplacementY DisplacementZ
169 1 -2.000e-01 2.000e-01 0.000e+00 -8.297e-04 -7.908e-05 1.181e-03
170 1 -2.000e-01 0.000e+00 0.000e+00 1.927e-03 -2.230e-04 -1.591e-03
171 1 4.000e-01 0.000e+00 0.000e+00 3.723e-04 1.671e-03 1.430e-04
172 1 0.000e+00 -4.000e-01 0.000e+00 -4.793e-04 -6.251e-04 4.239e-05
173 1 -4.000e-01 0.000e+00 0.000e+00 -2.798e-04 6.182e-04 1.161e-03
174 1 2.000e-01 -2.000e-01 0.000e+00 5.358e-04 -2.642e-04 -1.612e-03
175 1 0.000e+00 4.000e-01 0.000e+00 1.521e-04 1.787e-04 -1.316e-04
176 1 0.000e+00 0.000e+00 0.000e+00 -1.575e-03 1.985e-01 9.695e-05
177 1 2.000e-01 2.000e-01 0.000e+00 7.120e-04 9.744e-04 -3.184e-04
178 1 -2.000e-01 -2.000e-01 0.000e+00 -1.976e-03 -1.154e-03 -1.479e-03
179 1 0.000e+00 -2.000e-01 0.000e+00 6.947e-04 1.063e-03 9.293e-04
180 1 2.000e-01 0.000e+00 0.000e+00 -1.304e-04 1.227e-04 -1.490e-03
ITEM: TIMESTEP
0
ITEM: NUMBER OF ATOMS
12
ITEM: BOX BOUNDS xy xz yz pp pp pp
                     -5.00000000000000e-01 5.00000000000000e-01 0.00000000000000e+00
-5.00000000000000e-01	5.00000000000000e-01	0.00000000000000e+00
-5.00000000000000e-01	5.00000000000000e-01	0.00000000000000e+00
ITEM: ATOMS id type x y z DisplacementX DisplacementY DisplacementZ
181 1 -4.000e-01 0.000e+00 0.000e+00 3.938e-04 4.124e-04 -1.805e-04
182 1 2.000e-01 0.000e+00 0.000e+00 4.554e-04 1.048e-03 -6.252e-04
183 1 2.000e-01 -2.000e-01 0.000e+00 6.779e-04 1.605e-03 -4.472e-04
184 1 2.000e-01 2.000e-01 0.000e+00 -1.184e-03 3.177e-04 -2.316e-04
185 1 0.000e+00 -4.000e-01 0.000e+00 -9.820e-04 -1.046e-03 9.815e-04
186 1 -2.000e-01 2.000e-01 0.000e+00 5.684e-04 2.587e-04 1.005e-03
187 1 -2.000e-01 -2.000e-01 0.000e+00 -6.354e-04 -3.931e-04 1.104e-04
188 1 0.000e+00 0.000e+00 0.000e+00 -2.011e-01 4.379e-04 1.082e-04
189 1 0.000e+00 2.000e-01 0.000e+00 -9.571e-04 -8.852e-04 -3.026e-04
190 1 4.000e-01 0.000e+00 0.000e+00 9.483e-04 7.402e-04 -1.467e-03
191 1 0.000e+00 4.000e-01 0.000e+00 7.081e-04 -8.098e-04 1.430e-04
192 1 0.000e+00 -2.000e-01 0.000e+00 -3.590e-04 -2.548e-03 1.345e-03
ITEM: TIMESTEP
0
ITEM: NUMBER OF ATOMS
12
ITEM: BOX BOUNDS xy xz yz pp pp pp
                     -5.00000000000000e-01 5.00000000000000e-01 0.00000000000000e+00
-5.00000000000000e-01	5.00000000000000e-01	0.00000000000000e+00
-5.00000000000000e-01	5.00000000000000e-01	0.00000000000000e+00
ITEM: ATOMS id type x y z DisplacementX DisplacementY DisplacementZ
193 1 0.000e+00 -2.000e-01 0.000e+00 -1.731e-04 1.941e-04 6.469e-04
194 1 0.000e+00 -4.000e-01 0.000e+00 -1.120e-04 -2.958e-04 -7.115e-05
195 1 2.000e-01 0.000e+00 0.000e+00 -7.229e-04 -1.594e-04 -1.299e-04
196 1 4.000e-01 0.000e+00 0.000e+00 -6.363e-04 1.346e-03 -8.249e-04
197 1 0.000e+00 0.000e+00 0.000e+00 -6.401e-04 2.002e-01 -6.527e-06
198 1 -2.000e-01 0.000e+00 0.000e+00 -1.712e-03 1.693e-03 1.215e-03
199 1 -4.000e-01 0.000e+00 0.000e+00 3.573e-04 -3.897e-04 1.722e-04
200 1 -2.000e-01 2.000e-01 0.000e+00 -1.310e-03 -9.182e-04 -1.127e-03
201 1 -2.000e-01 -2.000e-01 0.000e+00 6.194e-04 -9.585e-04 1.032e-03
202 1 0.000e+00 4.000e-01 0.000e+00 -5.427e-04 -4.446e-04 1.710e-03
203 1 2.000e-01 -2.000e-01 0.000e+00 -1.973e-04 1.282e-04 -1.417e-03
204 1 2.000e-01 2.000e-01 0.000e+00 1.256e-03 -5.856e-04 4.727e-04
ITEM: TIMESTEP
0
ITEM: NUMBER OF ATOMS
12
ITEM: BOX BOUNDS xy xz yz pp pp pp
                     -5.00000000000000e-01 5.00000000000000e-01 0.00000000000000e+00
-5.00000000000000e-01	5.00000000000000e-01	0.00000000000000e+00
-5.00000000000000e-01	5.00000000000000e-01	0.00000000000000e+00
ITEM: ATOMS id type x y z DisplacementX DisplacementY DisplacementZ
205 1 -2.000e-01 0.000e+00 0.000e+00 -8.156e-04 4.423e-04 -6.941e-04
206 1 2.000e-01 -2.000e-01 0.000e+00 1.368e-03 -2.254e-04 -6.949e-04
207 1 0.000e+00 4.000e-01 0.000e+00 -2.724e-03 6.276e-04 2.840e-05
208 1 0.000e+00 -2.000e-01 0.000e+00 -3.058e-05 -1.159e-04 1.018e-03
209 1 -4.000e-01 0.000e+00 0.000e+00 -1.806e-03 -9.347e-04 -4.724e-04
210 1 0.000e+00 2.000e-01 0.000e+00 1.739e-03 1.899e-03 4.362e-05
211 1 -2.000e-01 -2.000e-01 0.000e+00 -1.351e-04 1.518e-03 1.613e-03
212 1 0.000e+00 0.000e+00 0.000e+00 1.994e-01 1.005e-04 -8.246e-04
213 1 0.000e+00 -4.000e-01 0.000e+00 -3.719e-05 -3.692e-04 -4.972e-04
214 1 2.000e-01 2.000e-01 0.000e+00 9.559e-04 4.254e-05 9.753e-05
215 1 -2.000e-01 2.000e-01 0.000e+00 -5.081e-04 -1.198e-03 2.600e-03
216 1 4.000e-01 0.000e+00 0.000e+00 3.856e-04 -6.482e-05 7.588e-04
ITEM: TIMESTEP
0
ITEM: NUMBER OF ATOMS
12
ITEM: BOX BOUNDS xy xz yz pp pp pp
                     -5.00000000000000e-01 5.00000000000000e-01 0.00000000000000e+00
-5.00000000000000e-01	5.00000000000000e-01	0.00000000000000e+00
-5.00000000000000e-01	5.00000000000000e-01	0.00000000000000e+00
ITEM: ATOMS id type x y z DisplacementX DisplacementY DisplacementZ
217 1 0.000e+00 4.000e-01 0.000e+00 -4.857e-04 1.431e-03 8.858e-04
218 1 0.000e+00 2.000e-01 0.000e+00 1.190e-03 -3.945e-04 -3.434e-04
219 1 0.000e+00 -4.000e-01 0.000e+00 -1.320e-05 -1.052e-03 1.949e-04
220 1 -2.000e-01 2.000e-01 0.000e+00 -1.133e-03 4.984e-05 9.176e-04
221 1 -2.000e-01 0.000e+00 0.000e+00 -4.830e-04 1.464e-03 2.277e-04
222 1 2.000e-01 0.000e+00 0.000e+00 8.197e-05 8.449e-04 4.626e-04
223 1 -2.000e-01 -2.000e-01 0.000e+00 -1.247e-03 -5.594e-04 2.130e-04
224 1 0.000e+00 0.000e+00 0.000e+00 5.538e-04 -2.005e-01 8.069e-04
225 1 -4.000e-01 0.000e+00 0.000e+00 -8.896e-04 2.867e-05 1.251e-04
226 1 2.000e-01 2.000e-01 0.000e+00 -1.220e-03 3.912e-04 5.348e-04
227 1 2.000e-01 -2.000e-01 0.000e+00 -2.885e-04 3.810e-04 -2.161e-04
228 1 4.000e-01 0.000e+00 0.000e+00 -3.359e-05 9.313e-04 -3.959e-04
ITEM: TIMESTEP
0
ITEM: NUMBER OF ATOMS
12
ITEM: BOX BOUNDS xy xz yz pp pp pp
                     -5.00000000000000e-01 5.00000000000000e-01 0.00000000000000e+00
-5.00000000000000e-01	5.00000000000000e-01	0.00000000000000e+00
-5.00000000000000e-01	5.00000000000000e-01	0.00000000000000e+00
ITEM: ATOMS id type x y z DisplacementX DisplacementY DisplacementZ
229 1 4.000e-01 0.000e+00 0.000e+00 -8.432e-04 -1.348e-03 8.523e-04
230 1 0.000e+00 -2.000e-01 0.000e+00 7.930e-04 7.449e-04 -2.654e-04
231 1 2.000e-01 -2.000e-01 0.000e+00 -1.756e-04 9.005e-04 1.313e-04
232 1 -2.000e-01 -2.000e-01 0.000e+00 8.377e-04 -6.714e-05 2.456e-04
233 1 2.000e-01 0.000e+00 0.000e+00 3.580e-04 -2.038e-04 1.937e-04
234 1 0.000e+00 2.000e-01 0.000e+00 1.232e-05 -7.104e-04 -4.449e-04
235 1 -4.000e-01 0.000e+00 0.000e+00 -3.193e-04 -1.028e-03 1.359e-04
236 1 -2.000e-01 2.000e-01 0.000e+00 7.917e-04 -1.000e-03 -2.012e-04
237 1 0.000e+00 4.000e-01 0.000e+00 1.312e-03 -8.572e-04 -6.186e-04
238 1 0.000e+00 -4.000e-01 0.000e+00 2.170e-04 -2.466e-03 -8.274e-04
239 1 0.000e+00 0.000e+00 0.000e+00 -2.004e-01 -3.506e-05 -4.908e-04
240 1 2.000e-01 2.000e-01 0.000e+00 8.948e-04 5.325e-04 6.641e-04
