ITEM: TIMESTEP
0
ITEM: NUMBER OF ATOMS
107
ITEM: BOX BOUNDS xy xz yz pp pp pp
                     0.00000000000000e+00 1.06000000000000e+01 0.00000000000000e+00
0.00000000000000e+00	1.06000000000000e+01	0.00000000000000e+00
0.00000000000000e+00	1.06000000000000e+01	0.00000000000000e+00
ITEM: ATOMS id type x y z DisplacementX DisplacementY DisplacementZ
1 1 3.529e-01 3.513e-01 3.541e-01 -2.080e-03 -3.934e-03 -2.305e-03
2 1 2.123e+00 2.126e+00 3.536e-01 -2.177e-03 -5.273e-03 -3.705e-03
3 1 2.124e+00 3.531e-01 2.123e+00 -2.367e-03 -2.727e-03 -6.554e-04
4 1 3.527e-01 2.124e+00 2.126e+00 -2.208e-03 -6.568e-03 -5.130e-03
5 1 3.895e+00 3.535e-01 3.545e-01 -2.360e-03 -6.873e-03 -4.865e-03
6 1 5.665e+00 2.123e+00 3.564e-01 -2.011e-03 -7.958e-03 -7.071e-03
7 1 5.666e+00 3.515e-01 2.126e+00 -9.408e-04 -1.326e-02 -1.032e-02
8 1 3.895e+00 2.123e+00 2.125e+00 -2.041e-03 -6.514e-03 -5.264e-03
9 1 7.434e+00 3.501e-01 3.566e-01 -1.969e-03 -8.003e-03 -5.672e-03
10 1 9.204e+00 2.126e+00 3.554e-01 -1.851e-03 -7.538e-03 -5.679e-03
11 1 9.202e+00 3.492e-01 2.126e+00 -2.848e-03 -1.942e-03 -8.465e-04
12 1 7.433e+00 2.125e+00 2.123e+00 -1.128e-03 -1.238e-02 -8.764e-03
13 1 3.530e-01 3.896e+00 3.557e-01 -2.261e-03 -6.057e-03 -4.063e-03
14 1 2.126e+00 3.895e+00 2.125e+00 -1.952e-03 -1.133e-03 4.246e-04
15 1 3.896e+00 3.895e+00 3.555e-01 -2.193e-03 -4.273e-03 -3.458e-03
16 1 5.667e+00 3.896e+00 2.125e+00 -2.758e-03 -3.712e-03 -5.137e-03
17 1 7.435e+00 3.896e+00 3.569e-01 -2.585e-03 -7.345e-03 -7.444e-03
18 1 9.203e+00 3.898e+00 2.126e+00 -1.410e-03 -1.568e-02 -1.228e-02
19 1 3.513e-01 3.498e-01 3.895e+00 -1.277e-03 -4.121e-03 -3.146e-03
20 1 2.121e+00 2.125e+00 3.895e+00 -2.141e-03 -3.414e-03 -2.712e-03
21 1 3.896e+00 3.494e-01 3.894e+00 -1.260e-03 -1.448e-02 -1.201e-02
22 1 5.661e+00 2.125e+00 3.893e+00 -1.662e-03 -5.661e-03 -1.824e-03
23 1 7.435e+00 3.638e-01 3.894e+00 -6.109e-03 7.281e-03 8.483e-03
24 1 9.207e+00 2.124e+00 3.891e+00 -2.021e-03 -1.405e-02 -1.079e-02
25 1 3.506e-01 3.897e+00 3.894e+00 -2.299e-03 2.432e-03 4.340e-03
26 1 3.898e+00 3.897e+00 3.893e+00 -3.216e-03 -1.485e-03 -1.006e-04
27 1 7.435e+00 3.886e+00 3.895e+00 2.835e-03 -4.150e-02 -3.881e-02
28 1 2.125e+00 3.539e-01 5.663e+00 -2.335e-03 -4.029e-03 -2.465e-03
29 1 3.539e-01 2.123e+00 5.664e+00 -2.000e-03 -6.565e-03 -5.783e-03
30 1 5.666e+00 3.507e-01 5.662e+00 -1.800e-03 -7.972e-03 -7.056e-03
31 1 3.895e+00 2.124e+00 5.665e+00 -1.726e-03 -8.937e-03 -6.592e-03
32 1 9.202e+00 3.507e-01 5.663e+00 -1.268e-03 -1.320e-02 -1.151e-02
33 1 7.435e+00 2.126e+00 5.665e+00 -1.765e-03 -1.477e-03 -4.501e-04
34 1 2.124e+00 3.894e+00 5.664e+00 -2.271e-03 -4.147e-04 1.205e-03
35 1 5.667e+00 3.895e+00 5.663e+00 -9.018e-04 -1.622e-02 -1.149e-02
36 1 9.200e+00 3.897e+00 5.664e+00 -2.154e-03 -6.683e-03 -7.049e-03
37 1 3.526e-01 3.532e-01 7.431e+00 -2.171e-03 -6.796e-03 -5.816e-03
38 1 2.124e+00 2.125e+00 7.435e+00 -2.209e-03 -5.410e-03 -3.845e-03
39 1 2.124e+00 3.521e-01 9.205e+00 -2.323e-03 -5.406e-03 -3.695e-03
40 1 3.513e-01 2.123e+00 9.203e+00 -2.180e-03 -6.197e-03 -4.724e-03
41 1 3.896e+00 3.539e-01 7.431e+00 -2.203e-03 -7.558e-03 -5.383e-03
42 1 5.664e+00 2.122e+00 7.433e+00 -1.618e-03 -8.532e-03 -6.719e-03
43 1 5.665e+00 3.530e-01 9.204e+00 -2.818e-03 -9.599e-03 -7.173e-03
44 1 3.895e+00 2.125e+00 9.205e+00 -2.250e-03 -6.379e-03 -4.628e-03
45 1 7.436e+00 3.517e-01 7.432e+00 -1.881e-03 -1.865e-02 -1.697e-02
46 1 9.201e+00 2.122e+00 7.433e+00 -2.124e-03 -7.702e-03 -6.990e-03
47 1 9.203e+00 3.520e-01 9.204e+00 -2.046e-03 -7.880e-03 -6.875e-03
48 1 7.435e+00 2.124e+00 9.203e+00 -2.453e-03 -9.434e-03 -8.262e-03
49 1 3.519e-01 3.896e+00 7.433e+00 -2.182e-03 -4.206e-03 -2.825e-03
50 1 2.126e+00 3.894e+00 9.203e+00 -2.317e-03 -4.872e-03 -3.194e-03
51 1 3.895e+00 3.893e+00 7.433e+00 -2.351e-03 -5.486e-03 -3.290e-03
52 1 5.664e+00 3.896e+00 9.203e+00 -2.434e-03 -7.490e-03 -5.844e-03
53 1 7.433e+00 3.896e+00 7.430e+00 -2.312e-03 -8.044e-03 -5.542e-03
54 1 9.203e+00 3.894e+00 9.205e+00 -2.403e-03 -8.504e-03 -6.739e-03
55 1 2.126e+00 5.667e+00 3.544e-01 -2.460e-03 -1.785e-03 1.128e-04
56 1 3.522e-01 5.666e+00 2.124e+00 -2.840e-03 7.728e-03 1.101e-02
57 1 5.667e+00 5.665e+00 3.562e-01 -1.828e-03 -5.710e-03 -3.536e-03
58 1 3.898e+00 5.664e+00 2.126e+00 -2.056e-03 9.807e-04 1.609e-03
59 1 9.201e+00 5.666e+00 3.577e-01 -2.965e-03 -1.387e-02 -1.245e-02
60 1 7.433e+00 5.672e+00 2.131e+00 1.852e-02 1.570e+00 1.515e+00
61 1 3.514e-01 7.435e+00 3.570e-01 -2.292e-03 2.084e-03 4.380e-03
62 1 2.122e+00 9.204e+00 3.531e-01 -2.373e-03 -3.495e-03 -1.458e-03
63 1 2.122e+00 7.436e+00 2.122e+00 -2.208e-03 -1.240e-02 -9.389e-03
64 1 3.515e-01 9.204e+00 2.126e+00 -2.233e-03 -1.056e-03 3.710e-03
65 1 3.899e+00 7.435e+00 3.575e-01 -2.675e-03 -4.332e-03 -2.671e-03
66 1 5.664e+00 9.202e+00 3.569e-01 -3.415e-03 -1.006e-02 -7.959e-03
67 1 5.672e+00 7.434e+00 2.132e+00 3.937e-02 -3.260e-02 -5.311e-02
68 1 3.897e+00 9.200e+00 2.126e+00 -3.145e-03 8.614e-04 3.519e-03
69 1 7.434e+00 7.435e+00 3.467e-01 -4.707e-03 -3.588e-02 -3.235e-02
70 1 9.202e+00 9.202e+00 3.558e-01 -3.170e-03 -6.261e-03 -3.357e-03
71 1 9.194e+00 7.435e+00 2.133e+00 1.081e-02 5.445e-03 -8.100e-03
72 1 7.434e+00 9.194e+00 2.135e+00 7.049e-02 -2.149e-02 -6.858e-02
73 1 2.125e+00 5.663e+00 3.894e+00 -3.361e-04 -1.380e-02 -1.040e-02
74 1 5.673e+00 5.674e+00 3.893e+00 -6.417e-02 -7.068e-03 4.040e-02
75 1 9.196e+00 5.674e+00 3.893e+00 5.158e-02 1.844e-03 -3.580e-02
76 1 3.646e-01 7.433e+00 3.895e+00 -6.276e-03 -1.467e-02 -7.213e-03
77 1 2.124e+00 9.205e+00 3.895e+00 -2.870e-03 4.193e-03 7.397e-03
78 1 3.885e+00 7.433e+00 3.895e+00 -5.697e-04 2.878e-02 3.011e-02
79 1 5.672e+00 9.196e+00 3.893e+00 1.829e-02 -3.310e-02 -5.184e-02
80 1 9.194e+00 9.193e+00 3.894e+00 -1.112e-02 -6.458e-02 -7.000e-02
81 1 3.507e-01 5.665e+00 5.664e+00 -2.078e-03 -3.460e-03 -2.090e-04
82 1 3.896e+00 5.665e+00 5.663e+00 -2.873e-03 8.341e-03 1.033e-02
83 1 7.435e+00 5.671e+00 5.656e+00 -2.011e-02 -7.325e-02 -1.750e-02
84 1 2.123e+00 7.432e+00 5.665e+00 -1.244e-03 -6.229e-03 -3.126e-03
85 1 3.522e-01 9.204e+00 5.663e+00 -3.749e-03 -1.307e-03 9.804e-04
86 1 5.673e+00 7.433e+00 5.655e+00 1.380e-01 -4.084e-02 -2.131e-01
87 1 3.897e+00 9.204e+00 5.663e+00 -1.436e-03 -7.169e-03 -5.213e-03
88 1 9.195e+00 7.433e+00 5.653e+00 2.131e-02 -4.593e-02 -5.825e-02
89 1 7.433e+00 9.196e+00 5.655e+00 -4.253e-02 -4.007e-02 1.515e-02
90 1 2.125e+00 5.664e+00 7.434e+00 -2.531e-03 -1.868e-03 1.552e-04
91 1 3.546e-01 5.662e+00 9.204e+00 -2.042e-03 -6.150e-03 -4.683e-03
92 1 5.665e+00 5.665e+00 7.433e+00 -3.410e-03 -1.005e-02 -8.353e-03
93 1 3.894e+00 5.667e+00 9.203e+00 -2.628e-03 -5.218e-03 -3.267e-03
94 1 9.203e+00 5.667e+00 7.431e+00 -8.240e-04 -5.185e-03 -3.034e-03
95 1 7.433e+00 5.662e+00 9.207e+00 -1.695e-03 -1.473e-02 -1.114e-02
96 1 3.500e-01 7.433e+00 7.432e+00 -2.353e-03 -2.879e-03 -1.954e-03
97 1 2.124e+00 9.203e+00 7.433e+00 -2.523e-03 -4.784e-03 -2.817e-03
98 1 2.125e+00 7.435e+00 9.203e+00 -3.098e-03 -1.844e-03 -2.657e-04
99 1 3.526e-01 9.204e+00 9.204e+00 -2.290e-03 -5.464e-03 -4.179e-03
100 1 3.897e+00 7.435e+00 7.431e+00 -3.749e-03 -8.376e-03 -4.492e-03
101 1 5.664e+00 9.202e+00 7.432e+00 -3.167e-03 -1.406e-02 -8.943e-03
102 1 5.661e+00 7.435e+00 9.204e+00 -8.242e-04 -2.956e-03 -9.934e-04
103 1 3.894e+00 9.203e+00 9.205e+00 -2.894e-03 -6.124e-03 -3.346e-03
104 1 7.433e+00 7.435e+00 7.443e+00 -1.372e-03 2.357e-03 2.321e-03
105 1 9.202e+00 9.203e+00 7.431e+00 -2.349e-03 -1.008e-02 -9.892e-03
106 1 9.205e+00 7.434e+00 9.204e+00 -1.927e-03 -1.259e-02 -9.198e-03
107 1 7.433e+00 9.206e+00 9.204e+00 -2.213e-03 -5.020e-03 -3.383e-03
ITEM: TIMESTEP
0
ITEM: NUMBER OF ATOMS
107
ITEM: BOX BOUNDS xy xz yz pp pp pp
                     0.00000000000000e+00 1.06000000000000e+01 0.00000000000000e+00
0.00000000000000e+00	1.06000000000000e+01	0.00000000000000e+00
0.00000000000000e+00	1.06000000000000e+01	0.00000000000000e+00
ITEM: ATOMS id type x y z DisplacementX DisplacementY DisplacementZ
1 1 3.529e-01 3.513e-01 3.541e-01 -2.474e-03 -2.566e-03 -3.712e-04
2 1 2.123e+00 2.126e+00 3.536e-01 -2.641e-03 -2.347e-03 -2.000e-04
3 1 2.124e+00 3.531e-01 2.123e+00 -3.951e-03 -2.649e-03 -9.634e-04
4 1 3.527e-01 2.124e+00 2.126e+00 -1.225e-03 -2.507e-03 2.286e-03
5 1 3.895e+00 3.535e-01 3.545e-01 -1.859e-03 -1.601e-03 5.555e-04
6 1 5.665e+00 2.123e+00 3.564e-01 -1.535e-03 -2.652e-03 2.050e-03
7 1 5.666e+00 3.515e-01 2.126e+00 2.118e-03 -2.675e-03 6.781e-03
8 1 3.895e+00 2.123e+00 2.125e+00 -2.914e-03 -3.740e-03 1.774e-03
9 1 7.434e+00 3.501e-01 3.566e-01 1.798e-03 -2.376e-03 5.212e-03
10 1 9.204e+00 2.126e+00 3.554e-01 -1.391e-03 -1.141e-03 1.765e-03
11 1 9.202e+00 3.492e-01 2.126e+00 -2.484e-03 -4.717e-03 -3.581e-04
12 1 7.433e+00 2.125e+00 2.123e+00 -5.765e-03 2.911e-04 -3.441e-03
13 1 3.530e-01 3.896e+00 3.557e-01 -1.186e-03 -1.011e-03 3.054e-04
14 1 2.126e+00 3.895e+00 2.125e+00 -4.115e-03 -3.315e-03 -1.980e-03
15 1 3.896e+00 3.895e+00 3.555e-01 -2.963e-03 -3.456e-03 -6.785e-04
16 1 5.667e+00 3.896e+00 2.125e+00 -3.998e-03 -7.411e-03 4.478e-03
17 1 7.435e+00 3.896e+00 3.569e-01 3.472e-03 -1.412e-03 4.412e-03
18 1 9.203e+00 3.898e+00 2.126e+00 2.268e-03 6.737e-04 9.288e-03
19 1 3.513e-01 3.498e-01 3.895e+00 -8.952e-03 -3.838e-03 -2.541e-03
20 1 2.121e+00 2.125e+00 3.895e+00 -3.546e-03 -4.369e-03 6.463e-04
21 1 3.896e+00 3.494e-01 3.894e+00 2.675e-03 -3.009e-03 5.736e-03
22 1 5.661e+00 2.125e+00 3.893e+00 -8.519e-03 2.846e-03 -4.157e-03
23 1 7.435e+00 3.638e-01 3.894e+00 6.160e-03 -1.710e-03 8.276e-03
24 1 9.207e+00 2.124e+00 3.891e+00 4.864e-03 -4.392e-03 7.781e-03
25 1 3.506e-01 3.897e+00 3.894e+00 -6.519e-03 3.649e-04 -2.157e-03
26 1 3.898e+00 3.897e+00 3.893e+00 -1.304e-03 -8.582e-03 3.182e-03
27 1 7.435e+00 3.886e+00 3.895e+00 -2.857e-03 -5.163e-03 1.620e-02
28 1 2.125e+00 3.539e-01 5.663e+00 -3.712e-03 -3.529e-03 -5.872e-04
29 1 3.539e-01 2.123e+00 5.664e+00 -3.004e-03 -1.737e-03 1.901e-03
30 1 5.666e+00 3.507e-01 5.662e+00 -1.956e-03 -3.715e-03 5.167e-03
31 1 3.895e+00 2.124e+00 5.665e+00 -1.109e-03 -3.933e-03 3.017e-03
32 1 9.202e+00 3.507e-01 5.663e+00 -4.133e-03 -2.172e-03 2.807e-03
33 1 7.435e+00 2.126e+00 5.665e+00 2.892e-03 -3.696e-03 5.442e-03
34 1 2.124e+00 3.894e+00 5.664e+00 -5.135e-03 -3.911e-03 -1.301e-03
35 1 5.667e+00 3.895e+00 5.663e+00 4.070e-03 -4.422e-03 8.831e-03
36 1 9.200e+00 3.897e+00 5.664e+00 -3.004e-03 -1.688e-04 2.769e-03
37 1 3.526e-01 3.532e-01 7.431e+00 -3.505e-03 -2.289e-03 -3.322e-04
38 1 2.124e+00 2.125e+00 7.435e+00 -2.609e-03 -2.518e-03 1.859e-04
39 1 2.124e+00 3.521e-01 9.205e+00 -2.542e-03 -2.082e-03 -4.828e-04
40 1 3.513e-01 2.123e+00 9.203e+00 -2.014e-03 -1.752e-03 2.796e-04
41 1 3.896e+00 3.539e-01 7.431e+00 -1.642e-03 -2.184e-03 4.355e-04
42 1 5.664e+00 2.122e+00 7.433e+00 -6.554e-04 -3.025e-03 3.790e-03
43 1 5.665e+00 3.530e-01 9.204e+00 -4.462e-04 -5.154e-04 4.672e-04
44 1 3.895e+00 2.125e+00 9.205e+00 -2.245e-03 -2.179e-03 1.495e-04
45 1 7.436e+00 3.517e-01 7.432e+00 -4.078e-03 -1.069e-03 3.138e-04
46 1 9.201e+00 2.122e+00 7.433e+00 -1.866e-03 -1.659e-03 2.321e-03
47 1 9.203e+00 3.520e-01 9.204e+00 -9.097e-04 -1.305e-03 7.140e-04
48 1 7.435e+00 2.124e+00 9.203e+00 -5.137e-04 -1.527e-03 2.168e-03
49 1 3.519e-01 3.896e+00 7.433e+00 -3.788e-03 -1.360e-03 -1.450e-03
50 1 2.126e+00 3.894e+00 9.203e+00 -2.693e-03 -2.194e-03 -8.850e-04
51 1 3.895e+00 3.893e+00 7.433e+00 -1.779e-03 -2.936e-03 5.324e-04
52 1 5.664e+00 3.896e+00 9.203e+00 -1.060e-03 -1.670e-03 -9.403e-04
53 1 7.433e+00 3.896e+00 7.430e+00 -8.062e-04 2.763e-04 -6.850e-04
54 1 9.203e+00 3.894e+00 9.205e+00 -8.402e-04 -1.800e-04 -9.184e-04
55 1 2.126e+00 5.667e+00 3.544e-01 -4.079e-03 -2.759e-03 -2.923e-03
56 1 3.522e-01 5.666e+00 2.124e+00 -8.292e-03 -4.521e-03 -5.546e-03
57 1 5.667e+00 5.665e+00 3.562e-01 -4.408e-04 -2.245e-03 -1.331e-03
58 1 3.898e+00 5.664e+00 2.126e+00 -5.088e-03 -3.923e-03 -2.731e-03
59 1 9.201e+00 5.666e+00 3.577e-01 3.833e-03 1.925e-03 -5.381e-04
60 1 7.433e+00 5.672e+00 2.131e+00 3.582e-02 -1.085e-01 -2.475e-02
61 1 3.514e-01 7.435e+00 3.570e-01 -1.582e-03 -6.225e-04 -2.937e-03
62 1 2.122e+00 9.204e+00 3.531e-01 -3.425e-03 -1.710e-03 -3.068e-03
63 1 2.122e+00 7.436e+00 2.122e+00 -5.562e-03 -6.646e-04 -3.162e-03
64 1 3.515e-01 9.204e+00 2.126e+00 -4.335e-03 -3.113e-03 -3.515e-03
65 1 3.899e+00 7.435e+00 3.575e-01 4.230e-04 -3.208e-03 -1.723e-05
66 1 5.664e+00 9.202e+00 3.569e-01 2.739e-04 2.585e-04 4.572e-04
67 1 5.672e+00 7.434e+00 2.132e+00 8.871e-01 -7.712e-02 9.841e-01
68 1 3.897e+00 9.200e+00 2.126e+00 -4.736e-03 -4.104e-03 -3.742e-03
69 1 7.434e+00 7.435e+00 3.467e-01 -1.384e-02 5.308e-03 -1.960e-02
70 1 9.202e+00 9.202e+00 3.558e-01 -4.039e-04 -3.114e-03 1.005e-03
71 1 9.194e+00 7.435e+00 2.133e+00 -1.802e-01 3.132e-02 4.604e-02
72 1 7.434e+00 9.194e+00 2.135e+00 1.398e-01 4.440e-02 -3.040e-03
73 1 2.125e+00 5.663e+00 3.894e+00 -2.983e-03 -5.846e-04 3.029e-04
74 1 5.673e+00 5.674e+00 3.893e+00 4.453e-01 3.613e-01 1.828e-01
75 1 9.196e+00 5.674e+00 3.893e+00 -6.268e-02 -2.490e-02 -1.969e-01
76 1 3.646e-01 7.433e+00 3.895e+00 1.600e-02 -1.577e-02 1.476e-02
77 1 2.124e+00 9.205e+00 3.895e+00 -4.693e-03 -1.428e-03 -1.379e-04
78 1 3.885e+00 7.433e+00 3.895e+00 -3.660e-02 2.991e-03 -2.895e-02
79 1 5.672e+00 9.196e+00 3.893e+00 9.856e-02 2.112e-02 1.282e-01
80 1 9.194e+00 9.193e+00 3.894e+00 -1.957e-02 9.083e-02 -8.677e-02
81 1 3.507e-01 5.665e+00 5.664e+00 -6.924e-03 -5.101e-03 -4.843e-03
82 1 3.896e+00 5.665e+00 5.663e+00 -6.360e-03 -3.667e-03 -1.510e-03
83 1 7.435e+00 5.671e+00 5.656e+00 -2.095e-01 -2.032e-02 -1.373e-01
84 1 2.123e+00 7.432e+00 5.665e+00 2.749e-03 -9.492e-04 3.660e-03
85 1 3.522e-01 9.204e+00 5.663e+00 -9.074e-03 -6.933e-03 -4.487e-03
86 1 5.673e+00 7.433e+00 5.655e+00 -1.808e-01 -1.261e-02 -2.059e-03
87 1 3.897e+00 9.204e+00 5.663e+00 -1.519e-03 -8.668e-04 -1.087e-03
88 1 9.195e+00 7.433e+00 5.653e+00 -9.366e-02 1.018e-01 -8.148e-02
89 1 7.433e+00 9.196e+00 5.655e+00 -6.909e-02 -1.663e-01 -2.564e-01
90 1 2.125e+00 5.664e+00 7.434e+00 -4.464e-03 -3.284e-03 -1.949e-03
91 1 3.546e-01 5.662e+00 9.204e+00 -7.305e-04 2.761e-04 -1.684e-03
92 1 5.665e+00 5.665e+00 7.433e+00 1.234e-03 -1.110e-03 -3.167e-03
93 1 3.894e+00 5.667e+00 9.203e+00 -2.494e-03 -2.374e-03 -2.569e-03
94 1 9.203e+00 5.667e+00 7.431e+00 -3.413e-03 2.402e-03 -3.715e-03
95 1 7.433e+00 5.662e+00 9.207e+00 -2.309e-03 -2.205e-03 6.866e-04
96 1 3.500e-01 7.433e+00 7.432e+00 -1.210e-02 -1.130e-03 -1.017e-02
97 1 2.124e+00 9.203e+00 7.433e+00 -3.146e-03 -3.076e-03 -1.226e-03
98 1 2.125e+00 7.435e+00 9.203e+00 -3.728e-03 -2.579e-03 -3.813e-03
99 1 3.526e-01 9.204e+00 9.204e+00 -1.827e-03 -1.531e-03 -1.132e-03
100 1 3.897e+00 7.435e+00 7.431e+00 7.394e-04 -2.531e-03 -7.139e-04
101 1 5.664e+00 9.202e+00 7.432e+00 1.642e-03 4.937e-04 -1.648e-03
102 1 5.661e+00 7.435e+00 9.204e+00 -7.816e-03 7.957e-04 -4.258e-03
103 1 3.894e+00 9.203e+00 9.205e+00 -2.465e-03 -1.265e-03 -1.422e-03
104 1 7.433e+00 7.435e+00 7.443e+00 2.207e-02 5.960e-07 1.411e-02
105 1 9.202e+00 9.203e+00 7.431e+00 -2.685e-03 1.051e-03 -4.474e-03
106 1 9.205e+00 7.434e+00 9.204e+00 5.578e-03 -1.794e-03 4.872e-03
107 1 7.433e+00 9.206e+00 9.204e+00 2.021e-03 2.295e-04 -8.724e-04
ITEM: TIMESTEP
0
ITEM: NUMBER OF ATOMS
107
ITEM: BOX BOUNDS xy xz yz pp pp pp
                     0.00000000000000e+00 1.06000000000000e+01 0.00000000000000e+00
0.00000000000000e+00	1.06000000000000e+01	0.00000000000000e+00
0.00000000000000e+00	1.06000000000000e+01	0.00000000000000e+00
ITEM: ATOMS id type x y z DisplacementX DisplacementY DisplacementZ
1 1 3.529e-01 3.513e-01 3.541e-01 5.974e-03 -7.842e-03 6.784e-03
2 1 2.123e+00 2.126e+00 3.536e-01 5.210e-03 -7.249e-03 6.847e-03
3 1 2.124e+00 3.531e-01 2.123e+00 5.497e-03 -7.005e-03 5.716e-03
4 1 3.527e-01 2.124e+00 2.126e+00 3.677e-03 -8.250e-03 8.563e-03
5 1 3.895e+00 3.535e-01 3.545e-01 4.105e-03 -7.123e-03 8.294e-03
6 1 5.665e+00 2.123e+00 3.564e-01 3.542e-03 -7.698e-03 9.190e-03
7 1 5.666e+00 3.515e-01 2.126e+00 4.586e-04 -7.675e-03 1.094e-02
8 1 3.895e+00 2.123e+00 2.125e+00 2.934e-03 -7.181e-03 9.021e-03
9 1 7.434e+00 3.501e-01 3.566e-01 2.133e-03 -9.033e-03 1.415e-02
10 1 9.204e+00 2.126e+00 3.554e-01 3.589e-03 -8.909e-03 8.219e-03
11 1 9.202e+00 3.492e-01 2.126e+00 4.269e-03 -1.149e-02 1.066e-02
12 1 7.433e+00 2.125e+00 2.123e+00 3.743e-03 -8.387e-03 3.386e-03
13 1 3.530e-01 3.896e+00 3.557e-01 5.166e-03 -7.119e-03 5.845e-03
14 1 2.126e+00 3.895e+00 2.125e+00 6.936e-03 -6.739e-03 4.093e-03
15 1 3.896e+00 3.895e+00 3.555e-01 5.533e-03 -6.616e-03 7.313e-03
16 1 5.667e+00 3.896e+00 2.125e+00 1.427e-03 -7.808e-03 1.266e-02
17 1 7.435e+00 3.896e+00 3.569e-01 2.021e-03 -5.967e-03 1.050e-02
18 1 9.203e+00 3.898e+00 2.126e+00 -2.486e-03 -7.237e-03 9.617e-03
19 1 3.513e-01 3.498e-01 3.895e+00 1.670e-03 -7.836e-03 9.827e-03
20 1 2.121e+00 2.125e+00 3.895e+00 5.225e-03 -7.185e-03 7.411e-03
21 1 3.896e+00 3.494e-01 3.894e+00 5.904e-03 -7.184e-03 5.131e-03
22 1 5.661e+00 2.125e+00 3.893e+00 -1.506e-03 -8.571e-03 9.857e-03
23 1 7.435e+00 3.638e-01 3.894e+00 -5.697e-03 -8.309e-03 1.167e-02
24 1 9.207e+00 2.124e+00 3.891e+00 4.976e-03 -4.739e-03 3.551e-03
25 1 3.506e-01 3.897e+00 3.894e+00 3.431e-03 -7.856e-03 6.653e-03
26 1 3.898e+00 3.897e+00 3.893e+00 5.320e-03 -5.037e-03 5.494e-03
27 1 7.435e+00 3.886e+00 3.895e+00 -5.027e-03 -9.574e-03 1.868e-02
28 1 2.125e+00 3.539e-01 5.663e+00 5.051e-03 -6.355e-03 6.221e-03
29 1 3.539e-01 2.123e+00 5.664e+00 2.485e-03 -7.554e-03 1.008e-02
30 1 5.666e+00 3.507e-01 5.662e+00 2.995e-03 -9.909e-03 7.458e-03
31 1 3.895e+00 2.124e+00 5.665e+00 3.437e-03 -7.515e-03 7.301e-03
32 1 9.202e+00 3.507e-01 5.663e+00 -5.704e-04 -6.831e-03 1.209e-02
33 1 7.435e+00 2.126e+00 5.665e+00 1.473e-03 -6.574e-03 1.054e-02
34 1 2.124e+00 3.894e+00 5.664e+00 6.801e-03 -6.490e-03 4.832e-03
35 1 5.667e+00 3.895e+00 5.663e+00 1.149e-03 -6.650e-03 7.046e-03
36 1 9.200e+00 3.897e+00 5.664e+00 -2.106e-03 -1.020e-02 1.600e-02
37 1 3.526e-01 3.532e-01 7.431e+00 4.039e-03 -6.579e-03 8.366e-03
38 1 2.124e+00 2.125e+00 7.435e+00 4.888e-03 -7.062e-03 7.218e-03
39 1 2.124e+00 3.521e-01 9.205e+00 5.433e-03 -6.957e-03 6.739e-03
40 1 3.513e-01 2.123e+00 9.203e+00 5.016e-03 -7.354e-03 7.433e-03
41 1 3.896e+00 3.539e-01 7.431e+00 5.780e-03 -7.125e-03 5.604e-03
42 1 5.664e+00 2.122e+00 7.433e+00 3.635e-03 -7.846e-03 7.926e-03
43 1 5.665e+00 3.530e-01 9.204e+00 4.001e-03 -7.116e-03 8.325e-03
44 1 3.895e+00 2.125e+00 9.205e+00 4.840e-03 -7.256e-03 7.391e-03
45 1 7.436e+00 3.517e-01 7.432e+00 4.189e-03 -7.017e-03 7.746e-03
46 1 9.201e+00 2.122e+00 7.433e+00 2.116e-03 -7.909e-03 1.096e-02
47 1 9.203e+00 3.520e-01 9.204e+00 5.218e-03 -7.108e-03 8.388e-03
48 1 7.435e+00 2.124e+00 9.203e+00 4.401e-03 -8.142e-03 9.882e-03
49 1 3.519e-01 3.896e+00 7.433e+00 5.307e-03 -7.461e-03 7.765e-03
50 1 2.126e+00 3.894e+00 9.203e+00 5.843e-03 -7.015e-03 6.473e-03
51 1 3.895e+00 3.893e+00 7.433e+00 5.511e-03 -7.229e-03 6.029e-03
52 1 5.664e+00 3.896e+00 9.203e+00 5.352e-03 -7.661e-03 8.203e-03
53 1 7.433e+00 3.896e+00 7.430e+00 4.403e-03 -1.006e-02 7.200e-03
54 1 9.203e+00 3.894e+00 9.205e+00 5.709e-03 -7.279e-03 7.551e-03
55 1 2.126e+00 5.667e+00 3.544e-01 7.625e-03 -6.142e-03 3.544e-03
56 1 3.522e-01 5.666e+00 2.124e+00 9.729e-03 -6.155e-03 -1.546e-03
57 1 5.667e+00 5.665e+00 3.562e-01 5.868e-03 -5.989e-03 7.514e-03
58 1 3.898e+00 5.664e+00 2.126e+00 8.125e-03 -4.191e-03 3.372e-03
59 1 9.201e+00 5.666e+00 3.577e-01 4.696e-03 -6.125e-03 8.392e-03
60 1 7.433e+00 5.672e+00 2.131e+00 -1.550e-06 -2.933e-02 -9.820e-03
61 1 3.514e-01 7.435e+00 3.570e-01 7.438e-03 -6.750e-03 3.729e-03
62 1 2.122e+00 9.204e+00 3.531e-01 7.156e-03 -6.620e-03 4.488e-03
63 1 2.122e+00 7.436e+00 2.122e+00 4.511e-03 -6.428e-03 4.010e-03
64 1 3.515e-01 9.204e+00 2.126e+00 6.073e-03 -5.526e-03 2.352e-03
65 1 3.899e+00 7.435e+00 3.575e-01 5.177e-03 -5.132e-03 9.506e-03
66 1 5.664e+00 9.202e+00 3.569e-01 2.012e-03 -6.906e-03 1.225e-02
67 1 5.672e+00 7.434e+00 2.132e+00 2.622e-02 6.628e-02 -2.510e-01
68 1 3.897e+00 9.200e+00 2.126e+00 8.219e-03 -8.366e-03 4.493e-03
69 1 7.434e+00 7.435e+00 3.467e-01 1.682e-02 -8.056e-03 -8.156e-03
70 1 9.202e+00 9.202e+00 3.558e-01 6.673e-03 -7.119e-03 7.512e-03
71 1 9.194e+00 7.435e+00 2.133e+00 -9.668e-01 8.529e-03 9.503e-01
72 1 7.434e+00 9.194e+00 2.135e+00 -2.318e-01 1.109e-01 -7.462e-03
73 1 2.125e+00 5.663e+00 3.894e+00 2.779e-03 -7.678e-03 5.645e-03
74 1 5.673e+00 5.674e+00 3.893e+00 7.662e-02 5.615e-02 -1.292e-01
75 1 9.196e+00 5.674e+00 3.893e+00 -3.210e-01 1.513e-01 2.415e-01
76 1 3.646e-01 7.433e+00 3.895e+00 1.837e-02 4.568e-04 -9.984e-03
77 1 2.124e+00 9.205e+00 3.895e+00 5.072e-03 -5.529e-03 2.461e-03
78 1 3.885e+00 7.433e+00 3.895e+00 2.578e-03 -7.576e-03 5.073e-03
79 1 5.672e+00 9.196e+00 3.893e+00 7.414e-02 6.215e-02 -1.868e-01
80 1 9.194e+00 9.193e+00 3.894e+00 -7.136e-02 9.583e-02 2.860e-02
81 1 3.507e-01 5.665e+00 5.664e+00 7.075e-03 -4.423e-03 4.293e-03
82 1 3.896e+00 5.665e+00 5.663e+00 8.763e-03 -6.718e-03 1.572e-03
83 1 7.435e+00 5.671e+00 5.656e+00 1.304e-01 2.887e-01 -3.980e-01
84 1 2.123e+00 7.432e+00 5.665e+00 7.182e-04 -5.909e-03 9.092e-03
85 1 3.522e-01 9.204e+00 5.663e+00 3.954e-03 -5.560e-03 6.005e-03
86 1 5.673e+00 7.433e+00 5.655e+00 1.169e-01 -3.441e-02 -1.768e-02
87 1 3.897e+00 9.204e+00 5.663e+00 7.794e-03 -4.325e-03 1.575e-03
88 1 9.195e+00 7.433e+00 5.653e+00 -8.130e-02 -6.897e-02 -2.253e-01
89 1 7.433e+00 9.196e+00 5.655e+00 2.073e-01 1.503e-02 -1.427e-01
90 1 2.125e+00 5.664e+00 7.434e+00 6.896e-03 -5.702e-03 5.248e-03
91 1 3.546e-01 5.662e+00 9.204e+00 6.795e-03 -7.378e-03 6.033e-03
92 1 5.665e+00 5.665e+00 7.433e+00 6.435e-03 -8.485e-03 6.432e-03
93 1 3.894e+00 5.667e+00 9.203e+00 6.636e-03 -6.980e-03 6.176e-03
94 1 9.203e+00 5.667e+00 7.431e+00 8.148e-03 -7.948e-03 5.278e-03
95 1 7.433e+00 5.662e+00 9.207e+00 2.496e-03 -6.207e-03 1.004e-02
96 1 3.500e-01 7.433e+00 7.432e+00 6.718e-03 -6.245e-03 7.421e-03
97 1 2.124e+00 9.203e+00 7.433e+00 5.760e-03 -5.758e-03 5.409e-03
98 1 2.125e+00 7.435e+00 9.203e+00 8.867e-03 -6.170e-03 4.784e-03
99 1 3.526e-01 9.204e+00 9.204e+00 7.163e-03 -6.770e-03 6.433e-03
100 1 3.897e+00 7.435e+00 7.431e+00 1.131e-02 -6.072e-03 -2.034e-03
101 1 5.664e+00 9.202e+00 7.432e+00 7.955e-03 -7.163e-03 2.988e-03
102 1 5.661e+00 7.435e+00 9.204e+00 3.467e-03 -7.610e-03 7.187e-03
103 1 3.894e+00 9.203e+00 9.205e+00 5.944e-03 -6.687e-03 6.454e-03
104 1 7.433e+00 7.435e+00 7.443e+00 -3.234e-03 -4.122e-03 2.467e-02
105 1 9.202e+00 9.203e+00 7.431e+00 6.152e-03 -5.790e-03 9.237e-03
106 1 9.205e+00 7.434e+00 9.204e+00 3.545e-03 -7.220e-03 5.820e-03
107 1 7.433e+00 9.206e+00 9.204e+00 2.879e-03 -6.876e-03 5.382e-03
ITEM: TIMESTEP
0
ITEM: NUMBER OF ATOMS
107
ITEM: BOX BOUNDS xy xz yz pp pp pp
                     0.00000000000000e+00 1.06000000000000e+01 0.00000000000000e+00
0.00000000000000e+00	1.06000000000000e+01	0.00000000000000e+00
0.00000000000000e+00	1.06000000000000e+01	0.00000000000000e+00
ITEM: ATOMS id type x y z DisplacementX DisplacementY DisplacementZ
1 1 3.529e-01 3.513e-01 3.541e-01 2.740e-05 -4.764e-03 -4.702e-03
2 1 2.123e+00 2.126e+00 3.536e-01 -7.144e-05 -4.953e-03 -4.539e-03
3 1 2.124e+00 3.531e-01 2.123e+00 -3.706e-04 -6.881e-03 -3.587e-03
4 1 3.527e-01 2.124e+00 2.126e+00 2.758e-03 -5.388e-03 -5.026e-03
5 1 3.895e+00 3.535e-01 3.545e-01 -4.783e-04 -4.220e-03 -4.793e-03
6 1 5.665e+00 2.123e+00 3.564e-01 1.466e-03 -2.908e-03 -5.671e-03
7 1 5.666e+00 3.515e-01 2.126e+00 2.888e-03 -1.392e-03 -5.718e-03
8 1 3.895e+00 2.123e+00 2.125e+00 1.538e-03 -4.275e-03 -4.570e-03
9 1 7.434e+00 3.501e-01 3.566e-01 2.898e-03 -3.232e-03 -5.210e-03
10 1 9.204e+00 2.126e+00 3.554e-01 1.946e-03 -4.499e-03 -6.169e-03
11 1 9.202e+00 3.492e-01 2.126e+00 4.763e-03 -5.796e-03 -4.700e-03
12 1 7.433e+00 2.125e+00 2.123e+00 -1.132e-03 -2.473e-04 -5.159e-03
13 1 3.530e-01 3.896e+00 3.557e-01 -1.446e-04 -5.910e-03 -4.134e-03
14 1 2.126e+00 3.895e+00 2.125e+00 -5.682e-04 -7.298e-03 -3.217e-03
15 1 3.896e+00 3.895e+00 3.555e-01 -4.356e-04 -4.779e-03 -4.642e-03
16 1 5.667e+00 3.896e+00 2.125e+00 5.503e-03 -2.949e-03 -5.195e-03
17 1 7.435e+00 3.896e+00 3.569e-01 6.562e-04 -5.555e-03 -4.493e-03
18 1 9.203e+00 3.898e+00 2.126e+00 4.592e-03 -5.194e-03 -5.620e-03
19 1 3.513e-01 3.498e-01 3.895e+00 1.119e-04 -1.040e-02 -1.904e-03
20 1 2.121e+00 2.125e+00 3.895e+00 1.049e-03 -7.154e-03 -3.432e-03
21 1 3.896e+00 3.494e-01 3.894e+00 2.797e-03 -6.547e-03 1.268e-03
22 1 5.661e+00 2.125e+00 3.893e+00 -1.399e-04 -6.676e-03 -6.368e-03
23 1 7.435e+00 3.638e-01 3.894e+00 4.567e-03 8.925e-03 -2.060e-02
24 1 9.207e+00 2.124e+00 3.891e+00 1.703e-03 8.297e-04 -2.203e-03
25 1 3.506e-01 3.897e+00 3.894e+00 1.547e-03 -6.817e-03 -7.301e-03
26 1 3.898e+00 3.897e+00 3.893e+00 1.358e-03 -2.842e-03 -4.778e-03
27 1 7.435e+00 3.886e+00 3.895e+00 1.149e-02 -1.276e-02 9.794e-03
28 1 2.125e+00 3.539e-01 5.663e+00 5.285e-04 -6.764e-03 -2.960e-03
29 1 3.539e-01 2.123e+00 5.664e+00 1.129e-03 -4.950e-03 -5.689e-03
30 1 5.666e+00 3.507e-01 5.662e+00 6.145e-03 -5.427e-03 -2.697e-03
31 1 3.895e+00 2.124e+00 5.665e+00 1.946e-03 -3.669e-03 -3.335e-03
32 1 9.202e+00 3.507e-01 5.663e+00 -1.998e-04 -6.487e-03 -4.044e-03
33 1 7.435e+00 2.126e+00 5.665e+00 3.203e-03 -6.951e-03 -1.156e-03
34 1 2.124e+00 3.894e+00 5.664e+00 -7.259e-04 -5.954e-03 -3.481e-03
35 1 5.667e+00 3.895e+00 5.663e+00 2.470e-03 2.645e-03 -4.604e-03
36 1 9.200e+00 3.897e+00 5.664e+00 5.026e-03 -1.508e-03 -9.546e-03
37 1 3.526e-01 3.532e-01 7.431e+00 -7.680e-04 -5.419e-03 -4.217e-03
38 1 2.124e+00 2.125e+00 7.435e+00 -1.533e-04 -4.802e-03 -4.223e-03
39 1 2.124e+00 3.521e-01 9.205e+00 -6.537e-04 -4.611e-03 -4.601e-03
40 1 3.513e-01 2.123e+00 9.203e+00 -2.486e-04 -4.250e-03 -5.029e-03
41 1 3.896e+00 3.539e-01 7.431e+00 5.429e-04 -4.711e-03 -3.826e-03
42 1 5.664e+00 2.122e+00 7.433e+00 1.439e-03 -2.723e-03 -4.220e-03
43 1 5.665e+00 3.530e-01 9.204e+00 -6.190e-04 -2.005e-03 -6.455e-03
44 1 3.895e+00 2.125e+00 9.205e+00 -2.180e-04 -4.123e-03 -4.803e-03
45 1 7.436e+00 3.517e-01 7.432e+00 1.107e-03 -4.845e-03 -4.046e-03
46 1 9.201e+00 2.122e+00 7.433e+00 9.447e-04 -3.816e-03 -5.858e-03
47 1 9.203e+00 3.520e-01 9.204e+00 -8.911e-04 -2.525e-03 -5.729e-03
48 1 7.435e+00 2.124e+00 9.203e+00 5.366e-04 -2.734e-03 -7.125e-03
49 1 3.519e-01 3.896e+00 7.433e+00 -8.966e-04 -3.664e-03 -5.967e-03
50 1 2.126e+00 3.894e+00 9.203e+00 -8.943e-04 -4.799e-03 -4.490e-03
51 1 3.895e+00 3.893e+00 7.433e+00 -7.234e-04 -3.339e-03 -4.478e-03
52 1 5.664e+00 3.896e+00 9.203e+00 -1.459e-03 -3.300e-03 -5.484e-03
53 1 7.433e+00 3.896e+00 7.430e+00 -1.621e-03 4.951e-03 -1.139e-02
54 1 9.203e+00 3.894e+00 9.205e+00 -2.099e-03 -3.377e-03 -5.152e-03
55 1 2.126e+00 5.667e+00 3.544e-01 -1.270e-03 -7.041e-03 -3.852e-03
56 1 3.522e-01 5.666e+00 2.124e+00 6.153e-04 -1.239e-02 -1.111e-04
57 1 5.667e+00 5.665e+00 3.562e-01 -3.001e-03 -3.196e-03 -4.456e-03
58 1 3.898e+00 5.664e+00 2.126e+00 -2.487e-03 -8.621e-03 -4.327e-03
59 1 9.201e+00 5.666e+00 3.577e-01 -5.272e-03 -2.485e-03 -2.750e-03
60 1 7.433e+00 5.672e+00 2.131e+00 -1.262e-03 6.706e-02 -9.742e-02
61 1 3.514e-01 7.435e+00 3.570e-01 -2.781e-03 -9.714e-03 -1.390e-03
62 1 2.122e+00 9.204e+00 3.531e-01 -2.193e-03 -6.821e-03 -3.322e-03
63 1 2.122e+00 7.436e+00 2.122e+00 -5.365e-04 7.253e-05 -4.643e-03
64 1 3.515e-01 9.204e+00 2.126e+00 -1.617e-03 -9.805e-03 -2.091e-03
65 1 3.899e+00 7.435e+00 3.575e-01 -2.651e-03 -6.668e-03 -3.371e-03
66 1 5.664e+00 9.202e+00 3.569e-01 -1.781e-03 -1.081e-03 -6.727e-03
67 1 5.672e+00 7.434e+00 2.132e+00 2.898e-01 6.353e-02 4.517e-01
68 1 3.897e+00 9.200e+00 2.126e+00 -1.915e-04 -9.812e-03 -1.522e-04
69 1 7.434e+00 7.435e+00 3.467e-01 -1.097e-02 1.610e-02 -1.648e-02
70 1 9.202e+00 9.202e+00 3.558e-01 -9.624e-04 -3.622e-03 -3.400e-03
71 1 9.194e+00 7.435e+00 2.133e+00 1.390e-01 -2.407e-01 1.110e-01
72 1 7.434e+00 9.194e+00 2.135e+00 -6.326e-02 -9.888e-01 8.260e-01
73 1 2.125e+00 5.663e+00 3.894e+00 -1.589e-03 -6.828e-03 2.180e-03
74 1 5.673e+00 5.674e+00 3.893e+00 -8.745e-02 1.532e-01 -1.962e-01
75 1 9.196e+00 5.674e+00 3.893e+00 -3.576e-01 4.913e-01 -6.342e-02
76 1 3.646e-01 7.433e+00 3.895e+00 4.086e-03 -5.358e-03 5.639e-03
77 1 2.124e+00 9.205e+00 3.895e+00 5.731e-04 -7.183e-04 -9.788e-03
78 1 3.885e+00 7.433e+00 3.895e+00 -6.897e-03 -2.480e-02 -2.540e-03
79 1 5.672e+00 9.196e+00 3.893e+00 -1.386e-01 -6.599e-02 8.664e-02
80 1 9.194e+00 9.193e+00 3.894e+00 5.233e-02 -3.232e-02 8.787e-02
81 1 3.507e-01 5.665e+00 5.664e+00 -4.461e-03 -3.147e-03 -2.612e-03
82 1 3.896e+00 5.665e+00 5.663e+00 1.501e-03 -7.977e-03 -4.777e-03
83 1 7.435e+00 5.671e+00 5.656e+00 5.613e-02 5.198e-02 -6.335e-02
84 1 2.123e+00 7.432e+00 5.665e+00 -2.604e-04 -8.417e-03 3.579e-04
85 1 3.522e-01 9.204e+00 5.663e+00 1.599e-03 -1.166e-02 8.519e-04
86 1 5.673e+00 7.433e+00 5.655e+00 3.682e-03 1.269e-01 -7.731e-02
87 1 3.897e+00 9.204e+00 5.663e+00 -2.277e-03 -8.189e-03 -4.392e-04
88 1 9.195e+00 7.433e+00 5.653e+00 5.679e-02 1.328e-01 -5.329e-02
89 1 7.433e+00 9.196e+00 5.655e+00 5.083e-02 1.447e-01 5.249e-03
90 1 2.125e+00 5.664e+00 7.434e+00 -1.940e-03 -5.457e-03 -3.635e-03
91 1 3.546e-01 5.662e+00 9.204e+00 -2.545e-03 -4.234e-03 -5.281e-03
92 1 5.665e+00 5.665e+00 7.433e+00 -4.054e-03 2.661e-04 -6.200e-03
93 1 3.894e+00 5.667e+00 9.203e+00 -2.580e-03 -3.983e-03 -4.291e-03
94 1 9.203e+00 5.667e+00 7.431e+00 -3.732e-03 -2.227e-03 -7.892e-03
95 1 7.433e+00 5.662e+00 9.207e+00 1.785e-03 -5.513e-03 -3.177e-04
96 1 3.500e-01 7.433e+00 7.432e+00 -4.613e-03 -4.848e-03 -6.057e-03
97 1 2.124e+00 9.203e+00 7.433e+00 -1.142e-03 -6.832e-03 -2.085e-03
98 1 2.125e+00 7.435e+00 9.203e+00 -3.047e-03 -6.245e-03 -4.778e-03
99 1 3.526e-01 9.204e+00 9.204e+00 -1.826e-03 -3.754e-03 -4.921e-03
100 1 3.897e+00 7.435e+00 7.431e+00 -1.034e-03 -1.739e-03 -4.635e-03
101 1 5.664e+00 9.202e+00 7.432e+00 -1.633e-04 -2.220e-03 -5.332e-03
102 1 5.661e+00 7.435e+00 9.204e+00 -1.766e-03 -5.687e-03 -2.443e-03
103 1 3.894e+00 9.203e+00 9.205e+00 -1.083e-03 -3.730e-03 -5.699e-03
104 1 7.433e+00 7.435e+00 7.443e+00 -2.453e-03 -1.546e-02 5.345e-03
105 1 9.202e+00 9.203e+00 7.431e+00 -3.850e-03 -3.447e-03 -6.753e-03