ITEM: TIMESTEP
0
ITEM: NUMBER OF ATOMS
32
ITEM: BOX BOUNDS xy xz yz pp pp pp
                     -5.00000000000000e-01 5.00000000000000e-01 0.00000000000000e+00
-5.00000000000000e-01	5.00000000000000e-01	0.00000000000000e+00
-5.00000000000000e-01	5.00000000000000e-01	0.00000000000000e+00
ITEM: ATOMS id type x y z DisplacementX DisplacementY DisplacementZ
1 1 -2.000e-01 2.000e-01 2.000e-01 -3.135e-04 -1.305e-03 -6.016e-04
2 1 -4.000e-01 0.000e+00 0.000e+00 9.086e-04 -2.922e-04 -1.294e-04
3 1 0.000e+00 0.000e+00 2.000e-01 -1.216e-03 1.064e-03 -6.876e-04
4 1 -2.000e-01 0.000e+00 -2.000e-01 -4.341e-04 -6.072e-04 -4.228e-04
5 1 0.000e+00 -2.000e-01 0.000e+00 -1.639e-03 2.401e-04 -5.681e-04
6 1 0.000e+00 -4.000e-01 0.000e+00 -7.676e-04 2.057e-03 -7.343e-04
7 1 -2.000e-01 2.000e-01 -2.000e-01 -7.244e-04 3.968e-04 2.834e-04
8 1 -2.000e-01 -2.000e-01 2.000e-01 -1.318e-03 1.283e-03 -1.221e-03
9 1 4.000e-01 0.000e+00 0.000e+00 2.266e-04 1.605e-03 1.012e-03
10 1 0.000e+00 0.000e+00 0.000e+00 8.258e-04 1.986e-01 -4.926e-04
11 1 -2.000e-01 2.000e-01 0.000e+00 -2.186e-04 3.645e-05 -9.324e-04
12 1 0.000e+00 2.000e-01 -2.000e-01 -3.853e-04 -1.644e-03 2.161e-03
13 1 2.000e-01 -2.000e-01 -2.000e-01 -1.397e-03 -1.908e-04 -1.601e-03
14 1 -2.000e-01 -2.000e-01 0.000e+00 2.761e-04 -8.292e-04 -3.780e-04
15 1 2.000e-01 0.000e+00 2.000e-01 -1.054e-03 5.784e-04 1.115e-03
16 1 -2.000e-01 0.000e+00 0.000e+00 1.856e-03 1.084e-03 -4.798e-04
17 1 2.000e-01 -2.000e-01 0.000e+00 1.289e-03 -2.498e-03 1.698e-04
18 1 2.000e-01 0.000e+00 0.000e+00 1.427e-04 -1.410e-04 -2.993e-04
19 1 2.000e-01 -2.000e-01 2.000e-01 1.031e-03 9.038e-04 1.775e-04
20 1 0.000e+00 2.000e-01 2.000e-01 -1.820e-03 -4.605e-04 1.560e-04
21 1 2.000e-01 2.000e-01 -2.000e-01 1.877e-04 9.477e-04 1.387e-03
22 1 2.000e-01 2.000e-01 2.000e-01 -1.802e-03 -1.864e-04 -8.394e-04
23 1 2.000e-01 0.000e+00 -2.000e-01 -1.518e-03 1.915e-03 6.363e-06
24 1 2.000e-01 2.000e-01 0.000e+00 4.262e-04 -1.181e-03 -1.428e-04
25 1 0.000e+00 0.000e+00 4.000e-01 -1.149e-03 1.490e-03 -5.526e-04
26 1 0.000e+00 0.000e+00 -4.000e-01 -5.356e-04 5.215e-04 1.055e-03
27 1 0.000e+00 -2.000e-01 -2.000e-01 8.789e-05 2.314e-04 7.884e-04
28 1 0.000e+00 0.000e+00 -2.000e-01 4.864e-04 -1.283e-03 2.979e-04
29 1 0.000e+00 -2.000e-01 2.000e-01 2.732e-04 -5.162e-05 -7.790e-04
30 1 -2.000e-01 0.000e+00 2.000e-01 3.383e-04 -3.850e-04 -7.485e-04
31 1 -2.000e-01 -2.000e-01 -2.000e-01 -3.969e-04 1.253e-04 7.697e-04
32 1 0.000e+00 4.000e-01 0.000e+00 2.401e-05 -9.382e-04 -7.145e-04
ITEM: TIMESTEP
0
ITEM: NUMBER OF ATOMS
32
ITEM: BOX BOUNDS xy xz yz pp pp pp
                     -5.00000000000000e-01 5.00000000000000e-01 0.00000000000000e+00
-5.00000000000000e-01	5.00000000000000e-01	0.00000000000000e+00
-5.00000000000000e-01	5.00000000000000e-01	0.00000000000000e+00
ITEM: ATOMS id type x y z DisplacementX DisplacementY DisplacementZ
33 1 2.000e-01 2.000e-01 -2.000e-01 -4.347e-04 -1.301e-03 6.910e-05
34 1 0.000e+00 0.000e+00 2.000e-01 -9.330e-05 -1.052e-03 3.781e-04
35 1 -2.000e-01 -2.000e-01 0.000e+00 -5.325e-04 4.932e-04 1.193e-03
36 1 2.000e-01 -2.000e-01 2.000e-01 -1.002e-04 -6.944e-05 -3.800e-04
37 1 0.000e+00 -2.000e-01 -2.000e-01 1.885e-03 4.470e-04 1.945e-04
38 1 -2.000e-01 2.000e-01 -2.000e-01 -5.963e-04 1.013e-03 2.058e-04
39 1 0.000e+00 0.000e+00 -2.000e-01 -3.617e-04 -5.643e-04 2.962e-04
40 1 0.000e+00 2.000e-01 2.000e-01 -2.703e-04 1.067e-03 2.224e-03
41 1 0.000e+00 2.000e-01 0.000e+00 -1.041e-03 -1.748e-04 -9.088e-04
42 1 2.000e-01 -2.000e-01 0.000e+00 4.323e-04 1.096e-03 -8.662e-04
43 1 0.000e+00 0.000e+00 0.000e+00 2.004e-01 -2.754e-04 4.567e-04
44 1 0.000e+00 4.000e-01 0.000e+00 -1.377e-03 8.167e-04 5.403e-04
45 1 2.000e-01 0.000e+00 -2.000e-01 8.671e-05 -1.571e-03 6.036e-04
46 1 -2.000e-01 -2.000e-01 -2.000e-01 4.178e-04 -4.620e-04 -2.313e-04
47 1 -2.000e-01 -2.000e-01 2.000e-01 -1.488e-03 1.467e-04 -2.927e-05
48 1 0.000e+00 -4.000e-01 0.000e+00 1.253e-03 -9.000e-04 -8.893e-04
49 1 -2.000e-01 2.000e-01 0.000e+00 -9.538e-04 -1.094e-03 -1.290e-03
50 1 0.000e+00 -2.000e-01 0.000e+00 -2.016e-04 -1.914e-03 6.230e-04
51 1 -2.000e-01 0.000e+00 0.000e+00 -1.082e-03 -8.807e-04 -9.188e-04
52 1 2.000e-01 0.000e+00 2.000e-01 1.006e-03 -1.006e-03 1.011e-03
53 1 -2.000e-01 0.000e+00 2.000e-01 -1.183e-03 1.184e-03 -3.561e-04
54 1 0.000e+00 0.000e+00 4.000e-01 1.846e-03 2.916e-04 -1.806e-03
55 1 4.000e-01 0.000e+00 0.000e+00 1.642e-03 7.509e-04 2.308e-04
56 1 -4.000e-01 0.000e+00 0.000e+00 -4.625e-04 -4.242e-04 -1.793e-03
57 1 -2.000e-01 0.000e+00 -2.000e-01 8.047e-04 1.991e-05 -1.536e-04
58 1 0.000e+00 2.000e-01 -2.000e-01 -1.740e-03 -9.047e-04 1.442e-03
59 1 -2.000e-01 2.000e-01 2.000e-01 -6.453e-04 -2.934e-04 5.535e-04
60 1 0.000e+00 0.000e+00 -4.000e-01 1.694e-03 -2.237e-03 7.719e-04
61 1 2.000e-01 -2.000e-01 -2.000e-01 4.771e-04 -3.590e-04 7.860e-04
62 1 2.000e-01 2.000e-01 2.000e-01 -9.965e-04 -1.266e-03 1.402e-04
63 1 0.000e+00 -2.000e-01 2.000e-01 3.852e-04 1.161e-03 -3.510e-04
64 1 2.000e-01 2.000e-01 0.000e+00 -3.934e-05 1.658e-04 1.477e-03
ITEM: TIMESTEP
0
ITEM: NUMBER OF ATOMS
32
ITEM: BOX BOUNDS xy xz yz pp pp pp
                     -5.00000000000000e-01 5.00000000000000e-01 0.00000000000000e+00
-5.00000000000000e-01	5.00000000000000e-01	0.00000000000000e+00
-5.00000000000000e-01	5.00000000000000e-01	0.00000000000000e+00
ITEM: ATOMS id type x y z DisplacementX DisplacementY DisplacementZ
65 1 0.000e+00 2.000e-01 0.000e+00 9.067e-04 1.328e-03 9.556e-04
66 1 -2.000e-01 -2.000e-01 0.000e+00 -2.027e-03 1.105e-03 4.067e-04
67 1 0.000e+00 0.000e+00 -2.000e-01 3.412e-04 2.818e-04 1.696e-03
68 1 -2.000e-01 2.000e-01 -2.000e-01 -5.535e-04 -6.171e-04 2.087e-03
69 1 2.000e-01 2.000e-01 0.000e+00 4.798e-04 -8.980e-04 1.559e-04
70 1 2.000e-01 2.000e-01 -2.000e-01 -2.955e-04 5.859e-04 -1.361e-03
71 1 -2.000e-01 0.000e+00 0.000e+00 5.603e-04 -1.766e-04 -5.307e-04
72 1 -2.000e-01 2.000e-01 2.000e-01 1.077e-03 -4.847e-04 -5.086e-04
73 1 0.000e+00 -2.000e-01 2.000e-01 -1.761e-03 -8.267e-04 1.268e-03
74 1 2.000e-01 -2.000e-01 -2.000e-01 7.158e-04 8.170e-04 4.617e-04
75 1 -2.000e-01 0.000e+00 2.000e-01 -2.840e-04 -1.673e-03 1.262e-03
76 1 2.000e-01 2.000e-01 2.000e-01 7.858e-04 -2.428e-03 -4.186e-04
77 1 0.000e+00 0.000e+00 0.000e+00 -3.471e-04 1.857e-04 1.998e-01
78 1 0.000e+00 0.000e+00 -4.000e-01 1.039e-03 -9.055e-04 -2.000e-04
79 1 4.000e-01 0.000e+00 0.000e+00 1.085e-03 -4.560e-04 -4.044e-04
80 1 -2.000e-01 -2.000e-01 2.000e-01 4.398e-04 -2.528e-04 7.995e-04
81 1 2.000e-01 -2.000e-01 2.000e-01 -9.746e-04 1.340e-03 6.002e-04
82 1 0.000e+00 0.000e+00 4.000e-01 9.209e-04 6.340e-04 -1.288e-03
83 1 2.000e-01 0.000e+00 0.000e+00 7.898e-05 -1.020e-03 -5.223e-04
84 1 2.000e-01 -2.000e-01 0.000e+00 1.863e-04 -1.512e-03 2.209e-04
85 1 2.000e-01 0.000e+00 2.000e-01 6.855e-04 1.172e-03 1.588e-04
86 1 -2.000e-01 -2.000e-01 -2.000e-01 -2.028e-04 6.244e-04 -4.230e-04
87 1 -4.000e-01 0.000e+00 0.000e+00 -8.023e-04 -1.283e-03 2.030e-04
88 1 0.000e+00 -2.000e-01 -2.000e-01 -4.847e-04 1.523e-04 -4.121e-04
89 1 -2.000e-01 2.000e-01 0.000e+00 1.506e-03 2.068e-03 -6.932e-04
90 1 -2.000e-01 0.000e+00 -2.000e-01 1.753e-04 -6.374e-04 -3.440e-04
91 1 0.000e+00 -4.000e-01 0.000e+00 1.886e-03 -1.405e-03 3.647e-04
92 1 0.000e+00 2.000e-01 -2.000e-01 2.004e-04 2.942e-03 7.464e-04
93 1 0.000e+00 -2.000e-01 0.000e+00 2.498e-03 7.948e-04 -7.333e-04
94 1 2.000e-01 0.000e+00 -2.000e-01 4.704e-04 4.548e-04 8.637e-04
95 1 0.000e+00 4.000e-01 0.000e+00 2.389e-04 2.222e-03 -1.232e-03
96 1 0.000e+00 2.000e-01 2.000e-01 1.219e-04 5.141e-05 -4.408e-04
ITEM: TIMESTEP
0
ITEM: NUMBER OF ATOMS
32
ITEM: BOX BOUNDS xy xz yz pp pp pp
                     -5.00000000000000e-01 5.00000000000000e-01 0.00000000000000e+00
-5.00000000000000e-01	5.00000000000000e-01	0.00000000000000e+00
-5.00000000000000e-01	5.00000000000000e-01	0.00000000000000e+00
ITEM: ATOMS id type x y z DisplacementX DisplacementY DisplacementZ
97 1 -2.000e-01 0.000e+00 0.000e+00 2.648e-03 2.222e-03 -1.950e-04
98 1 0.000e+00 -2.000e-01 0.000e+00 1.319e-04 7.303e-04 7.183e-04
99 1 0.000e+00 0.000e+00 4.000e-01 -3.786e-04 1.055e-03 4.748e-04
100 1 -2.000e-01 2.000e-01 2.000e-01 -6.096e-04 1.697e-04 -1.410e-03
101 1 -2.000e-01 2.000e-01 0.000e+00 3.290e-04 -2.363e-04 -2.622e-04
102 1 -2.000e-01 2.000e-01 -2.000e-01 1.108e-03 7.902e-04 -3.760e-05
103 1 0.000e+00 -2.000e-01 -2.000e-01 -4.895e-04 -1.033e-03 -5.810e-04
104 1 -2.000e-01 0.000e+00 -2.000e-01 -5.075e-04 -3.902e-04 3.040e-05
105 1 2.000e-01 2.000e-01 -2.000e-01 1.167e-03 -1.083e-03 4.612e-04
106 1 0.000e+00 0.000e+00 -4.000e-01 -1.097e-03 -2.233e-04 -6.377e-04
107 1 -2.000e-01 -2.000e-01 2.000e-01 5.114e-05 -1.077e-03 3.219e-04
108 1 2.000e-01 -2.000e-01 2.000e-01 3.051e-04 1.851e-03 1.054e-03
109 1 0.000e+00 0.000e+00 2.000e-01 -3.606e-04 -1.225e-03 4.188e-04
110 1 2.000e-01 -2.000e-01 0.000e+00 6.225e-04 7.829e-04 4.861e-04
111 1 2.000e-01 2.000e-01 2.000e-01 1.048e-03 -6.130e-05 -4.041e-04
112 1 -2.000e-01 -2.000e-01 -2.000e-01 7.176e-04 -1.062e-03 4.649e-04
113 1 2.000e-01 -2.000e-01 -2.000e-01 1.407e-04 -1.872e-03 5.098e-04
114 1 0.000e+00 0.000e+00 0.000e+00 -1.013e-03 9.360e-04 -1.995e-01
115 1 2.000e-01 0.000e+00 0.000e+00 7.570e-04 -1.105e-03 4.992e-04
116 1 -4.000e-01 0.000e+00 0.000e+00 -1.224e-03 3.326e-04 3.303e-04
117 1 -2.000e-01 0.000e+00 2.000e-01 1.863e-05 5.625e-04 -7.339e-04
118 1 2.000e-01 0.000e+00 -2.000e-01 -4.205e-04 7.468e-05 -9.239e-04
119 1 0.000e+00 -2.000e-01 2.000e-01 -7.544e-04 -2.801e-04 1.315e-03
120 1 0.000e+00 2.000e-01 2.000e-01 4.280e-04 3.547e-04 3.568e-04
121 1 0.000e+00 2.000e-01 0.000e+00 -1.267e-03 -2.378e-04 2.158e-04
122 1 2.000e-01 0.000e+00 2.000e-01 -1.553e-03 -1.094e-03 8.860e-04
123 1 4.000e-01 0.000e+00 0.000e+00 -1.540e-03 1.301e-03 -5.706e-04
124 1 0.000e+00 -4.000e-01 0.000e+00 1.314e-03 2.899e-04 -3.541e-04
125 1 0.000e+00 4.000e-01 0.000e+00 1.611e-03 1.282e-03 -3.987e-04
126 1 -2.000e-01 -2.000e-01 0.000e+00 6.824e-04 8.510e-04 6.968e-04
127 1 2.000e-01 2.000e-01 0.000e+00 -1.331e-03 1.251e-03 -2.327e-04
128 1 0.000e+00 2.000e-01 -2.000e-01 -7.860e-05 2.292e-03 -7.936e-04
ITEM: TIMESTEP
0
ITEM: NUMBER OF ATOMS
32
ITEM: BOX BOUNDS xy xz yz pp pp pp
                     -5.00000000000000e-01 5.00000000000000e-01 0.00000000000000e+00
-5.00000000000000e-01	5.00000000000000e-01	0.00000000000000e+00
-5.00000000000000e-01	5.00000000000000e-01	0.00000000000000e+00
ITEM: ATOMS id type x y z DisplacementX DisplacementY DisplacementZ
129 1 -2.000e-01 2.000e-01 -2.000e-01 1.513e-03 -7.439e-04 -1.268e-03
130 1 -2.000e-01 -2.000e-01 2.000e-01 7.254e-04 -4.760e-04 -6.562e-04
131 1 0.000e+00 4.000e-01 0.000e+00 7.613e-04 -1.930e-03 -7.573e-04
132 1 0.000e+00 2.000e-01 -2.000e-01 -1.501e-03 1.720e-03 -1.028e-04
133 1 2.000e-01 -2.000e-01 0.000e+00 1.284e-03 -2.669e-04 -1.268e-03
134 1 -2.000e-01 -2.000e-01 0.000e+00 -8.976e-04 -1.417e-03 -1.018e-03
135 1 -4.000e-01 0.000e+00 0.000e+00 2.355e-04 6.070e-04 -4.961e-04
136 1 0.000e+00 2.000e-01 0.000e+00 8.115e-04 -4.789e-04 3.146e-04
137 1 -2.000e-01 0.000e+00 -2.000e-01 6.422e-04 -7.336e-04 -1.732e-03
138 1 0.000e+00 -2.000e-01 2.000e-01 -9.888e-05 -1.335e-04 -1.123e-03
139 1 2.000e-01 2.000e-01 -2.000e-01 -6.869e-04 -1.044e-03 -6.593e-04
140 1 2.000e-01 -2.000e-01 2.000e-01 -1.841e-04 1.490e-03 1.053e-03
141 1 2.000e-01 0.000e+00 -2.000e-01 -1.763e-04 -1.403e-03 9.341e-04
142 1 4.000e-01 0.000e+00 0.000e+00 9.424e-04 3.105e-04 7.763e-04
143 1 2.000e-01 2.000e-01 2.000e-01 1.841e-05 -9.858e-04 2.941e-04
144 1 0.000e+00 -4.000e-01 0.000e+00 2.653e-03 -6.306e-04 3.103e-04
145 1 2.000e-01 -2.000e-01 -2.000e-01 -2.062e-03 2.103e-03 -2.571e-04
146 1 0.000e+00 -2.000e-01 0.000e+00 5.744e-04 6.847e-04 1.431e-03
147 1 -2.000e-01 0.000e+00 2.000e-01 9.444e-04 1.590e-03 3.368e-04
148 1 0.000e+00 0.000e+00 -2.000e-01 7.193e-04 -1.381e-03 -4.933e-04
149 1 0.000e+00 0.000e+00 2.000e-01 -2.639e-04 -1.046e-04 -1.292e-05
150 1 0.000e+00 -2.000e-01 -2.000e-01 -8.044e-04 -7.388e-04 4.170e-04
151 1 0.000e+00 0.000e+00 0.000e+00 -1.990e-01 -3.645e-04 -5.179e-04
152 1 2.000e-01 0.000e+00 0.000e+00 1.418e-04 -6.530e-04 5.191e-04
153 1 2.000e-01 2.000e-01 0.000e+00 3.437e-04 3.979e-04 -1.085e-03
154 1 -2.000e-01 -2.000e-01 -2.000e-01 -1.171e-05 -7.254e-04 -1.017e-03
155 1 0.000e+00 0.000e+00 -4.000e-01 8.437e-04 -1.323e-03 1.812e-03
156 1 -2.000e-01 2.000e-01 2.000e-01 -1.723e-03 -7.243e-04 4.707e-04
157 1 0.000e+00 0.000e+00 4.000e-01 1.486e-03 -1.499e-03 -7.144e-04
158 1 2.000e-01 0.000e+00 2.000e-01 -4.638e-04 -6.852e-04 -1.850e-03
159 1 0.000e+00 2.000e-01 2.000e-01 -3.770e-04 2.940e-03 -1.143e-03
160 1 -2.000e-01 2.000e-01 0.000e+00 1.187e-04 -8.726e-04 3.823e-04
ITEM: TIMESTEP
0
ITEM: NUMBER OF ATOMS
32
ITEM: BOX BOUNDS xy xz yz pp pp pp
                     -5.00000000000000e-01 5.00000000000000e-01 0.00000000000000e+00
-5.00000000000000e-01	5.00000000000000e-01	0.00000000000000e+00
-5.00000000000000e-01	5.00000000000000e-01	0.00000000000000e+00
ITEM: ATOMS id type x y z DisplacementX DisplacementY DisplacementZ
161 1 0.000e+00 0.000e+00 -2.000e-01 6.520e-04 -4.595e-04 -1.846e-04
162 1 -2.000e-01 -2.000e-01 2.000e-01 -6.150e-04 -1.154e-03 -8.985e-04
163 1 0.000e+00 4.000e-01 0.000e+00 8.129e-04 5.800e-04 2.688e-03
164 1 2.000e-01 2.000e-01 2.000e-01 -9.149e-04 4.798e-04 -5.713e-04
165 1 2.000e-01 2.000e-01 -2.000e-01 -3.412e-04 5.897e-04 1.214e-03
166 1 2.000e-01 2.000e-01 0.000e+00 1.896e-04 -9.913e-04 -1.153e-03
167 1 0.000e+00 2.000e-01 0.000e+00 8.549e-04 -3.968e-04 3.988e-05
168 1 2.000e-01 0.000e+00 -2.000e-01 8.913e-04 -1.465e-03 -3.565e-04
169 1 -2.000e-01 -2.000e-01 -2.000e-01 -7.980e-05 1.670e-03 -1.854e-03
170 1 -2.000e-01 0.000e+00 2.000e-01 1.590e-03 -3.172e-04 6.368e-04
171 1 -2.000e-01 0.000e+00 0.000e+00 8.257e-05 -1.027e-03 -5.410e-04
172 1 -2.000e-01 2.000e-01 2.000e-01 -8.552e-04 3.254e-04 -1.187e-03
173 1 0.000e+00 -4.000e-01 0.000e+00 9.564e-04 -4.174e-04 -4.452e-04
174 1 -2.000e-01 -2.000e-01 0.000e+00 1.215e-03 1.706e-04 -8.536e-04
175 1 -2.000e-01 2.000e-01 0.000e+00 8.342e-04 1.952e-05 1.013e-03
176 1 2.000e-01 0.000e+00 0.000e+00 -2.026e-03 -3.198e-04 1.481e-03
177 1 0.000e+00 -2.000e-01 -2.000e-01 -1.540e-03 -2.400e-03 -4.998e-04
178 1 -4.000e-01 0.000e+00 0.000e+00 -3.222e-04 -3.960e-04 -2.821e-04
179 1 0.000e+00 -2.000e-01 2.000e-01 3.111e-05 -2.133e-04 -3.929e-04
180 1 2.000e-01 -2.000e-01 -2.000e-01 -1.174e-04 1.579e-03 -1.609e-03
181 1 2.000e-01 -2.000e-01 2.000e-01 9.457e-04 9.204e-04 -9.730e-05
182 1 2.000e-01 -2.000e-01 0.000e+00 -1.767e-03 -2.349e-04 -2.662e-03
183 1 4.000e-01 0.000e+00 0.000e+00 1.637e-03 6.174e-04 1.448e-04
184 1 -2.000e-01 2.000e-01 -2.000e-01 1.122e-03 5.077e-04 -1.657e-04
185 1 -2.000e-01 0.000e+00 -2.000e-01 -1.826e-03 1.076e-03 4.047e-04
186 1 0.000e+00 0.000e+00 -4.000e-01 -1.441e-03 -6.310e-04 -1.261e-03
187 1 0.000e+00 0.000e+00 4.000e-01 -5.531e-04 -1.822e-04 8.056e-05
188 1 0.000e+00 0.000e+00 2.000e-01 -1.002e-03 -3.100e-04 -3.095e-04
189 1 0.000e+00 2.000e-01 2.000e-01 1.907e-04 1.138e-03 1.236e-04
190 1 0.000e+00 2.000e-01 -2.000e-01 -1.770e-03 9.910e-04 3.201e-04
191 1 2.000e-01 0.000e+00 2.000e-01 4.176e-04 8.369e-04 1.640e-03
192 1 0.000e+00 0.000e+00 0.000e+00 -1.541e-03 -2.010e-01 -1.086e-03
ITEM: TIMESTEP
0
ITEM: NUMBER OF ATOMS
32
ITEM: BOX BOUNDS xy xz yz pp pp pp
                     -5.00000000000000e-01 5.00000000000000e-01 0.00000000000000e+00
-5.00000000000000e-01	5.00000000000000e-01	0.00000000000000e+00
-5.00000000000000e-01	5.00000000000000e-01	0.00000000000000e+00
ITEM: ATOMS id type x y z DisplacementX DisplacementY DisplacementZ
193 1 0.000e+00 -2.000e-01 0.000e+00 -9.044e-04 -4.008e-04 1.943e-03
194 1 -2.000e-01 -2.000e-01 0.000e+00 8.028e-04 2.996e-04 -4.296e-04
195 1 2.000e-01 -2.000e-01 0.000e+00 -7.120e-05 -8.517e-04 -2.163e-04
196 1 0.000e+00 0.000e+00 0.000e+00 5.871e-04 2.011e-01 6.458e-05
197 1 -2.000e-01 2.000e-01 -2.000e-01 1.958e-03 -2.769e-04 -4.125e-04
198 1 0.000e+00 -4.000e-01 0.000e+00 8.599e-04 -1.239e-03 -5.765e-04
199 1 4.000e-01 0.000e+00 0.000e+00 -4.385e-05 -1.028e-03 -8.868e-04
200 1 -2.000e-01 2.000e-01 2.000e-01 2.136e-03 3.398e-03 -1.170e-03
201 1 2.000e-01 0.000e+00 -2.000e-01 8.216e-04 -1.478e-04 -1.684e-03
202 1 -2.000e-01 0.000e+00 -2.000e-01 -6.600e-04 7.194e-04 4.467e-04
203 1 0.000e+00 2.000e-01 -2.000e-01 1.028e-03 6.008e-04 5.974e-04
204 1 2.000e-01 2.000e-01 -2.000e-01 -2.656e-04 -2.400e-03 -1.843e-04
205 1 2.000e-01 2.000e-01 2.000e-01 3.620e-04 -1.177e-03 -1.566e-03
206 1 2.000e-01 -2.000e-01 2.000e-01 -6.741e-05 -1.683e-04 5.532e-04
207 1 2.000e-01 0.000e+00 0.000e+00 1.048e-03 -9.278e-04 -8.792e-04
208 1 -2.000e-01 0.000e+00 0.000e+00 -1.007e-03 9.972e-04 -6.106e-04
209 1 2.000e-01 2.000e-01 0.000e+00 1.309e-03 -4.166e-04 -7.448e-04
210 1 0.000e+00 -2.000e-01 -2.000e-01 6.664e-04 1.197e-03 3.373e-04
211 1 0.000e+00 -2.000e-01 2.000e-01 -3.203e-04 -4.486e-04 1.421e-03
212 1 0.000e+00 4.000e-01 0.000e+00 -2.038e-03 1.575e-03 -3.023e-03
213 1 -2.000e-01 2.000e-01 0.000e+00 -1.688e-03 -1.041e-03 5.923e-04
214 1 0.000e+00 0.000e+00 -2.000e-01 -5.423e-04 7.537e-04 5.299e-05
215 1 -2.000e-01 -2.000e-01 -2.000e-01 -9.218e-04 1.284e-03 -8.498e-04
216 1 2.000e-01 0.000e+00 2.000e-01 6.602e-04 -1.831e-03 -2.444e-04
217 1 0.000e+00 0.000e+00 4.000e-01 -5.533e-04 -1.313e-03 -2.185e-04
218 1 0.000e+00 2.000e-01 2.000e-01 -1.781e-03 7.735e-04 -2.152e-04
219 1 0.000e+00 0.000e+00 -4.000e-01 -9.264e-04 -2.463e-03 8.179e-05
220 1 -4.000e-01 0.000e+00 0.000e+00 -6.581e-04 -2.904e-04 2.530e-04
221 1 0.000e+00 0.000e+00 2.000e-01 2.084e-03 1.844e-03 -4.033e-04
222 1 -2.000e-01 0.000e+00 2.000e-01 -8.014e-04 6.255e-04 2.109e-04
223 1 2.000e-01 -2.000e-01 -2.000e-01 8.760e-04 -1.173e-03 4.975e-04
224 1 -2.000e-01 -2.000e-01 2.000e-01 5.803e-04 2.484e-04 -1.304e-04
ITEM: TIMESTEP
0
ITEM: NUMBER OF ATOMS
32
ITEM: BOX BOUNDS xy xz yz pp pp pp
                     -5.00000000000000e-01 5.00000000000000e-01 0.00000000000000e+00
-5.00000000000000e-01	5.00000000000000e-01	0.00000000000000e+00
-5.00000000000000e-01	5.00000000000000e-01	0.00000000000000e+00
ITEM: ATOMS id type x y z DisplacementX DisplacementY DisplacementZ
225 1 4.000e-01 0.000e+00 0.000e+00 7.044e-04 9.423e-04 -1.168e-03
226 1 0.000e+00 -2.000e-01 2.000e-01 1.141e-03 -1.219e-04 1.653e-03
227 1 -2.000e-01 0.000e+00 0.000e+00 2.072e-04 -4.960e-04 8.174e-04
228 1 2.000e-01 2.000e-01 2.000e-01 1.119e-03 -1.504e-03 1.058e-03
229 1 2.000e-01 -2.000e-01 -2.000e-01 -6.626e-05 -1.312e-04 -1.395e-03
230 1 2.000e-01 0.000e+00 -2.000e-01 9.693e-04 1.769e-03 -1.699e-03
231 1 0.000e+00 2.000e-01 0.000e+00 -1.590e-03 1.771e-03 -1.474e-03
232 1 -2.000e-01 2.000e-01 -2.000e-01 1.983e-03 5.419e-04 4.578e-05
233 1 2.000e-01 -2.000e-01 0.000e+00 1.519e-03 -5.797e-04 1.190e-03
234 1 -2.000e-01 -2.000e-01 0.000e+00 8.805e-04 1.008e-03 9.454e-04
235 1 0.000e+00 0.000e+00 0.000e+00 7.588e-04 1.506e-04 2.006e-01
236 1 2.000e-01 0.000e+00 0.000e+00 -1.453e-03 1.344e-03 -1.428e-03
237 1 -4.000e-01 0.000e+00 0.000e+00 3.569e-04 5.189e-04 3.228e-04
238 1 2.000e-01 -2.000e-01 2.000e-01 -7.169e-04 -1.679e-03 -1.008e-03
239 1 0.000e+00 4.000e-01 0.000e+00 -2.601e-05 -1.736e-04 1.873e-03
240 1 -2.000e-01 2.000e-01 2.000e-01 -2.244e-04 2.856e-03 2.517e-04
241 1 -2.000e-01 -2.000e-01 2.000e-01 -6.546e-04 -1.052e-03 1.104e-03
242 1 2.000e-01 0.000e+00 2.000e-01 -5.961e-04 -5.561e-04 8.175e-05
243 1 2.000e-01 2.000e-01 -2.000e-01 2.104e-03 -1.180e-03 -6.833e-04
244 1 0.000e+00 -4.000e-01 0.000e+00 1.423e-03 -1.063e-04 -3.126e-04
245 1 0.000e+00 0.000e+00 -2.000e-01 -2.056e-04 -2.569e-04 -2.213e-03
246 1 -2.000e-01 -2.000e-01 -2.000e-01 1.442e-03 1.269e-03 9.496e-04
247 1 -2.000e-01 2.000e-01 0.000e+00 1.862e-03 -5.289e-04 -5.387e-04
248 1 0.000e+00 2.000e-01 2.000e-01 -1.296e-04 -1.570e-03 -2.328e-03
249 1 0.000e+00 0.000e+00 -4.000e-01 -1.083e-03 -5.864e-04 6.312e-04
250 1 -2.000e-01 0.000e+00 2.000e-01 -1.821e-03 -3.034e-05 -3.558e-05
251 1 0.000e+00 -2.000e-01 0.000e+00 -1.435e-03 -9.292e-04 4.574e-04
252 1 0.000e+00 0.000e+00 4.000e-01 -2.140e-03 -1.175e-03 -5.609e-04
253 1 0.000e+00 -2.000e-01 -2.000e-01 -2.807e-04 -1.134e-03 -4.308e-05
254 1 2.000e-01 2.000e-01 0.000e+00 -2.126e-03 7.665e-04 -2.456e-05
255 1 0.000e+00 2.000e-01 -2.000e-01 -4.313e-04 5.052e-04 -1.764e-03
256 1 -2.000e-01 0.000e+00 -2.000e-01 -4.525e-04 1.690e-04 5.438e-04
ITEM: TIMESTEP
0
ITEM: NUMBER OF ATOMS
32
ITEM: BOX BOUNDS xy xz yz pp pp pp
                     -5.00000000000000e-01 5.00000000000000e-01 0.00000000000000e+00
-5.00000000000000e-01	5.00000000000000e-01	0.00000000000000e+00
-5.00000000000000e-01	5.00000000000000e-01	0.00000000000000e+00
ITEM: ATOMS id type x y z DisplacementX DisplacementY DisplacementZ
257 1 2.000e-01 0.000e+00 -2.000e-01 1.285e-03 -1.251e-04 -4.413e-04
258 1 2.000e-01 0.000e+00 0.000e+00 1.525e-04 -2.844e-04 4.010e-04
259 1 0.000e+00 -4.000e-01 0.000e+00 2.392e-04 -6.945e-04 -6.517e-04
260 1 -2.000e-01 -2.000e-01 0.000e+00 1.094e-03 1.684e-03 4.298e-04
261 1 4.000e-01 0.000e+00 0.000e+00 -5.357e-04 8.949e-04 -1.781e-04
262 1 -2.000e-01 2.000e-01 2.000e-01 1.058e-03 -3.119e-04 1.187e-03
263 1 0.000e+00 2.000e-01 0.000e+00 -4.080e-04 6.871e-04 -3.292e-04
264 1 0.000e+00 0.000e+00 -4.000e-01 -1.642e-04 -1.304e-03 -5.317e-04
265 1 2.000e-01 -2.000e-01 0.000e+00 1.659e-04 -9.614e-04 4.645e-04
266 1 -2.000e-01 2.000e-01 -2.000e-01 -2.013e-03 4.822e-05 -4.287e-04
267 1 0.000e+00 -2.000e-01 -2.000e-01 -3.494e-05 9.322e-04 -5.440e-04
268 1 2.000e-01 0.000e+00 2.000e-01 -5.546e-04 1.813e-03 -1.249e-03
269 1 2.000e-01 -2.000e-01 -2.000e-01 -3.592e-04 1.593e-03 6.164e-04
270 1 -2.000e-01 0.000e+00 -2.000e-01 7.954e-04 4.834e-04 -2.919e-04
271 1 0.000e+00 0.000e+00 -2.000e-01 -9.680e-04 -2.038e-03 7.316e-04
272 1 0.000e+00 0.000e+00 2.000e-01 4.884e-04 2.023e-03 1.008e-03
273 1 0.000e+00 -2.000e-01 0.000e+00 8.658e-04 1.166e-04 -6.802e-04
274 1 2.000e-01 -2.000e-01 2.000e-01 -8.510e-05 1.044e-03 -4.096e-05
275 1 0.000e+00 0.000e+00 0.000e+00 -2.002e-01 5.929e-04 1.024e-03
276 1 2.000e-01 2.000e-01 2.000e-01 -2.322e-04 -8.036e-04 1.373e-03
277 1 0.000e+00 2.000e-01 2.000e-01 -2.030e-03 -6.515e-04 9.996e-04
278 1 -2.000e-01 2.000e-01 0.000e+00 1.976e-03 -1.491e-03 -6.082e-04
279 1 -4.000e-01 0.000e+00 0.000e+00 -7.080e-04 -3.174e-05 -9.032e-05
280 1 -2.000e-01 -2.000e-01 -2.000e-01 -9.294e-04 -5.096e-06 -9.000e-06
281 1 0.000e+00 -2.000e-01 2.000e-01 1.258e-03 9.027e-05 4.465e-04
282 1 -2.000e-01 0.000e+00 2.000e-01 1.959e-04 -5.239e-04 4.915e-04
283 1 2.000e-01 2.000e-01 -2.000e-01 -1.545e-03 5.968e-04 1.443e-03
284 1 -2.000e-01 -2.000e-01 2.000e-01 -1.716e-03 2.394e-04 -6.007e-05
285 1 2.000e-01 2.000e-01 0.000e+00 -2.645e-04 -2.051e-04 6.204e-04
286 1 0.000e+00 2.000e-01 -2.000e-01 1.802e-05 -1.254e-03 -1.125e-03
287 1 0.000e+00 4.000e-01 0.000e+00 6.364e-04 7.088e-04 1.501e-03
288 1 0.000e+00 0.000e+00 4.000e-01 8.880e-04 9.657e-04 2.468e-04
ITEM: TIMESTEP
0
ITEM: NUMBER OF ATOMS
32
ITEM: BOX BOUNDS xy xz yz pp pp pp
                     -5.00000000000000e-01 5.00000000000000e-01 0.00000000000000e+00
-5.00000000000000e-01	5.00000000000000e-01	0.00000000000000e+00
-5.00000000000000e-01	5.00000000000000e-01	0.00000000000000e+00
ITEM: ATOMS id type x y z DisplacementX DisplacementY DisplacementZ
289 1 0.000e+00 4.000e-01 0.000e+00 -6.903e-04 -2.107e-03 1.489e-03
290 1 0.000e+00 -4.000e-01 0.000e+00 -1.720e-04 1.162e-05 -5.074e-04
291 1 -2.000e-01 -2.000e-01 -2.000e-01 -1.411e-03 -9.474e-04 -1.473e-03
292 1 0.000e+00 0.000e+00 2.000e-01 -9.450e-04 -6.370e-04 9.902e-05
293 1 0.000e+00 2.000e-01 0.000e+00 -9.015e-04 2.056e-04 -1.208e-03
294 1 2.000e-01 0.000e+00 0.000e+00 1.301e-03 5.436e-04 -1.638e-03
295 1 0.000e+00 0.000e+00 -2.000e-01 -4.679e-06 5.108e-04 5.040e-04
296 1 -2.000e-01 -2.000e-01 2.000e-01 -1.454e-03 -3.478e-04 -8.680e-04
297 1 0.000e+00 2.000e-01 2.000e-01 2.975e-04 -8.624e-04 9.697e-04
298 1 0.000e+00 -2.000e-01 -2.000e-01 -7.381e-04 3.266e-05 -1.192e-03
299 1 2.000e-01 -2.000e-01 -2.000e-01 7.792e-04 6.060e-04 -8.854e-04
300 1 2.000e-01 -2.000e-01 2.000e-01 2.946e-04 1.555e-03 9.550e-04
301 1 0.000e+00 2.000e-01 -2.000e-01 6.567e-04 -1.841e-03 2.293e-05
302 1 -2.000e-01 0.000e+00 0.000e+00 3.430e-04 -5.966e-04 -1.390e-04
303 1 2.000e-01 -2.000e-01 0.000e+00 -7.680e-04 -8.804e-04 3.971e-04
304 1 2.000e-01 0.000e+00 2.000e-01 -9.727e-04 2.126e-04 -2.131e-04
305 1 2.000e-01 2.000e-01 -2.000e-01 9.325e-05 1.511e-03 8.852e-04
306 1 2.000e-01 2.000e-01 2.000e-01 -3.845e-04 -4.797e-04 -2.804e-03
307 1 -2.000e-01 0.000e+00 -2.000e-01 9.852e-04 -3.657e-04 1.450e-03
308 1 0.000e+00 0.000e+00 0.000e+00 1.939e-03 -2.002e-01 7.094e-05
309 1 -2.000e-01 2.000e-01 0.000e+00 -2.546e-04 -7.195e-04 -1.395e-03
310 1 -2.000e-01 -2.000e-01 0.000e+00 1.600e-03 -1.580e-03 4.712e-04
311 1 -2.000e-01 0.000e+00 2.000e-01 8.425e-04 6.749e-04 5.927e-04
312 1 0.000e+00 0.000e+00 4.000e-01 1.343e-03 -2.917e-04 1.891e-04
313 1 -2.000e-01 2.000e-01 -2.000e-01 -1.097e-03 1.416e-03 -1.040e-03
314 1 0.000e+00 -2.000e-01 2.000e-01 4.004e-04 -1.435e-03 6.130e-05
315 1 4.000e-01 0.000e+00 0.000e+00 1.178e-03 9.593e-04 6.512e-06
316 1 2.000e-01 0.000e+00 -2.000e-01 -5.254e-04 4.916e-04 1.199e-03
317 1 -2.000e-01 2.000e-01 2.000e-01 -1.433e-03 -1.355e-03 -2.113e-03
318 1 0.000e+00 0.000e+00 -4.000e-01 -2.079e-04 2.166e-03 1.351e-03
319 1 2.000e-01 2.000e-01 0.000e+00 1.000e-03 1.742e-03 1.419e-03
320 1 -4.000e-01 0.000e+00 0.000e+00 2.698e-04 -8.101e-04 8.607e-04
ITEM: TIMESTEP
0
ITEM: NUMBER OF ATOMS
32
ITEM: BOX BOUNDS xy xz yz pp pp pp
                     -5.00000000000000e-01 5.00000000000000e-01 0.00000000000000e+00
-5.00000000000000e-01	5.00000000000000e-01	0.00000000000000e+00
-5.00000000000000e-01	5.00000000000000e-01	0.00000000000000e+00
ITEM: ATOMS id type x y z DisplacementX DisplacementY DisplacementZ
321 1 0.000e+00 -4.000e-01 0.000e+00 1.050e-03 1.344e-03 3.894e-04
322 1 -4.000e-01 0.000e+00 0.000e+00 1.638e-05 -1.119e-03 -3.064e-04
323 1 2.000e-01 -2.000e-01 0.000e+00 -7.760e-04 -1.535e-03 3.804e-04
324 1 0.000e+00 0.000e+00 -2.000e-01 -9.414e-04 -9.042e-05 6.260e-04
325 1 -2.000e-01 0.000e+00 0.000e+00 1.577e-03 6.889e-04 -1.333e-03
326 1 2.000e-01 2.000e-01 2.000e-01 -7.045e-05 -3.159e-04 6.439e-05
327 1 2.000e-01 2.000e-01 -2.000e-01 9.104e-05 -1.439e-03 2.946e-04
328 1 0.000e+00 0.000e+00 2.000e-01 -6.603e-04 1.562e-03 -3.174e-03
329 1 -2.000e-01 0.000e+00 2.000e-01 5.133e-05 1.170e-03 2.247e-03
330 1 0.000e+00 -2.000e-01 -2.000e-01 -1.291e-03 -5.123e-04 4.065e-04
331 1 2.000e-01 0.000e+00 -2.000e-01 -6.365e-04 1.001e-03 1.073e-04
332 1 -2.000e-01 0.000e+00 -2.000e-01 -2.065e-03 -1.436e-03 1.484e-04
333 1 -2.000e-01 -2.000e-01 -2.000e-01 -1.585e-03 1.147e-03 4.097e-04
334 1 0.000e+00 0.000e+00 4.000e-01 1.136e-03 -1.426e-04 4.019e-04
335 1 -2.000e-01 -2.000e-01 2.000e-01 9.194e-05 4.825e-04 -9.517e-04
336 1 0.000e+00 2.000e-01 0.000e+00 -1.367e-03 -3.018e-04 4.807e-04
337 1 0.000e+00 -2.000e-01 0.000e+00 6.196e-04 -1.691e-04 1.232e-04
338 1 4.000e-01 0.000e+00 0.000e+00 4.317e-04 2.280e-03 -6.564e-04
339 1 -2.000e-01 2.000e-01 2.000e-01 2.158e-03 -2.354e-06 -2.924e-04
340 1 0.000e+00 2.000e-01 -2.000e-01 -7.397e-04 -1.268e-03 -5.630e-04
341 1 2.000e-01 2.000e-01 0.000e+00 1.308e-03 -1.849e-03 -1.041e-03
342 1 0.000e+00 4.000e-01 0.000e+00 -2.330e-04 -8.921e-04 1.522e-03
343 1 0.000e+00 0.000e+00 0.000e+00 1.980e-01 1.002e-03 -7.219e-04
344 1 2.000e-01 -2.000e-01 -2.000e-01 7.523e-04 9.017e-04 2.040e-04
345 1 0.000e+00 2.000e-01 2.000e-01 -2.701e-04 2.981e-04 -2.878e-04
346 1 2.000e-01 0.000e+00 2.000e-01 -7.497e-04 -4.631e-04 1.137e-03
347 1 -2.000e-01 -2.000e-01 0.000e+00 -9.514e-04 -3.749e-04 9.907e-04
348 1 -2.000e-01 2.000e-01 -2.000e-01 4.765e-04 -1.073e-04 1.283e-03
349 1 2.000e-01 -2.000e-01 2.000e-01 1.312e-03 3.721e-04 8.924e-04
350 1 0.000e+00 -2.000e-01 2.000e-01 1.057e-03 -3.585e-05 5.051e-04
351 1 0.000e+00 0.000e+00 -4.000e-01 2.790e-04 -1.455e-03 7.317e-04
352 1 -2.000e-01 2.000e-01 0.000e+00 2.702e-04 -9.145e-04 -3.148e-04
ITEM: TIMESTEP
0
ITEM: NUMBER OF ATOMS
32
ITEM: BOX BOUNDS xy xz yz pp pp pp
                     -5.00000000000000e-01 5.00000000000000e-01 0.00000000000000e+00
-5.00000000000000e-01	5.00000000000000e-01	0.00000000000000e+00
-5.00000000000000e-01	5.00000000000000e-01	0.00000000000000e+00
ITEM: ATOMS id type x y z DisplacementX DisplacementY DisplacementZ
353 1 0.000e+00 -2.000e-01 -2.000e-01 -1.201e-03 4.690e-04 -6.515e-04
354 1 0.000e+00 2.000e-01 0.000e+00 -1.126e-03 9.843e-04 2.042e-03
355 1 2.000e-01 2.000e-01 -2.000e-01 -1.495e-03 -1.714e-03 7.413e-04
356 1 -2.000e-01 0.000e+00 0.000e+00 -1.441e-03 -2.118e-03 5.893e-04
357 1 -4.000e-01 0.000e+00 0.000e+00 -1.461e-03 -1.219e-04 -9.215e-04
358 1 4.000e-01 0.000e+00 0.000e+00 -4.397e-04 -3.746e-05 -3.675e-04
359 1 0.000e+00 4.000e-01 0.000e+00 2.240e-03 1.511e-03 1.763e-03
360 1 0.000e+00 0.000e+00 -4.000e-01 -6.565e-04 4.641e-04 2.327e-04
361 1 2.000e-01 0.000e+00 0.000e+00 -2.152e-04 4.784e-04 -7.479e-04
362 1 2.000e-01 -2.000e-01 -2.000e-01 -4.010e-04 4.034e-04 -1.990e-03
363 1 -2.000e-01 0.000e+00 2.000e-01 -7.590e-04 -5.561e-04 1.322e-03
364 1 -2.000e-01 2.000e-01 -2.000e-01 -9.716e-05 1.625e-04 -1.226e-03
365 1 -2.000e-01 -2.000e-01 -2.000e-01 -6.792e-04 -3.144e-04 -3.813e-04
366 1 2.000e-01 0.000e+00 -2.000e-01 1.876e-03 1.516e-03 1.113e-03
367 1 2.000e-01 2.000e-01 0.000e+00 -7.012e-04 5.333e-04 -2.345e-04
368 1 0.000e+00 0.000e+00 4.000e-01 6.830e-04 -2.105e-04 8.216e-04
369 1 0.000e+00 -4.000e-01 0.000e+00 1.629e-04 -1.519e-03 -7.719e-04
370 1 -2.000e-01 2.000e-01 2.000e-01 -6.156e-04 -1.652e-03 -7.032e-04
371 1 0.000e+00 2.000e-01 -2.000e-01 -1.257e-03 7.784e-04 -2.052e-03
372 1 0.000e+00 0.000e+00 2.000e-01 -1.056e-04 -1.440e-03 1.065e-03
373 1 -2.000e-01 0.000e+00 -2.000e-01 -7.923e-04 9.805e-05 3.688e-04
374 1 -2.000e-01 2.000e-01 0.000e+00 -1.714e-04 -5.387e-04 9.564e-04
375 1 2.000e-01 -2.000e-01 2.000e-01 -1.552e-04 -6.428e-05 -4.866e-04
376 1 0.000e+00 2.000e-01 2.000e-01 1.446e-03 5.310e-04 7.009e-04