ITEM: TIMESTEP
0
ITEM: NUMBER OF ATOMS
32
ITEM: BOX BOUNDS xy xz yz pp pp pp
                     -5.00000000000000e-01 5.00000000000000e-01 0.00000000000000e+00
-5.00000000000000e-01	5.00000000000000e-01	0.00000000000000e+00
-5.00000000000000e-01	5.00000000000000e-01	0.00000000000000e+00
ITEM: ATOMS id type x y z DisplacementX DisplacementY DisplacementZ
1 1 -2.000e-01 0.000e+00 0.000e+00 2.390e-04 6.758e-04 -2.774e-04
2 1 -2.000e-01 -2.000e-01 -2.000e-01 3.917e-04 -2.475e-04 -1.429e-03
3 1 0.000e+00 4.000e-01 0.000e+00 -2.068e-04 1.350e-03 -2.463e-04
4 1 0.000e+00 2.000e-01 -2.000e-01 2.683e-04 1.341e-04 -2.206e-04
5 1 0.000e+00 2.000e-01 0.000e+00 6.809e-04 1.426e-04 -8.943e-04
6 1 -2.000e-01 0.000e+00 -2.000e-01 7.503e-06 1.238e-03 -2.092e-03
7 1 0.000e+00 -4.000e-01 0.000e+00 1.461e-03 -9.115e-04 -7.915e-04
8 1 -2.000e-01 2.000e-01 0.000e+00 -4.534e-04 -1.134e-04 6.578e-04
9 1 -2.000e-01 -2.000e-01 2.000e-01 8.053e-04 1.452e-04 -1.097e-03
10 1 0.000e+00 0.000e+00 2.000e-01 -1.193e-03 -6.587e-04 -6.014e-04
11 1 -2.000e-01 2.000e-01 -2.000e-01 -6.014e-04 1.729e-03 1.743e-03
12 1 0.000e+00 -2.000e-01 -2.000e-01 -4.086e-05 -1.249e-03 -3.920e-04
13 1 0.000e+00 -2.000e-01 0.000e+00 1.383e-03 -1.330e-03 -2.798e-04
14 1 -2.000e-01 2.000e-01 2.000e-01 -1.186e-03 1.324e-03 -8.438e-04
15 1 2.000e-01 2.000e-01 -2.000e-01 7.731e-05 1.301e-04 9.132e-05
16 1 -4.000e-01 0.000e+00 0.000e+00 -1.224e-03 7.022e-04 8.173e-04
17 1 0.000e+00 0.000e+00 0.000e+00 2.003e-01 -2.377e-04 -1.168e-03
18 1 -2.000e-01 0.000e+00 2.000e-01 1.313e-03 -4.664e-04 4.649e-04
19 1 2.000e-01 0.000e+00 2.000e-01 1.045e-03 1.913e-04 1.468e-03
20 1 2.000e-01 2.000e-01 2.000e-01 -1.214e-03 1.338e-04 1.524e-03
21 1 0.000e+00 0.000e+00 -2.000e-01 -2.628e-04 -2.333e-04 -1.830e-03
22 1 2.000e-01 -2.000e-01 -2.000e-01 9.276e-04 1.478e-04 -1.297e-03
23 1 4.000e-01 0.000e+00 0.000e+00 9.259e-05 2.071e-04 -1.229e-04
24 1 0.000e+00 -2.000e-01 2.000e-01 -2.379e-04 1.235e-04 6.060e-04
25 1 -2.000e-01 -2.000e-01 0.000e+00 -2.654e-04 2.502e-04 -3.450e-04
26 1 0.000e+00 2.000e-01 2.000e-01 4.368e-04 1.376e-04 -4.956e-04
27 1 0.000e+00 0.000e+00 4.000e-01 6.352e-04 -1.730e-04 -7.990e-04
28 1 2.000e-01 -2.000e-01 2.000e-01 -3.831e-04 -1.651e-03 5.213e-05
29 1 2.000e-01 2.000e-01 0.000e+00 2.819e-04 4.250e-04 -8.532e-04
30 1 2.000e-01 -2.000e-01 0.000e+00 -3.123e-04 -8.826e-04 -3.954e-04
31 1 2.000e-01 0.000e+00 -2.000e-01 2.673e-04 1.340e-04 -2.189e-04
32 1 0.000e+00 0.000e+00 -4.000e-01 3.896e-04 -5.009e-05 -1.716e-03
ITEM: TIMESTEP
0
ITEM: NUMBER OF ATOMS
32
ITEM: BOX BOUNDS xy xz yz pp pp pp
                     -5.00000000000000e-01 5.00000000000000e-01 0.00000000000000e+00
-5.00000000000000e-01	5.00000000000000e-01	0.00000000000000e+00
-5.00000000000000e-01	5.00000000000000e-01	0.00000000000000e+00
ITEM: ATOMS id type x y z DisplacementX DisplacementY DisplacementZ
33 1 0.000e+00 0.000e+00 4.000e-01 3.457e-04 -1.874e-04 1.168e-03
34 1 0.000e+00 2.000e-01 2.000e-01 -1.366e-04 -8.905e-04 -8.370e-04
35 1 -2.000e-01 2.000e-01 -2.000e-01 4.988e-04 1.388e-04 -5.969e-04
36 1 2.000e-01 0.000e+00 2.000e-01 -8.627e-04 1.636e-03 -5.659e-04
37 1 2.000e-01 -2.000e-01 0.000e+00 4.025e-05 1.293e-04 1.518e-04
38 1 -2.000e-01 0.000e+00 0.000e+00 1.531e-03 -2.034e-03 -1.477e-03
39 1 -2.000e-01 -2.000e-01 -2.000e-01 -7.888e-04 -1.933e-03 -2.307e-03
40 1 -2.000e-01 -2.000e-01 2.000e-01 1.025e-03 -2.045e-03 1.365e-03
41 1 2.000e-01 2.000e-01 0.000e+00 5.013e-04 -9.946e-04 8.562e-04
42 1 -2.000e-01 0.000e+00 -2.000e-01 -1.335e-03 -8.168e-05 -4.677e-04
43 1 -4.000e-01 0.000e+00 0.000e+00 8.357e-04 1.294e-03 -1.674e-04
44 1 0.000e+00 0.000e+00 0.000e+00 6.365e-04 7.837e-05 -1.994e-01
45 1 0.000e+00 2.000e-01 0.000e+00 -1.500e-03 -6.750e-04 9.063e-04
46 1 0.000e+00 -2.000e-01 2.000e-01 -1.579e-03 -1.546e-03 3.265e-04
47 1 2.000e-01 0.000e+00 -2.000e-01 9.724e-05 -4.882e-04 1.964e-04
48 1 -2.000e-01 -2.000e-01 0.000e+00 2.751e-04 1.342e-04 -2.317e-04
49 1 2.000e-01 -2.000e-01 2.000e-01 -6.102e-04 1.158e-04 1.214e-03
50 1 2.000e-01 2.000e-01 -2.000e-01 2.043e-04 1.327e-04 -1.159e-04
51 1 0.000e+00 0.000e+00 2.000e-01 -6.724e-04 -5.086e-04 6.191e-04
52 1 -2.000e-01 2.000e-01 0.000e+00 -1.440e-03 2.116e-03 2.161e-04
53 1 -2.000e-01 0.000e+00 2.000e-01 -2.018e-04 -6.623e-04 -5.529e-05
54 1 -2.000e-01 2.000e-01 2.000e-01 8.819e-04 9.058e-04 -9.126e-04
55 1 0.000e+00 -4.000e-01 0.000e+00 -1.462e-03 -1.679e-04 -7.412e-04
56 1 0.000e+00 -2.000e-01 0.000e+00 1.682e-03 -5.373e-04 1.490e-03
57 1 2.000e-01 2.000e-01 2.000e-01 1.273e-04 1.308e-03 -2.583e-03
58 1 0.000e+00 4.000e-01 0.000e+00 1.498e-03 -1.150e-04 6.117e-04
59 1 2.000e-01 -2.000e-01 -2.000e-01 6.050e-06 2.037e-03 1.618e-03
60 1 0.000e+00 2.000e-01 -2.000e-01 8.736e-04 -1.546e-03 1.769e-04
61 1 2.000e-01 0.000e+00 0.000e+00 1.904e-03 1.076e-03 6.940e-04
62 1 4.000e-01 0.000e+00 0.000e+00 -7.222e-04 2.492e-04 7.958e-04
63 1 0.000e+00 -2.000e-01 -2.000e-01 -3.446e-04 1.213e-04 7.803e-04
64 1 0.000e+00 0.000e+00 -4.000e-01 4.594e-04 1.380e-04 -5.325e-04
ITEM: TIMESTEP
0
ITEM: NUMBER OF ATOMS
32
ITEM: BOX BOUNDS xy xz yz pp pp pp
                     -5.00000000000000e-01 5.00000000000000e-01 0.00000000000000e+00
-5.00000000000000e-01	5.00000000000000e-01	0.00000000000000e+00
-5.00000000000000e-01	5.00000000000000e-01	0.00000000000000e+00
ITEM: ATOMS id type x y z DisplacementX DisplacementY DisplacementZ
65 1 4.000e-01 0.000e+00 0.000e+00 8.905e-04 -2.558e-05 5.547e-04
66 1 0.000e+00 0.000e+00 -4.000e-01 -1.789e-03 1.467e-04 -5.095e-04
67 1 2.000e-01 2.000e-01 -2.000e-01 -2.739e-04 1.228e-04 6.648e-04
68 1 0.000e+00 2.000e-01 -2.000e-01 5.379e-04 1.397e-04 -6.607e-04
69 1 2.000e-01 -2.000e-01 0.000e+00 -3.614e-05 -6.204e-04 -1.772e-03
70 1 0.000e+00 0.000e+00 4.000e-01 -2.532e-03 -5.761e-04 -9.894e-04
71 1 0.000e+00 -2.000e-01 -2.000e-01 9.813e-04 1.489e-04 -1.385e-03
72 1 2.000e-01 -2.000e-01 -2.000e-01 -8.130e-04 8.158e-04 -1.034e-03
73 1 2.000e-01 2.000e-01 0.000e+00 -1.204e-03 -1.216e-03 -5.438e-04
74 1 0.000e+00 4.000e-01 0.000e+00 -2.144e-04 1.240e-04 5.677e-04
75 1 0.000e+00 -2.000e-01 2.000e-01 3.587e-04 1.359e-04 -3.681e-04
76 1 -2.000e-01 2.000e-01 -2.000e-01 -6.213e-04 1.156e-04 1.232e-03
77 1 2.000e-01 0.000e+00 0.000e+00 -1.640e-03 5.055e-04 3.957e-04
78 1 2.000e-01 -2.000e-01 2.000e-01 -3.638e-05 1.307e-03 -6.142e-05
79 1 2.000e-01 2.000e-01 2.000e-01 1.777e-03 3.214e-04 -2.657e-04
80 1 0.000e+00 2.000e-01 2.000e-01 2.596e-04 1.339e-04 -2.063e-04
81 1 -4.000e-01 0.000e+00 0.000e+00 6.068e-04 -2.702e-03 -4.708e-04
82 1 -2.000e-01 0.000e+00 2.000e-01 -2.354e-04 -1.171e-03 4.774e-04
83 1 -2.000e-01 2.000e-01 2.000e-01 2.154e-03 4.814e-04 -8.604e-04
84 1 -2.000e-01 -2.000e-01 -2.000e-01 1.807e-03 1.660e-04 -2.733e-03
85 1 0.000e+00 0.000e+00 0.000e+00 -2.010e-01 7.572e-05 -1.969e-03
86 1 0.000e+00 2.000e-01 0.000e+00 1.067e-03 1.506e-04 -1.524e-03
87 1 2.000e-01 0.000e+00 -2.000e-01 -2.678e-05 -2.386e-03 7.762e-04
88 1 0.000e+00 0.000e+00 -2.000e-01 -6.506e-05 1.271e-04 3.238e-04
89 1 -2.000e-01 -2.000e-01 2.000e-01 1.210e-03 -2.832e-03 -7.381e-04
90 1 0.000e+00 -2.000e-01 0.000e+00 -2.300e-04 -1.388e-03 -3.082e-04
91 1 -2.000e-01 2.000e-01 0.000e+00 -1.031e-03 -8.912e-04 4.464e-04
92 1 0.000e+00 0.000e+00 2.000e-01 6.993e-04 -3.471e-04 -2.279e-03
93 1 2.000e-01 0.000e+00 2.000e-01 9.669e-04 6.137e-04 -1.556e-03
94 1 -2.000e-01 -2.000e-01 0.000e+00 2.118e-04 1.329e-04 -1.283e-04
95 1 0.000e+00 -4.000e-01 0.000e+00 -1.049e-03 6.794e-04 -9.958e-04
96 1 -2.000e-01 0.000e+00 -2.000e-01 3.946e-04 1.367e-04 -4.267e-04
