ITEM: TIMESTEP
0
ITEM: NUMBER OF ATOMS
4
ITEM: BOX BOUNDS xy xz yz pp pp pp
                     -5.00000000000000e-01 5.00000000000000e-01 0.00000000000000e+00
-5.00000000000000e-01	5.00000000000000e-01	0.00000000000000e+00
-5.00000000000000e-01	5.00000000000000e-01	0.00000000000000e+00
ITEM: ATOMS id type x y z DisplacementX DisplacementY DisplacementZ
1 1 0.000e+00 0.000e+00 0.000e+00 1.476e-03 9.968e-02 1.069e-03
2 1 0.000e+00 -1.000e-01 0.000e+00 1.244e-03 1.891e-04 7.563e-04
3 1 1.000e-01 0.000e+00 0.000e+00 1.897e-03 -1.753e-03 4.684e-04
4 1 -1.000e-01 0.000e+00 0.000e+00 -5.672e-04 1.795e-03 7.692e-04
ITEM: TIMESTEP
0
ITEM: NUMBER OF ATOMS
4
ITEM: BOX BOUNDS xy xz yz pp pp pp
                     -5.00000000000000e-01 5.00000000000000e-01 0.00000000000000e+00
-5.00000000000000e-01	5.00000000000000e-01	0.00000000000000e+00
-5.00000000000000e-01	5.00000000000000e-01	0.00000000000000e+00
ITEM: ATOMS id type x y z DisplacementX DisplacementY DisplacementZ
5 1 -1.000e-01 0.000e+00 0.000e+00 -2.987e-04 -8.058e-04 9.117e-04
6 1 0.000e+00 1.000e-01 0.000e+00 4.053e-04 -7.552e-04 7.569e-04
7 1 1.000e-01 0.000e+00 0.000e+00 1.873e-03 7.245e-04 -1.123e-03
8 1 0.000e+00 0.000e+00 0.000e+00 2.066e-04 -9.937e-02 4.472e-04
ITEM: TIMESTEP
0
ITEM: NUMBER OF ATOMS
4
ITEM: BOX BOUNDS xy xz yz pp pp pp
                     -5.00000000000000e-01 5.00000000000000e-01 0.00000000000000e+00
-5.00000000000000e-01	5.00000000000000e-01	0.00000000000000e+00
-5.00000000000000e-01	5.00000000000000e-01	0.00000000000000e+00
ITEM: ATOMS id type x y z DisplacementX DisplacementY DisplacementZ
9 1 1.000e-01 0.000e+00 0.000e+00 -6.901e-04 5.862e-04 5.099e-04
10 1 0.000e+00 1.000e-01 0.000e+00 -1.492e-03 7.956e-04 1.298e-04
11 1 0.000e+00 -1.000e-01 0.000e+00 1.054e-03 1.991e-03 -1.049e-03
12 1 0.000e+00 0.000e+00 0.000e+00 -9.852e-02 -5.440e-04 5.188e-04
ITEM: TIMESTEP
0
ITEM: NUMBER OF ATOMS
4
ITEM: BOX BOUNDS xy xz yz pp pp pp
                     -5.00000000000000e-01 5.00000000000000e-01 0.00000000000000e+00
-5.00000000000000e-01	5.00000000000000e-01	0.00000000000000e+00
-5.00000000000000e-01	5.00000000000000e-01	0.00000000000000e+00
ITEM: ATOMS id type x y z DisplacementX DisplacementY DisplacementZ
13 1 0.000e+00 1.000e-01 0.000e+00 1.197e-03 -2.471e-05 3.267e-04
14 1 -1.000e-01 0.000e+00 0.000e+00 1.544e-04 -2.002e-04 -1.505e-03
15 1 0.000e+00 -1.000e-01 0.000e+00 -2.615e-03 -3.905e-04 -8.590e-04
16 1 0.000e+00 0.000e+00 0.000e+00 1.002e-01 -9.616e-04 3.224e-04
ITEM: TIMESTEP
0
ITEM: NUMBER OF ATOMS
4
ITEM: BOX BOUNDS xy xz yz pp pp pp
                     -5.00000000000000e-01 5.00000000000000e-01 0.00000000000000e+00
-5.00000000000000e-01	5.00000000000000e-01	0.00000000000000e+00
-5.00000000000000e-01	5.00000000000000e-01	0.00000000000000e+00
ITEM: ATOMS id type x y z DisplacementX DisplacementY DisplacementZ
17 1 0.000e+00 1.000e-01 0.000e+00 2.957e-04 3.256e-04 -7.687e-04
18 1 0.000e+00 0.000e+00 0.000e+00 1.022e-01 1.206e-03 3.208e-04
19 1 0.000e+00 -1.000e-01 0.000e+00 -5.819e-04 7.051e-04 7.658e-04
20 1 -1.000e-01 0.000e+00 0.000e+00 -1.254e-03 -1.457e-03 5.761e-04
ITEM: TIMESTEP
0
ITEM: NUMBER OF ATOMS
4
ITEM: BOX BOUNDS xy xz yz pp pp pp
                     -5.00000000000000e-01 5.00000000000000e-01 0.00000000000000e+00
-5.00000000000000e-01	5.00000000000000e-01	0.00000000000000e+00
-5.00000000000000e-01	5.00000000000000e-01	0.00000000000000e+00
ITEM: ATOMS id type x y z DisplacementX DisplacementY DisplacementZ
21 1 -1.000e-01 0.000e+00 0.000e+00 -1.351e-03 -1.330e-03 -1.186e-03
22 1 0.000e+00 0.000e+00 0.000e+00 2.013e-04 -9.973e-02 4.461e-04
23 1 0.000e+00 1.000e-01 0.000e+00 2.990e-04 -8.521e-04 7.571e-04
24 1 1.000e-01 0.000e+00 0.000e+00 1.892e-03 9.385e-04 -1.376e-04
ITEM: TIMESTEP
0
ITEM: NUMBER OF ATOMS
4
ITEM: BOX BOUNDS xy xz yz pp pp pp
                     -5.00000000000000e-01 5.00000000000000e-01 0.00000000000000e+00
-5.00000000000000e-01	5.00000000000000e-01	0.00000000000000e+00
-5.00000000000000e-01	5.00000000000000e-01	0.00000000000000e+00
ITEM: ATOMS id type x y z DisplacementX DisplacementY DisplacementZ
25 1 0.000e+00 -1.000e-01 0.000e+00 2.741e-03 -9.779e-04 -6.861e-04
26 1 0.000e+00 0.000e+00 0.000e+00 4.478e-04 1.008e-01 1.077e-03
27 1 -1.000e-01 0.000e+00 0.000e+00 1.982e-03 -6.933e-04 7.503e-04
28 1 1.000e-01 0.000e+00 0.000e+00 6.044e-04 -2.460e-03 -1.242e-03
ITEM: TIMESTEP
0
ITEM: NUMBER OF ATOMS
4
ITEM: BOX BOUNDS xy xz yz pp pp pp
                     -5.00000000000000e-01 5.00000000000000e-01 0.00000000000000e+00
-5.00000000000000e-01	5.00000000000000e-01	0.00000000000000e+00
-5.00000000000000e-01	5.00000000000000e-01	0.00000000000000e+00
ITEM: ATOMS id type x y z DisplacementX DisplacementY DisplacementZ
29 1 1.000e-01 0.000e+00 0.000e+00 -5.037e-04 -1.105e-03 -8.304e-06
30 1 0.000e+00 0.000e+00 0.000e+00 -9.941e-02 1.082e-04 6.485e-04
31 1 0.000e+00 -1.000e-01 0.000e+00 -8.273e-04 4.095e-04 1.172e-05
32 1 0.000e+00 1.000e-01 0.000e+00 -9.466e-04 7.549e-04 -2.484e-04
ITEM: TIMESTEP
0
ITEM: NUMBER OF ATOMS
4
ITEM: BOX BOUNDS xy xz yz pp pp pp
                     -5.00000000000000e-01 5.00000000000000e-01 0.00000000000000e+00
-5.00000000000000e-01	5.00000000000000e-01	0.00000000000000e+00
-5.00000000000000e-01	5.00000000000000e-01	0.00000000000000e+00
ITEM: ATOMS id type x y z DisplacementX DisplacementY DisplacementZ
33 1 0.000e+00 0.000e+00 0.000e+00 -9.971e-02 5.655e-04 6.780e-04
34 1 1.000e-01 0.000e+00 0.000e+00 -3.565e-04 -7.424e-04 7.603e-04
35 1 0.000e+00 -1.000e-01 0.000e+00 -1.463e-03 4.900e-04 -1.755e-03
36 1 0.000e+00 1.000e-01 0.000e+00 -5.833e-04 -8.509e-04 7.609e-04
ITEM: TIMESTEP
0
ITEM: NUMBER OF ATOMS
4
ITEM: BOX BOUNDS xy xz yz pp pp pp
                     -5.00000000000000e-01 5.00000000000000e-01 0.00000000000000e+00
-5.00000000000000e-01	5.00000000000000e-01	0.00000000000000e+00
-5.00000000000000e-01	5.00000000000000e-01	0.00000000000000e+00
ITEM: ATOMS id type x y z DisplacementX DisplacementY DisplacementZ
37 1 0.000e+00 0.000e+00 0.000e+00 -1.967e-03 -1.001e-01 4.544e-04
38 1 0.000e+00 1.000e-01 0.000e+00 -5.713e-04 -2.869e-04 7.627e-04
39 1 1.000e-01 0.000e+00 0.000e+00 -6.678e-04 9.052e-04 -5.579e-04
40 1 -1.000e-01 0.000e+00 0.000e+00 -6.247e-04 -2.708e-03 2.467e-03
ITEM: TIMESTEP
0
ITEM: NUMBER OF ATOMS
4
ITEM: BOX BOUNDS xy xz yz pp pp pp
                     -5.00000000000000e-01 5.00000000000000e-01 0.00000000000000e+00
-5.00000000000000e-01	5.00000000000000e-01	0.00000000000000e+00
-5.00000000000000e-01	5.00000000000000e-01	0.00000000000000e+00
ITEM: ATOMS id type x y z DisplacementX DisplacementY DisplacementZ
41 1 -1.000e-01 0.000e+00 0.000e+00 1.276e-03 2.383e-04 -1.193e-03
42 1 0.000e+00 0.000e+00 0.000e+00 1.005e-01 -9.507e-04 3.214e-04
43 1 0.000e+00 1.000e-01 0.000e+00 8.095e-04 1.994e-04 9.888e-04
44 1 0.000e+00 -1.000e-01 0.000e+00 -5.960e-04 1.443e-03 7.682e-04
ITEM: TIMESTEP
0
ITEM: NUMBER OF ATOMS
4
ITEM: BOX BOUNDS xy xz yz pp pp pp
                     -5.00000000000000e-01 5.00000000000000e-01 0.00000000000000e+00
-5.00000000000000e-01	5.00000000000000e-01	0.00000000000000e+00
-5.00000000000000e-01	5.00000000000000e-01	0.00000000000000e+00
ITEM: ATOMS id type x y z DisplacementX DisplacementY DisplacementZ
45 1 1.000e-01 0.000e+00 0.000e+00 -8.071e-04 -2.270e-04 -1.596e-03
46 1 0.000e+00 0.000e+00 0.000e+00 -5.715e-04 9.784e-02 1.072e-03
47 1 0.000e+00 -1.000e-01 0.000e+00 1.440e-04 2.264e-04 -1.887e-04
48 1 -1.000e-01 0.000e+00 0.000e+00 7.932e-04 6.849e-04 -1.097e-03
ITEM: TIMESTEP
0
ITEM: NUMBER OF ATOMS
4
ITEM: BOX BOUNDS xy xz yz pp pp pp
                     -5.00000000000000e-01 5.00000000000000e-01 0.00000000000000e+00
-5.00000000000000e-01	5.00000000000000e-01	0.00000000000000e+00
-5.00000000000000e-01	5.00000000000000e-01	0.00000000000000e+00
ITEM: ATOMS id type x y z DisplacementX DisplacementY DisplacementZ
49 1 0.000e+00 1.000e-01 0.000e+00 1.470e-03 -1.532e-03 -1.551e-03
50 1 0.000e+00 -1.000e-01 0.000e+00 6.366e-04 4.950e-04 7.599e-04
51 1 0.000e+00 0.000e+00 0.000e+00 -1.001e-01 6.782e-04 -7.635e-04
52 1 1.000e-01 0.000e+00 0.000e+00 4.038e-04 -7.540e-04 -4.508e-05
ITEM: TIMESTEP
0
ITEM: NUMBER OF ATOMS
4
ITEM: BOX BOUNDS xy xz yz pp pp pp
                     -5.00000000000000e-01 5.00000000000000e-01 0.00000000000000e+00
-5.00000000000000e-01	5.00000000000000e-01	0.00000000000000e+00
-5.00000000000000e-01	5.00000000000000e-01	0.00000000000000e+00
ITEM: ATOMS id type x y z DisplacementX DisplacementY DisplacementZ
53 1 -1.000e-01 0.000e+00 0.000e+00 1.786e-03 2.849e-04 -1.388e-03
54 1 1.000e-01 0.000e+00 0.000e+00 3.429e-04 2.218e-04 -2.669e-04
55 1 0.000e+00 0.000e+00 0.000e+00 1.309e-03 9.971e-02 1.069e-03
56 1 0.000e+00 -1.000e-01 0.000e+00 7.329e-04 7.260e-04 -6.655e-04
ITEM: TIMESTEP
0
ITEM: NUMBER OF ATOMS
4
ITEM: BOX BOUNDS xy xz yz pp pp pp
                     -5.00000000000000e-01 5.00000000000000e-01 0.00000000000000e+00
-5.00000000000000e-01	5.00000000000000e-01	0.00000000000000e+00
-5.00000000000000e-01	5.00000000000000e-01	0.00000000000000e+00
ITEM: ATOMS id type x y z DisplacementX DisplacementY DisplacementZ
57 1 1.000e-01 0.000e+00 0.000e+00 5.468e-04 1.434e-04 7.592e-04
58 1 0.000e+00 1.000e-01 0.000e+00 -8.976e-04 3.399e-05 7.651e-04
59 1 -1.000e-01 0.000e+00 0.000e+00 3.197e-04 -2.772e-03 1.385e-03
60 1 0.000e+00 0.000e+00 0.000e+00 -1.204e-03 -1.001e-01 4.510e-04
ITEM: TIMESTEP
0
ITEM: NUMBER OF ATOMS
4
ITEM: BOX BOUNDS xy xz yz pp pp pp
                     -5.00000000000000e-01 5.00000000000000e-01 0.00000000000000e+00
-5.00000000000000e-01	5.00000000000000e-01	0.00000000000000e+00
-5.00000000000000e-01	5.00000000000000e-01	0.00000000000000e+00
ITEM: ATOMS id type x y z DisplacementX DisplacementY DisplacementZ
61 1 -1.000e-01 0.000e+00 0.000e+00 1.863e-03 1.169e-04 7.534e-04
62 1 0.000e+00 -1.000e-01 0.000e+00 -2.100e-03 -1.172e-04 -1.307e-03
63 1 0.000e+00 1.000e-01 0.000e+00 -7.523e-04 1.011e-03 8.312e-04
64 1 0.000e+00 0.000e+00 0.000e+00 9.871e-02 1.106e-03 3.355e-04
ITEM: TIMESTEP
0
ITEM: NUMBER OF ATOMS
4
ITEM: BOX BOUNDS xy xz yz pp pp pp
                     -5.00000000000000e-01 5.00000000000000e-01 0.00000000000000e+00
-5.00000000000000e-01	5.00000000000000e-01	0.00000000000000e+00
-5.00000000000000e-01	5.00000000000000e-01	0.00000000000000e+00
ITEM: ATOMS id type x y z DisplacementX DisplacementY DisplacementZ
65 1 0.000e+00 0.000e+00 0.000e+00 1.003e-01 -1.341e-03 3.211e-04
66 1 0.000e+00 -1.000e-01 0.000e+00 1.346e-03 5.629e-04 7.570e-04
67 1 0.000e+00 1.000e-01 0.000e+00 1.610e-03 1.666e-04 1.717e-03
68 1 -1.000e-01 0.000e+00 0.000e+00 4.359e-04 3.419e-04 7.603e-04
ITEM: TIMESTEP
0
ITEM: NUMBER OF ATOMS
4
ITEM: BOX BOUNDS xy xz yz pp pp pp
                     -5.00000000000000e-01 5.00000000000000e-01 0.00000000000000e+00
-5.00000000000000e-01	5.00000000000000e-01	0.00000000000000e+00
-5.00000000000000e-01	5.00000000000000e-01	0.00000000000000e+00
ITEM: ATOMS id type x y z DisplacementX DisplacementY DisplacementZ
69 1 -1.000e-01 0.000e+00 0.000e+00 2.065e-03 7.747e-04 -8.077e-04
70 1 0.000e+00 0.000e+00 0.000e+00 1.168e-03 1.005e-01 1.072e-03
71 1 0.000e+00 -1.000e-01 0.000e+00 4.823e-04 -4.813e-06 -2.347e-04
72 1 1.000e-01 0.000e+00 0.000e+00 1.394e-03 4.372e-04 -7.712e-04
ITEM: TIMESTEP
0
ITEM: NUMBER OF ATOMS
4
ITEM: BOX BOUNDS xy xz yz pp pp pp
                     -5.00000000000000e-01 5.00000000000000e-01 0.00000000000000e+00
-5.00000000000000e-01	5.00000000000000e-01	0.00000000000000e+00
-5.00000000000000e-01	5.00000000000000e-01	0.00000000000000e+00
ITEM: ATOMS id type x y z DisplacementX DisplacementY DisplacementZ
73 1 1.000e-01 0.000e+00 0.000e+00 8.941e-06 -1.979e-03 -1.281e-03
74 1 0.000e+00 0.000e+00 0.000e+00 5.072e-05 -9.866e-02 4.502e-04
75 1 -1.000e-01 0.000e+00 0.000e+00 1.058e-03 -1.018e-03 5.394e-04
76 1 0.000e+00 1.000e-01 0.000e+00 5.967e-04 4.797e-04 7.600e-04
ITEM: TIMESTEP
0
ITEM: NUMBER OF ATOMS
4
ITEM: BOX BOUNDS xy xz yz pp pp pp
                     -5.00000000000000e-01 5.00000000000000e-01 0.00000000000000e+00
-5.00000000000000e-01	5.00000000000000e-01	0.00000000000000e+00
-5.00000000000000e-01	5.00000000000000e-01	0.00000000000000e+00
ITEM: ATOMS id type x y z DisplacementX DisplacementY DisplacementZ
77 1 0.000e+00 1.000e-01 0.000e+00 -1.714e-03 1.884e-04 4.425e-05
78 1 0.000e+00 -1.000e-01 0.000e+00 4.554e-04 1.472e-05 -6.425e-04
79 1 0.000e+00 0.000e+00 0.000e+00 -9.938e-02 -2.031e-03 7.769e-04
80 1 1.000e-01 0.000e+00 0.000e+00 -3.684e-04 -1.443e-03 1.165e-04
