ITEM: TIMESTEP
0
ITEM: NUMBER OF ATOMS
107
ITEM: BOX BOUNDS xy xz yz pp pp pp
                     0.00000000000000e+00 1.06000000000000e+01 0.00000000000000e+00
0.00000000000000e+00	1.06000000000000e+01	0.00000000000000e+00
0.00000000000000e+00	1.06000000000000e+01	0.00000000000000e+00
ITEM: ATOMS id type x y z DisplacementX DisplacementY DisplacementZ
1 1 3.516e-01 3.525e-01 3.561e-01 -3.200e-04 -2.721e-04 -8.166e-05
2 1 2.126e+00 2.124e+00 3.520e-01 -6.254e-04 -3.136e-04 -7.350e-04
3 1 2.123e+00 3.525e-01 2.124e+00 -9.012e-04 3.539e-03 3.177e-03
4 1 3.530e-01 2.123e+00 2.125e+00 1.872e-04 -1.792e-03 -2.798e-03
5 1 3.896e+00 3.521e-01 3.562e-01 -7.681e-04 1.531e-03 1.463e-03
6 1 5.664e+00 2.124e+00 3.540e-01 -6.125e-04 -3.272e-03 -4.486e-03
7 1 5.667e+00 3.519e-01 2.127e+00 -1.189e-03 -2.082e-03 -3.998e-03
8 1 3.897e+00 2.124e+00 2.125e+00 -8.818e-04 -1.193e-03 -2.948e-03
9 1 7.434e+00 3.516e-01 3.572e-01 7.123e-04 -3.277e-04 1.069e-03
10 1 9.204e+00 2.124e+00 3.560e-01 3.373e-04 -3.205e-03 -4.085e-03
11 1 9.202e+00 3.516e-01 2.125e+00 1.116e-03 -2.293e-03 -2.916e-03
12 1 7.433e+00 2.123e+00 2.124e+00 -1.641e-03 -7.176e-04 -1.636e-03
13 1 3.539e-01 3.896e+00 3.552e-01 -2.835e-04 -2.425e-04 -4.463e-04
14 1 2.124e+00 3.893e+00 2.125e+00 -8.590e-04 8.347e-04 3.023e-04
15 1 3.896e+00 3.894e+00 3.565e-01 -7.060e-04 -1.673e-03 -2.195e-03
16 1 5.667e+00 3.896e+00 2.127e+00 4.473e-04 -2.726e-03 -5.390e-03
17 1 7.433e+00 3.899e+00 3.570e-01 5.789e-04 -2.468e-03 -2.920e-03
18 1 9.202e+00 3.896e+00 2.125e+00 1.078e-03 -3.479e-03 -6.486e-03
19 1 3.509e-01 3.511e-01 3.894e+00 -8.031e-04 -3.390e-03 -3.588e-03
20 1 2.124e+00 2.125e+00 3.892e+00 -8.519e-04 5.898e-04 -1.376e-03
21 1 3.898e+00 3.508e-01 3.894e+00 -6.319e-04 -4.843e-04 -3.058e-03
22 1 5.660e+00 2.125e+00 3.895e+00 -1.551e-04 3.858e-04 1.945e-03
23 1 7.435e+00 3.641e-01 3.895e+00 1.113e-03 2.091e-02 1.452e-02
24 1 9.207e+00 2.124e+00 3.892e+00 -6.522e-04 1.543e-03 -2.770e-04
25 1 3.526e-01 3.896e+00 3.893e+00 -6.051e-04 5.333e-03 3.885e-03
26 1 3.898e+00 3.899e+00 3.894e+00 -8.471e-04 4.093e-03 2.008e-03
27 1 7.436e+00 3.887e+00 3.893e+00 1.243e-04 -2.652e-02 -2.993e-02
28 1 2.124e+00 3.526e-01 5.663e+00 -7.833e-04 1.394e-03 1.085e-04
29 1 3.525e-01 2.123e+00 5.664e+00 -7.883e-04 -5.633e-05 -1.507e-03
30 1 5.665e+00 3.506e-01 5.664e+00 -8.091e-04 -4.195e-03 -7.180e-03
31 1 3.894e+00 2.123e+00 5.660e+00 -8.203e-04 -3.417e-04 -1.871e-03
32 1 9.202e+00 3.505e-01 5.663e+00 -3.447e-05 -6.788e-03 -7.351e-03
33 1 7.433e+00 2.123e+00 5.666e+00 2.003e-03 4.553e-03 6.322e-03
34 1 2.122e+00 3.893e+00 5.663e+00 -1.176e-03 2.374e-03 2.325e-03
35 1 5.666e+00 3.896e+00 5.664e+00 -2.933e-04 2.093e-03 -9.548e-04
36 1 9.202e+00 3.896e+00 5.661e+00 -9.095e-04 3.683e-03 1.230e-03
37 1 3.531e-01 3.525e-01 7.432e+00 -8.586e-04 -1.476e-03 -1.691e-03
38 1 2.124e+00 2.124e+00 7.436e+00 -7.714e-04 2.555e-04 -2.028e-04
39 1 2.124e+00 3.519e-01 9.204e+00 -6.883e-04 2.356e-04 6.491e-05
40 1 3.538e-01 2.122e+00 9.204e+00 -5.607e-04 -8.351e-04 -1.009e-03
41 1 3.896e+00 3.543e-01 7.433e+00 -6.810e-04 -1.568e-03 -2.648e-03
42 1 5.664e+00 2.123e+00 7.434e+00 -5.665e-04 -5.568e-04 -2.126e-03
43 1 5.664e+00 3.534e-01 9.205e+00 -3.973e-04 -9.405e-04 -9.985e-04
44 1 3.896e+00 2.123e+00 9.204e+00 -7.155e-04 -7.475e-04 -1.080e-03
45 1 7.434e+00 3.508e-01 7.431e+00 -1.576e-03 -1.294e-02 -1.400e-02
46 1 9.204e+00 2.123e+00 7.432e+00 -6.237e-04 -1.067e-03 -1.923e-03
47 1 9.202e+00 3.537e-01 9.204e+00 -4.101e-04 -1.792e-03 -1.375e-03
48 1 7.436e+00 2.124e+00 9.204e+00 -5.353e-04 -4.380e-03 -5.189e-03
49 1 3.531e-01 3.894e+00 7.433e+00 -9.789e-04 8.861e-04 7.280e-04
50 1 2.123e+00 3.895e+00 9.204e+00 -7.282e-04 -8.631e-05 -6.449e-05
51 1 3.896e+00 3.894e+00 7.432e+00 -7.433e-04 1.234e-03 1.226e-03
52 1 5.665e+00 3.894e+00 9.203e+00 -4.799e-04 -2.456e-03 -1.793e-03
53 1 7.433e+00 3.895e+00 7.432e+00 -5.623e-04 3.166e-03 2.340e-03
54 1 9.202e+00 3.894e+00 9.202e+00 -5.274e-04 -1.945e-03 -1.073e-03
55 1 2.125e+00 5.665e+00 3.551e-01 -6.524e-04 8.826e-04 6.757e-04
56 1 3.504e-01 5.667e+00 2.126e+00 -8.562e-04 6.226e-03 6.121e-03
57 1 5.665e+00 5.664e+00 3.551e-01 -7.087e-04 5.292e-04 1.828e-03
58 1 3.895e+00 5.665e+00 2.126e+00 -1.014e-03 -1.953e-04 -7.719e-04
59 1 9.202e+00 5.665e+00 3.561e-01 -8.131e-04 1.954e-04 1.646e-03
60 1 7.434e+00 5.674e+00 2.133e+00 -3.764e-02 1.409e+00 1.381e+00
61 1 3.504e-01 7.434e+00 3.578e-01 -2.420e-04 4.868e-03 6.958e-03
62 1 2.124e+00 9.203e+00 3.556e-01 -8.762e-04 2.695e-03 3.015e-03
63 1 2.124e+00 7.434e+00 2.120e+00 -1.590e-03 -3.902e-03 -4.038e-03
64 1 3.523e-01 9.201e+00 2.126e+00 -1.452e-03 5.965e-03 4.765e-03
65 1 3.898e+00 7.435e+00 3.579e-01 -2.116e-04 5.746e-03 6.880e-03
66 1 5.666e+00 9.204e+00 3.558e-01 1.766e-04 2.920e-03 4.016e-03
67 1 5.674e+00 7.434e+00 2.133e+00 2.370e-02 -4.268e-02 -5.174e-02
68 1 3.896e+00 9.201e+00 2.127e+00 -2.863e-04 8.238e-03 1.102e-02
69 1 7.433e+00 7.432e+00 3.452e-01 -2.883e-03 -2.100e-02 -2.047e-02
70 1 9.203e+00 9.202e+00 3.551e-01 -1.408e-04 -5.745e-04 2.706e-03
71 1 9.195e+00 7.434e+00 2.134e+00 -6.681e-02 1.108e-01 5.651e-02
72 1 7.434e+00 9.196e+00 2.133e+00 2.284e-02 -5.832e-02 -4.568e-02
73 1 2.123e+00 5.663e+00 3.893e+00 -3.514e-04 -3.209e-03 -2.440e-03
74 1 5.674e+00 5.674e+00 3.893e+00 9.581e-02 2.220e-01 1.990e-01
75 1 9.194e+00 5.674e+00 3.892e+00 -8.338e-02 9.294e-02 6.751e-02
76 1 3.638e-01 7.433e+00 3.895e+00 2.724e-04 1.208e-02 9.830e-03
77 1 2.123e+00 9.206e+00 3.894e+00 -6.905e-04 7.469e-03 8.040e-03
78 1 3.885e+00 7.435e+00 3.894e+00 -1.914e-03 7.169e-03 1.166e-02
79 1 5.675e+00 9.197e+00 3.893e+00 8.101e-03 -2.843e-01 -1.565e-01
80 1 9.195e+00 9.196e+00 3.895e+00 8.181e-03 -1.762e-01 -2.116e-01
81 1 3.520e-01 5.667e+00 5.662e+00 -1.660e-03 4.352e-03 5.278e-03
82 1 3.896e+00 5.666e+00 5.663e+00 -1.361e-03 9.993e-03 1.006e-02
83 1 7.435e+00 5.674e+00 5.656e+00 2.484e-02 -2.972e-01 -2.742e-01
84 1 2.125e+00 7.432e+00 5.665e+00 2.303e-04 6.951e-03 9.571e-03
85 1 3.513e-01 9.203e+00 5.662e+00 -2.048e-03 2.808e-03 2.587e-03
86 1 5.673e+00 7.434e+00 5.654e+00 6.434e-02 -2.951e-01 -2.313e-01
87 1 3.898e+00 9.204e+00 5.663e+00 2.992e-04 1.078e-04 -1.589e-03
88 1 9.194e+00 7.435e+00 5.656e+00 -1.262e-02 -2.299e-01 -3.026e-01
89 1 7.433e+00 9.195e+00 5.655e+00 1.193e-02 8.390e-02 1.262e-01
90 1 2.124e+00 5.664e+00 7.433e+00 -1.500e-03 3.555e-03 3.976e-03
91 1 3.542e-01 5.664e+00 9.201e+00 -4.198e-04 -1.380e-04 9.022e-04
92 1 5.666e+00 5.666e+00 7.432e+00 7.947e-04 -3.628e-03 -1.715e-03
93 1 3.894e+00 5.665e+00 9.203e+00 -6.501e-04 -8.350e-04 -2.599e-05
94 1 9.202e+00 5.667e+00 7.431e+00 4.550e-04 -8.838e-04 9.306e-04
95 1 7.436e+00 5.662e+00 9.206e+00 -6.323e-04 -4.010e-03 -1.537e-03
96 1 3.513e-01 7.436e+00 7.430e+00 -1.982e-03 -2.146e-03 -7.660e-04
97 1 2.125e+00 9.203e+00 7.433e+00 -8.883e-04 1.782e-03 1.203e-03
98 1 2.123e+00 7.433e+00 9.203e+00 -9.276e-04 1.372e-03 1.546e-03
99 1 3.540e-01 9.203e+00 9.205e+00 -2.987e-04 -1.417e-03 3.576e-07
100 1 3.899e+00 7.434e+00 7.431e+00 -8.676e-04 -1.318e-03 -1.801e-03
101 1 5.665e+00 9.203e+00 7.432e+00 -9.496e-04 -5.243e-03 -3.245e-03
102 1 5.663e+00 7.432e+00 9.203e+00 -1.197e-03 -3.669e-04 3.102e-03
103 1 3.895e+00 9.203e+00 9.204e+00 -1.010e-03 7.069e-05 5.865e-04
104 1 7.433e+00 7.434e+00 7.443e+00 4.882e-03 1.768e-02 2.608e-02
105 1 9.203e+00 9.202e+00 7.431e+00 -3.587e-04 -5.769e-03 -3.926e-03
106 1 9.204e+00 7.435e+00 9.204e+00 6.024e-04 1.373e-04 1.194e-03
107 1 7.435e+00 9.205e+00 9.205e+00 6.179e-04 8.132e-03 8.205e-03
ITEM: TIMESTEP
0
ITEM: NUMBER OF ATOMS
107
ITEM: BOX BOUNDS xy xz yz pp pp pp
                     0.00000000000000e+00 1.06000000000000e+01 0.00000000000000e+00
0.00000000000000e+00	1.06000000000000e+01	0.00000000000000e+00
0.00000000000000e+00	1.06000000000000e+01	0.00000000000000e+00
ITEM: ATOMS id type x y z DisplacementX DisplacementY DisplacementZ
1 1 3.516e-01 3.525e-01 3.561e-01 1.644e-03 -1.085e-04 1.692e-03
2 1 2.126e+00 2.124e+00 3.520e-01 8.991e-04 1.418e-04 1.516e-03
3 1 2.123e+00 3.525e-01 2.124e+00 -1.985e-03 -2.886e-04 -7.398e-04
4 1 3.530e-01 2.123e+00 2.125e+00 3.969e-03 -2.284e-04 4.010e-03
5 1 3.896e+00 3.521e-01 3.562e-01 -4.023e-04 2.578e-04 5.086e-04
6 1 5.664e+00 2.124e+00 3.540e-01 1.895e-03 6.248e-04 2.950e-03
7 1 5.667e+00 3.519e-01 2.127e+00 1.485e-03 9.838e-04 3.021e-03
8 1 3.897e+00 2.124e+00 2.125e+00 9.654e-04 5.692e-04 2.537e-03
9 1 7.434e+00 3.516e-01 3.572e-01 5.700e-03 -8.681e-05 5.950e-03
10 1 9.204e+00 2.124e+00 3.560e-01 3.458e-03 -2.638e-04 2.850e-03
11 1 9.202e+00 3.516e-01 2.125e+00 7.611e-03 -7.336e-04 6.351e-03
12 1 7.433e+00 2.123e+00 2.124e+00 -6.671e-03 -1.226e-03 -6.361e-03
13 1 3.539e-01 3.896e+00 3.552e-01 2.344e-03 4.575e-05 2.672e-03
14 1 2.124e+00 3.893e+00 2.125e+00 8.571e-04 2.735e-04 2.277e-03
15 1 3.896e+00 3.894e+00 3.565e-01 9.056e-04 5.227e-04 1.600e-03
16 1 5.667e+00 3.896e+00 2.127e+00 1.451e-03 6.930e-04 4.049e-03
17 1 7.433e+00 3.899e+00 3.570e-01 5.781e-03 5.727e-04 5.484e-03
18 1 9.202e+00 3.896e+00 2.125e+00 4.727e-03 -6.909e-04 4.317e-03
19 1 3.509e-01 3.511e-01 3.894e+00 -2.569e-03 -8.175e-04 -2.327e-03
20 1 2.124e+00 2.125e+00 3.892e+00 1.037e-03 1.938e-04 2.634e-03
21 1 3.898e+00 3.508e-01 3.894e+00 7.941e-04 7.797e-04 3.635e-03
22 1 5.660e+00 2.125e+00 3.895e+00 -3.194e-03 -9.391e-04 -3.785e-03
23 1 7.435e+00 3.641e-01 3.895e+00 8.616e-03 3.910e-04 1.111e-02
24 1 9.207e+00 2.124e+00 3.892e+00 3.895e-03 5.074e-04 5.830e-03
25 1 3.526e-01 3.896e+00 3.893e+00 -2.999e-04 1.126e-05 1.603e-03
26 1 3.898e+00 3.899e+00 3.894e+00 4.817e-03 -2.321e-04 6.445e-03
27 1 7.436e+00 3.887e+00 3.893e+00 -2.266e-03 -3.391e-04 -1.143e-03
28 1 2.124e+00 3.526e-01 5.663e+00 1.591e-04 -1.237e-04 1.189e-03
29 1 3.525e-01 2.123e+00 5.664e+00 1.159e-03 2.241e-04 2.430e-03
30 1 5.665e+00 3.506e-01 5.664e+00 4.664e-03 9.414e-04 8.051e-03
31 1 3.894e+00 2.123e+00 5.660e+00 1.447e-03 5.889e-05 2.302e-03
32 1 9.202e+00 3.505e-01 5.663e+00 6.399e-04 -1.648e-04 2.662e-03
33 1 7.433e+00 2.123e+00 5.666e+00 3.438e-03 -9.314e-04 4.871e-03
34 1 2.122e+00 3.893e+00 5.663e+00 7.446e-04 2.620e-05 2.965e-03
35 1 5.666e+00 3.896e+00 5.664e+00 2.947e-03 -1.566e-03 1.756e-03
36 1 9.202e+00 3.896e+00 5.661e+00 -1.740e-03 1.651e-04 -1.029e-03
37 1 3.531e-01 3.525e-01 7.432e+00 5.311e-05 -2.761e-05 2.348e-04
38 1 2.124e+00 2.124e+00 7.436e+00 1.034e-03 1.003e-04 1.825e-03
39 1 2.124e+00 3.519e-01 9.204e+00 4.573e-04 1.282e-04 9.120e-04
40 1 3.538e-01 2.122e+00 9.204e+00 1.653e-03 1.568e-04 1.972e-03
41 1 3.896e+00 3.543e-01 7.433e+00 1.662e-03 3.502e-04 2.423e-03
42 1 5.664e+00 2.123e+00 7.434e+00 2.499e-03 1.154e-05 3.139e-03
43 1 5.664e+00 3.534e-01 9.205e+00 9.886e-04 3.289e-04 4.058e-04
44 1 3.896e+00 2.123e+00 9.204e+00 1.162e-03 2.728e-04 1.615e-03
45 1 7.434e+00 3.508e-01 7.431e+00 -2.975e-04 5.477e-04 -7.568e-04
46 1 9.204e+00 2.123e+00 7.432e+00 1.623e-03 3.428e-04 2.493e-03
47 1 9.202e+00 3.537e-01 9.204e+00 1.390e-03 -2.929e-05 4.081e-04
48 1 7.436e+00 2.124e+00 9.204e+00 4.179e-03 9.106e-04 3.910e-03
49 1 3.531e-01 3.894e+00 7.433e+00 -3.204e-04 4.479e-04 1.214e-03
50 1 2.123e+00 3.895e+00 9.204e+00 7.814e-04 2.566e-04 1.446e-03
51 1 3.896e+00 3.894e+00 7.432e+00 1.763e-03 -2.005e-04 1.866e-03
52 1 5.665e+00 3.894e+00 9.203e+00 1.257e-03 5.165e-04 5.567e-04
53 1 7.433e+00 3.895e+00 7.432e+00 -2.519e-04 2.657e-04 -8.180e-04
54 1 9.202e+00 3.894e+00 9.202e+00 1.854e-03 5.166e-04 2.465e-03
55 1 2.125e+00 5.665e+00 3.551e-01 8.953e-05 3.214e-04 9.647e-04
56 1 3.504e-01 5.667e+00 2.126e+00 2.744e-04 -8.747e-04 2.057e-03
57 1 5.665e+00 5.664e+00 3.551e-01 -6.080e-04 -5.879e-04 -3.015e-03
58 1 3.895e+00 5.665e+00 2.126e+00 -4.523e-04 9.673e-04 1.897e-03
59 1 9.202e+00 5.665e+00 3.561e-01 2.720e-03 8.514e-04 3.089e-03
60 1 7.434e+00 5.674e+00 2.133e+00 -1.962e-02 5.035e-02 6.747e-02
61 1 3.504e-01 7.434e+00 3.578e-01 1.813e-03 -2.444e-04 2.723e-03
62 1 2.124e+00 9.203e+00 3.556e-01 -2.517e-03 2.205e-04 -2.050e-03
63 1 2.124e+00 7.434e+00 2.120e+00 4.574e-04 -5.138e-04 -3.078e-04
64 1 3.523e-01 9.201e+00 2.126e+00 -3.853e-03 2.216e-04 -2.288e-03
65 1 3.898e+00 7.435e+00 3.579e-01 -2.310e-03 4.292e-04 -1.781e-03
66 1 5.666e+00 9.204e+00 3.558e-01 4.446e-04 2.128e-04 7.025e-04
67 1 5.674e+00 7.434e+00 2.133e+00 1.326e+00 9.842e-03 1.362e+00
68 1 3.896e+00 9.201e+00 2.127e+00 -3.047e-03 -1.011e-03 -1.608e-03
69 1 7.433e+00 7.432e+00 3.452e-01 -1.533e-02 4.308e-04 -1.990e-02
70 1 9.203e+00 9.202e+00 3.551e-01 3.645e-03 -9.245e-04 3.556e-03
71 1 9.195e+00 7.434e+00 2.134e+00 -2.157e-01 7.478e-02 -1.545e-01
72 1 7.434e+00 9.196e+00 2.133e+00 -1.411e-01 2.999e-02 -4.844e-02
73 1 2.123e+00 5.663e+00 3.893e+00 -2.084e-03 -1.372e-04 -1.224e-03
74 1 5.674e+00 5.674e+00 3.893e+00 2.417e-01 3.709e-02 1.916e-01
75 1 9.194e+00 5.674e+00 3.892e+00 -1.660e-01 7.390e-02 -1.614e-01
76 1 3.638e-01 7.433e+00 3.895e+00 1.309e-02 9.950e-04 1.719e-02
77 1 2.123e+00 9.206e+00 3.894e+00 2.415e-03 -1.004e-03 3.525e-03
78 1 3.885e+00 7.435e+00 3.894e+00 -1.857e-02 -1.192e-03 -1.536e-02
79 1 5.675e+00 9.197e+00 3.893e+00 2.979e-01 -7.249e-02 1.308e-01
80 1 9.195e+00 9.196e+00 3.895e+00 -2.288e-01 6.477e-02 -1.903e-01
81 1 3.520e-01 5.667e+00 5.662e+00 -4.414e-03 5.455e-04 -2.182e-04
82 1 3.896e+00 5.666e+00 5.663e+00 2.999e-03 -1.484e-03 4.645e-03
83 1 7.435e+00 5.674e+00 5.656e+00 -1.566e-01 -7.065e-02 -1.888e-01
84 1 2.125e+00 7.432e+00 5.665e+00 2.666e-03 -1.135e-03 3.077e-03
85 1 3.513e-01 9.203e+00 5.662e+00 -5.421e-03 3.104e-04 -3.014e-03
86 1 5.673e+00 7.434e+00 5.654e+00 -1.371e-01 -1.304e-01 -1.662e-01
87 1 3.898e+00 9.204e+00 5.663e+00 2.790e-03 -2.641e-04 3.800e-03
88 1 9.194e+00 7.435e+00 5.656e+00 4.451e-02 3.698e-02 -6.282e-02
89 1 7.433e+00 9.195e+00 5.655e+00 -3.284e-01 -9.572e-02 -3.219e-01
90 1 2.124e+00 5.664e+00 7.433e+00 -1.231e-04 -1.651e-05 1.732e-03
91 1 3.542e-01 5.664e+00 9.201e+00 8.143e-04 4.218e-04 1.231e-03
92 1 5.666e+00 5.666e+00 7.432e+00 2.038e-03 1.097e-03 7.801e-04
93 1 3.894e+00 5.665e+00 9.203e+00 2.100e-04 4.180e-04 -2.423e-04
94 1 9.202e+00 5.667e+00 7.431e+00 -1.094e-03 -3.182e-04 -1.156e-03
95 1 7.436e+00 5.662e+00 9.206e+00 -1.439e-03 -1.235e-03 -1.086e-03
96 1 3.513e-01 7.436e+00 7.430e+00 -7.999e-03 2.315e-04 -6.676e-03
97 1 2.125e+00 9.203e+00 7.433e+00 1.556e-05 -3.240e-05 1.154e-03
98 1 2.123e+00 7.433e+00 9.203e+00 -1.475e-03 6.821e-04 -5.447e-04
99 1 3.540e-01 9.203e+00 9.205e+00 1.883e-03 -1.720e-04 1.113e-03
100 1 3.899e+00 7.434e+00 7.431e+00 4.406e-03 5.021e-05 3.821e-03
101 1 5.665e+00 9.203e+00 7.432e+00 -1.528e-04 2.073e-04 -2.048e-03
102 1 5.663e+00 7.432e+00 9.203e+00 -7.991e-04 -1.532e-03 2.042e-04
103 1 3.895e+00 9.203e+00 9.204e+00 -2.941e-04 3.599e-04 9.373e-05
104 1 7.433e+00 7.434e+00 7.443e+00 1.263e-02 -9.775e-04 1.171e-02
105 1 9.203e+00 9.202e+00 7.431e+00 -1.150e-03 -2.987e-04 -4.716e-03
106 1 9.204e+00 7.435e+00 9.204e+00 5.455e-03 -5.363e-04 3.227e-03
107 1 7.435e+00 9.205e+00 9.205e+00 -2.871e-03 -5.441e-04 -3.597e-03
ITEM: TIMESTEP
0
ITEM: NUMBER OF ATOMS
107
ITEM: BOX BOUNDS xy xz yz pp pp pp
                     0.00000000000000e+00 1.06000000000000e+01 0.00000000000000e+00
0.00000000000000e+00	1.06000000000000e+01	0.00000000000000e+00
0.00000000000000e+00	1.06000000000000e+01	0.00000000000000e+00
ITEM: ATOMS id type x y z DisplacementX DisplacementY DisplacementZ
1 1 3.516e-01 3.525e-01 3.561e-01 -1.599e-03 1.105e-04 3.008e-03
2 1 2.126e+00 2.124e+00 3.520e-01 -2.193e-03 1.338e-04 3.883e-03
3 1 2.123e+00 3.525e-01 2.124e+00 -6.345e-04 2.700e-04 2.179e-03
4 1 3.530e-01 2.123e+00 2.125e+00 -4.561e-03 -6.288e-04 5.925e-03
5 1 3.896e+00 3.521e-01 3.562e-01 -2.829e-03 5.692e-06 4.945e-03
6 1 5.664e+00 2.124e+00 3.540e-01 -5.269e-03 -1.358e-04 7.893e-03
7 1 5.667e+00 3.519e-01 2.127e+00 -1.333e-02 -1.206e-03 1.563e-02
8 1 3.897e+00 2.124e+00 2.125e+00 -7.623e-03 -5.060e-04 9.064e-03
9 1 7.434e+00 3.516e-01 3.572e-01 -1.078e-02 -1.493e-03 1.175e-02
10 1 9.204e+00 2.124e+00 3.560e-01 -3.893e-03 -7.178e-04 5.994e-03
11 1 9.202e+00 3.516e-01 2.125e+00 -7.965e-03 -1.351e-03 8.504e-03
12 1 7.433e+00 2.123e+00 2.124e+00 1.023e-02 1.992e-03 -4.455e-03
13 1 3.539e-01 3.896e+00 3.552e-01 -4.393e-04 -1.463e-04 2.263e-03
14 1 2.124e+00 3.893e+00 2.125e+00 -2.807e-03 -1.254e-04 3.557e-03
15 1 3.896e+00 3.894e+00 3.565e-01 -3.774e-03 4.872e-04 5.148e-03
16 1 5.667e+00 3.896e+00 2.127e+00 -9.045e-03 -6.040e-04 1.122e-02
17 1 7.433e+00 3.899e+00 3.570e-01 -4.345e-03 1.034e-04 6.193e-03
18 1 9.202e+00 3.896e+00 2.125e+00 -4.205e-03 -1.631e-03 7.112e-03
19 1 3.509e-01 3.511e-01 3.894e+00 -8.588e-03 -6.225e-04 9.307e-03
20 1 2.124e+00 2.125e+00 3.892e+00 -4.986e-03 -5.867e-04 6.122e-03
21 1 3.898e+00 3.508e-01 3.894e+00 -4.458e-03 -2.170e-03 4.554e-03
22 1 5.660e+00 2.125e+00 3.895e+00 -5.038e-03 -1.609e-04 7.171e-03
23 1 7.435e+00 3.641e-01 3.895e+00 3.221e-03 2.929e-03 3.656e-03
24 1 9.207e+00 2.124e+00 3.892e+00 -5.648e-04 1.045e-04 1.635e-03
25 1 3.526e-01 3.896e+00 3.893e+00 -3.839e-03 -5.005e-04 6.229e-03
26 1 3.898e+00 3.899e+00 3.894e+00 -2.348e-03 9.542e-04 3.259e-03
27 1 7.436e+00 3.887e+00 3.893e+00 -2.715e-02 -9.127e-03 2.598e-02
28 1 2.124e+00 3.526e-01 5.663e+00 -2.497e-03 8.080e-05 3.305e-03
29 1 3.525e-01 2.123e+00 5.664e+00 -4.289e-03 -1.673e-06 6.815e-03
30 1 5.665e+00 3.506e-01 5.664e+00 -3.334e-03 -1.927e-03 3.833e-03
31 1 3.894e+00 2.123e+00 5.660e+00 -3.919e-03 -8.771e-04 5.964e-03
32 1 9.202e+00 3.505e-01 5.663e+00 -7.406e-03 -6.054e-04 1.280e-02
33 1 7.433e+00 2.123e+00 5.666e+00 -9.052e-03 -5.530e-04 9.115e-03
34 1 2.122e+00 3.893e+00 5.663e+00 -2.598e-03 3.647e-05 3.451e-03
35 1 5.666e+00 3.896e+00 5.664e+00 -2.139e-03 -1.218e-03 7.664e-03
36 1 9.202e+00 3.896e+00 5.661e+00 -7.342e-03 -2.218e-04 9.167e-03
37 1 3.531e-01 3.525e-01 7.432e+00 -2.302e-03 6.966e-04 4.337e-03
38 1 2.124e+00 2.124e+00 7.436e+00 -2.157e-03 1.109e-04 3.985e-03
39 1 2.124e+00 3.519e-01 9.204e+00 -9.776e-04 3.255e-04 2.834e-03
40 1 3.538e-01 2.122e+00 9.204e+00 -1.633e-03 2.160e-04 3.700e-03
41 1 3.896e+00 3.543e-01 7.433e+00 -8.556e-04 -3.919e-04 2.540e-03
42 1 5.664e+00 2.123e+00 7.434e+00 -2.923e-03 -8.831e-04 5.768e-03
43 1 5.664e+00 3.534e-01 9.205e+00 -3.588e-04 8.658e-05 3.166e-03
44 1 3.896e+00 2.123e+00 9.204e+00 -2.202e-03 9.194e-05 4.234e-03
45 1 7.434e+00 3.508e-01 7.431e+00 2.590e-05 -4.755e-04 3.523e-03
46 1 9.204e+00 2.123e+00 7.432e+00 -4.008e-03 -1.472e-04 7.357e-03
47 1 9.202e+00 3.537e-01 9.204e+00 2.777e-04 9.010e-04 1.918e-03
48 1 7.436e+00 2.124e+00 9.204e+00 -3.790e-03 -4.713e-04 6.704e-03
49 1 3.531e-01 3.894e+00 7.433e+00 -1.777e-03 4.185e-04 4.346e-03
50 1 2.123e+00 3.895e+00 9.204e+00 -1.158e-03 2.848e-04 2.944e-03
51 1 3.896e+00 3.894e+00 7.432e+00 1.522e-04 3.745e-04 1.956e-03
52 1 5.665e+00 3.894e+00 9.203e+00 -7.844e-04 4.896e-04 2.790e-03
53 1 7.433e+00 3.895e+00 7.432e+00 5.783e-03 1.890e-03 1.963e-04
54 1 9.202e+00 3.894e+00 9.202e+00 1.133e-03 7.140e-04 1.973e-03
55 1 2.125e+00 5.665e+00 3.551e-01 -6.397e-04 4.615e-04 1.033e-03
56 1 3.504e-01 5.667e+00 2.126e+00 5.414e-04 -8.262e-04 -1.160e-03
57 1 5.665e+00 5.664e+00 3.551e-01 -6.519e-04 7.616e-04 2.781e-03
58 1 3.895e+00 5.665e+00 2.126e+00 -2.476e-03 1.467e-03 2.557e-03
59 1 9.202e+00 5.665e+00 3.561e-01 7.120e-03 2.033e-03 -2.680e-03
60 1 7.434e+00 5.674e+00 2.133e+00 5.520e-02 -3.018e-02 -1.181e-01
61 1 3.504e-01 7.434e+00 3.578e-01 4.173e-03 6.830e-05 -3.027e-03
62 1 2.124e+00 9.203e+00 3.556e-01 3.869e-04 3.624e-04 4.380e-04
63 1 2.124e+00 7.434e+00 2.120e+00 2.293e-03 2.117e-03 -2.016e-03
64 1 3.523e-01 9.201e+00 2.126e+00 -2.839e-03 -5.879e-04 1.807e-03
65 1 3.898e+00 7.435e+00 3.579e-01 -4.546e-03 4.538e-04 5.027e-03
66 1 5.666e+00 9.204e+00 3.558e-01 -3.833e-04 2.780e-04 2.677e-03
67 1 5.674e+00 7.434e+00 2.133e+00 3.005e-02 1.599e-02 -2.378e-01
68 1 3.896e+00 9.201e+00 2.127e+00 1.899e-03 1.245e-03 -7.325e-04
69 1 7.433e+00 7.432e+00 3.452e-01 3.561e-02 7.825e-03 -2.352e-02
70 1 9.203e+00 9.202e+00 3.551e-01 5.585e-03 2.179e-03 -1.472e-03
71 1 9.195e+00 7.434e+00 2.134e+00 -1.378e+00 -1.177e-01 1.276e+00
72 1 7.434e+00 9.196e+00 2.133e+00 4.254e-02 -4.718e-02 -1.470e-01
73 1 2.123e+00 5.663e+00 3.893e+00 -4.334e-03 -1.512e-03 4.675e-03
74 1 5.674e+00 5.674e+00 3.893e+00 3.227e-01 3.020e-02 -3.270e-01
75 1 9.194e+00 5.674e+00 3.892e+00 2.299e-01 3.219e-02 -1.561e-02
76 1 3.638e-01 7.433e+00 3.895e+00 6.398e-03 2.931e-04 -1.401e-02
77 1 2.123e+00 9.206e+00 3.894e+00 2.744e-03 1.724e-03 3.888e-04
78 1 3.885e+00 7.435e+00 3.894e+00 -9.352e-03 5.061e-04 9.204e-03
79 1 5.675e+00 9.197e+00 3.893e+00 4.549e-02 3.637e-02 -8.968e-02
80 1 9.195e+00 9.196e+00 3.895e+00 -8.371e-02 -7.649e-02 1.382e-01
81 1 3.520e-01 5.667e+00 5.662e+00 -3.748e-03 1.162e-03 6.652e-03
82 1 3.896e+00 5.666e+00 5.663e+00 2.787e-03 9.096e-05 -5.285e-03
83 1 7.435e+00 5.674e+00 5.656e+00 5.587e-02 3.635e-02 -1.595e-01
84 1 2.125e+00 7.432e+00 5.665e+00 -5.746e-03 1.543e-04 5.672e-03
85 1 3.513e-01 9.203e+00 5.662e+00 -4.240e-03 8.662e-04 2.449e-03
86 1 5.673e+00 7.434e+00 5.654e+00 -1.393e-01 1.169e-01 1.896e-01
87 1 3.898e+00 9.204e+00 5.663e+00 1.236e-03 -2.342e-05 -1.464e-03
88 1 9.194e+00 7.435e+00 5.656e+00 1.784e-01 -1.306e-01 -7.054e-02
89 1 7.433e+00 9.195e+00 5.655e+00 2.258e-01 1.125e-01 -2.114e-01
90 1 2.124e+00 5.664e+00 7.433e+00 -5.892e-04 4.042e-04 1.848e-03
91 1 3.542e-01 5.664e+00 9.201e+00 3.002e-03 6.483e-04 -4.894e-04
92 1 5.666e+00 5.666e+00 7.432e+00 7.072e-03 2.718e-03 -3.887e-03
93 1 3.894e+00 5.665e+00 9.203e+00 7.122e-04 1.060e-03 1.527e-03
94 1 9.202e+00 5.667e+00 7.431e+00 5.115e-03 1.439e-03 -1.294e-03
95 1 7.436e+00 5.662e+00 9.206e+00 -3.581e-03 6.838e-05 3.820e-03
96 1 3.513e-01 7.436e+00 7.430e+00 -3.058e-04 2.561e-03 3.108e-03
97 1 2.125e+00 9.203e+00 7.433e+00 -7.395e-04 5.969e-04 1.501e-03
98 1 2.123e+00 7.433e+00 9.203e+00 2.040e-03 4.796e-04 -2.889e-04
99 1 3.540e-01 9.203e+00 9.205e+00 1.864e-03 1.293e-03 1.644e-04
100 1 3.899e+00 7.434e+00 7.431e+00 1.002e-02 7.987e-04 -8.975e-03
101 1 5.665e+00 9.203e+00 7.432e+00 5.181e-03 2.805e-04 -2.285e-03
102 1 5.663e+00 7.432e+00 9.203e+00 3.864e-04 2.752e-03 2.745e-03
103 1 3.895e+00 9.203e+00 9.204e+00 2.998e-04 2.570e-04 2.077e-03
104 1 7.433e+00 7.434e+00 7.443e+00 -1.534e-02 -2.110e-03 1.062e-02
105 1 9.203e+00 9.202e+00 7.431e+00 9.402e-04 2.158e-03 -1.895e-05
106 1 9.204e+00 7.435e+00 9.204e+00 -1.021e-04 -4.447e-05 1.537e-04
107 1 7.435e+00 9.205e+00 9.205e+00 7.459e-03 2.893e-03 -4.210e-03
ITEM: TIMESTEP
0
ITEM: NUMBER OF ATOMS
107
ITEM: BOX BOUNDS xy xz yz pp pp pp
                     0.00000000000000e+00 1.06000000000000e+01 0.00000000000000e+00
0.00000000000000e+00	1.06000000000000e+01	0.00000000000000e+00
0.00000000000000e+00	1.06000000000000e+01	0.00000000000000e+00
ITEM: ATOMS id type x y z DisplacementX DisplacementY DisplacementZ
1 1 3.516e-01 3.525e-01 3.561e-01 -4.830e-04 -1.891e-03 -1.828e-03
2 1 2.126e+00 2.124e+00 3.520e-01 -2.996e-04 -2.841e-03 -1.303e-03
3 1 2.123e+00 3.525e-01 2.124e+00 -1.627e-04 -6.407e-03 2.802e-03
4 1 3.530e-01 2.123e+00 2.125e+00 -7.357e-04 -1.241e-03 -2.380e-03
5 1 3.896e+00 3.521e-01 3.562e-01 -1.244e-04 -2.420e-03 -2.281e-03
6 1 5.664e+00 2.124e+00 3.540e-01 -5.106e-04 -9.133e-04 -4.177e-03
7 1 5.667e+00 3.519e-01 2.127e+00 -9.615e-04 -6.625e-05 -5.860e-03
8 1 3.897e+00 2.124e+00 2.125e+00 -7.324e-04 -1.623e-03 -2.882e-03
9 1 7.434e+00 3.516e-01 3.572e-01 -3.788e-04 6.385e-03 -1.143e-02
10 1 9.204e+00 2.124e+00 3.560e-01 -7.000e-04 -3.938e-04 -3.391e-03
11 1 9.202e+00 3.516e-01 2.125e+00 -1.347e-03 1.523e-03 -3.872e-03
12 1 7.433e+00 2.123e+00 2.124e+00 1.019e-03 -8.475e-03 5.289e-03
13 1 3.539e-01 3.896e+00 3.552e-01 -1.886e-04 -3.038e-03 -8.925e-04
14 1 2.124e+00 3.893e+00 2.125e+00 -1.863e-04 -4.443e-03 3.999e-04
15 1 3.896e+00 3.894e+00 3.565e-01 -4.237e-04 -3.552e-03 -1.444e-03
16 1 5.667e+00 3.896e+00 2.127e+00 -3.295e-04 -3.592e-03 -1.056e-03
17 1 7.433e+00 3.899e+00 3.570e-01 -1.246e-03 -5.071e-03 1.806e-05
18 1 9.202e+00 3.896e+00 2.125e+00 -1.404e-03 -2.258e-03 -1.218e-03
19 1 3.509e-01 3.511e-01 3.894e+00 -1.834e-03 -6.372e-03 4.481e-03
20 1 2.124e+00 2.125e+00 3.892e+00 -7.548e-04 -3.712e-03 6.391e-04
21 1 3.898e+00 3.508e-01 3.894e+00 7.753e-04 -9.697e-03 2.095e-03
22 1 5.660e+00 2.125e+00 3.895e+00 -2.483e-03 -1.031e-03 -1.195e-03
23 1 7.435e+00 3.641e-01 3.895e+00 -3.723e-03 1.237e-02 -9.266e-03
24 1 9.207e+00 2.124e+00 3.892e+00 1.283e-03 -4.642e-03 -3.929e-03
25 1 3.526e-01 3.896e+00 3.893e+00 -1.293e-03 2.160e-04 -1.698e-03
26 1 3.898e+00 3.899e+00 3.894e+00 -2.783e-04 -7.645e-04 -2.791e-03
27 1 7.436e+00 3.887e+00 3.893e+00 -9.542e-04 -1.812e-02 5.863e-03
28 1 2.124e+00 3.526e-01 5.663e+00 -4.274e-04 -4.159e-03 1.865e-04
29 1 3.525e-01 2.123e+00 5.664e+00 -7.704e-04 -2.894e-03 -1.039e-03
30 1 5.665e+00 3.506e-01 5.664e+00 8.647e-04 -6.651e-03 1.239e-03
31 1 3.894e+00 2.123e+00 5.660e+00 -8.306e-04 -2.612e-03 -6.880e-04
32 1 9.202e+00 3.505e-01 5.663e+00 -9.395e-04 -5.380e-03 1.703e-03
33 1 7.433e+00 2.123e+00 5.666e+00 5.602e-04 -5.824e-03 1.037e-03
34 1 2.122e+00 3.893e+00 5.663e+00 1.773e-04 -2.948e-03 -7.106e-04
35 1 5.666e+00 3.896e+00 5.664e+00 -2.096e-03 2.475e-03 -3.302e-03
36 1 9.202e+00 3.896e+00 5.661e+00 -1.898e-03 4.000e-04 -4.733e-03
37 1 3.531e-01 3.525e-01 7.432e+00 -3.756e-04 -2.929e-03 -1.296e-03
38 1 2.124e+00 2.124e+00 7.436e+00 -3.262e-04 -2.695e-03 -1.291e-03
39 1 2.124e+00 3.519e-01 9.204e+00 -2.547e-04 -2.723e-03 -1.524e-03
40 1 3.538e-01 2.122e+00 9.204e+00 -3.152e-04 -1.913e-03 -2.386e-03
41 1 3.896e+00 3.543e-01 7.433e+00 -2.890e-04 -3.538e-03 -1.279e-03
42 1 5.664e+00 2.123e+00 7.434e+00 -4.422e-04 -1.803e-03 -1.731e-03
43 1 5.664e+00 3.534e-01 9.205e+00 -6.414e-04 -1.666e-04 -4.662e-03
44 1 3.896e+00 2.123e+00 9.204e+00 -3.644e-04 -1.962e-03 -2.371e-03
45 1 7.434e+00 3.508e-01 7.431e+00 -1.438e-04 -6.542e-03 -8.133e-04
46 1 9.204e+00 2.123e+00 7.432e+00 -8.319e-04 -2.016e-03 -2.123e-03
47 1 9.202e+00 3.537e-01 9.204e+00 -4.595e-04 2.505e-04 -4.848e-03
48 1 7.436e+00 2.124e+00 9.204e+00 -1.039e-03 2.125e-03 -6.980e-03
49 1 3.531e-01 3.894e+00 7.433e+00 -3.414e-04 -1.814e-03 -2.444e-03
50 1 2.123e+00 3.895e+00 9.204e+00 -1.201e-04 -2.897e-03 -1.455e-03
51 1 3.896e+00 3.894e+00 7.432e+00 -7.388e-05 -1.225e-03 -2.139e-03
52 1 5.665e+00 3.894e+00 9.203e+00 -1.990e-04 -2.339e-03 -2.912e-03
53 1 7.433e+00 3.895e+00 7.432e+00 -5.283e-04 5.140e-03 -6.874e-03
54 1 9.202e+00 3.894e+00 9.202e+00 2.555e-04 -2.233e-03 -2.557e-03
55 1 2.125e+00 5.665e+00 3.551e-01 1.343e-04 -4.436e-03 -1.063e-04
56 1 3.504e-01 5.667e+00 2.126e+00 4.537e-04 -7.513e-03 4.161e-03
57 1 5.665e+00 5.664e+00 3.551e-01 -1.162e-03 -4.555e-03 -1.563e-03
58 1 3.895e+00 5.665e+00 2.126e+00 -5.577e-04 -7.830e-03 2.587e-03
59 1 9.202e+00 5.665e+00 3.561e-01 -2.461e-04 -3.401e-03 -5.372e-04
60 1 7.434e+00 5.674e+00 2.133e+00 8.045e-02 2.495e-01 -5.670e-02
61 1 3.504e-01 7.434e+00 3.578e-01 -4.158e-04 -5.470e-03 3.445e-03
62 1 2.124e+00 9.203e+00 3.556e-01 -3.703e-04 -6.580e-03 2.268e-03
63 1 2.124e+00 7.434e+00 2.120e+00 2.658e-04 5.548e-04 -5.347e-03
64 1 3.523e-01 9.201e+00 2.126e+00 -1.221e-03 -5.813e-03 3.868e-03
65 1 3.898e+00 7.435e+00 3.579e-01 1.390e-04 -8.468e-03 1.273e-03
66 1 5.666e+00 9.204e+00 3.558e-01 1.201e-03 1.534e-03 -5.890e-03
67 1 5.674e+00 7.434e+00 2.133e+00 4.404e-02 9.228e-02 -9.508e-02
68 1 3.896e+00 9.201e+00 2.127e+00 5.951e-04 -7.956e-03 3.115e-03
69 1 7.433e+00 7.432e+00 3.452e-01 3.515e-03 7.884e-03 -1.430e-02
70 1 9.203e+00 9.202e+00 3.551e-01 3.981e-04 1.445e-03 -6.625e-03
71 1 9.195e+00 7.434e+00 2.134e+00 -6.699e-02 1.531e-01 -1.463e-04
72 1 7.434e+00 9.196e+00 2.133e+00 -2.498e-02 -1.589e+00 1.528e+00
73 1 2.123e+00 5.663e+00 3.893e+00 5.337e-05 -9.138e-03 2.259e-03
74 1 5.674e+00 5.674e+00 3.893e+00 5.678e-02 3.993e-02 -1.994e-01
75 1 9.194e+00 5.674e+00 3.892e+00 -6.834e-02 2.255e-01 -2.806e-02
76 1 3.638e-01 7.433e+00 3.895e+00 3.786e-03 -1.622e-02 -1.647e-03
77 1 2.123e+00 9.206e+00 3.894e+00 4.328e-04 1.068e-03 -4.855e-03
78 1 3.885e+00 7.435e+00 3.894e+00 -5.075e-03 -1.871e-04 1.040e-02
79 1 5.675e+00 9.197e+00 3.893e+00 -1.726e-03 2.537e-02 -1.404e-01
80 1 9.195e+00 9.196e+00 3.895e+00 -1.316e-02 2.969e-02 -4.234e-02
81 1 3.520e-01 5.667e+00 5.662e+00 -3.708e-05 -1.529e-03 -7.586e-04
82 1 3.896e+00 5.666e+00 5.663e+00 5.230e-04 -2.317e-03 -2.189e-03
83 1 7.435e+00 5.674e+00 5.656e+00 2.134e-02 9.839e-02 -1.200e-01
84 1 2.125e+00 7.432e+00 5.665e+00 -1.074e-03 -6.321e-03 1.842e-03
85 1 3.513e-01 9.203e+00 5.662e+00 -8.744e-04 -9.006e-03 2.596e-03
86 1 5.673e+00 7.434e+00 5.654e+00 1.825e-02 1.268e-01 -9.340e-02
87 1 3.898e+00 9.204e+00 5.663e+00 1.594e-04 -6.956e-03 3.870e-03
88 1 9.194e+00 7.435e+00 5.656e+00 -6.555e-03 2.184e-01 -4.483e-02
89 1 7.433e+00 9.195e+00 5.655e+00 -8.035e-03 7.542e-02 -6.966e-03
90 1 2.124e+00 5.664e+00 7.433e+00 -2.131e-04 -2.568e-03 -1.547e-03
91 1 3.542e-01 5.664e+00 9.201e+00 4.411e-05 -3.167e-03 -1.818e-03
92 1 5.666e+00 5.666e+00 7.432e+00 1.002e-03 4.767e-04 -4.128e-03
93 1 3.894e+00 5.665e+00 9.203e+00 4.112e-05 -2.911e-03 -1.610e-03
94 1 9.202e+00 5.667e+00 7.431e+00 7.774e-04 -6.729e-04 -4.947e-03
95 1 7.436e+00 5.662e+00 9.206e+00 1.830e-03 -6.307e-03 -7.731e-04
96 1 3.513e-01 7.436e+00 7.430e+00 -9.336e-05 -6.529e-04 -3.226e-03
97 1 2.125e+00 9.203e+00 7.433e+00 -3.082e-04 -3.867e-03 -1.211e-04
98 1 2.123e+00 7.433e+00 9.203e+00 4.753e-05 -4.065e-03 -5.336e-04
99 1 3.540e-01 9.203e+00 9.205e+00 3.128e-04 -9.936e-04 -3.696e-03
100 1 3.899e+00 7.434e+00 7.431e+00 1.162e-03 -1.956e-03 -4.057e-03
101 1 5.665e+00 9.203e+00 7.432e+00 -4.557e-04 -4.335e-03 -4.573e-03
102 1 5.663e+00 7.432e+00 9.203e+00 1.575e-04 -5.575e-04 -8.339e-04
103 1 3.895e+00 9.203e+00 9.204e+00 -8.523e-06 -1.606e-03 -3.667e-03
104 1 7.433e+00 7.434e+00 7.443e+00 -1.293e-03 -1.069e-02 4.644e-03
105 1 9.203e+00 9.202e+00 7.431e+00 2.404e-04 -1.574e-03 -3.275e-03
106 1 9.204e+00 7.435e+00 9.204e+00 7.519e-04 -4.429e-03 -3.736e-03
107 1 7.435e+00 9.205e+00 9.205e+00 -8.359e-04 -6.829e-03 5.160e-03
ITEM: TIMESTEP
0
ITEM: NUMBER OF ATOMS
107
ITEM: BOX BOUNDS xy xz yz pp pp pp