ITEM: TIMESTEP
0
ITEM: NUMBER OF ATOMS
24
ITEM: BOX BOUNDS xy xz yz pp pp pp
                     -5.00000000000000e-01 5.00000000000000e-01 0.00000000000000e+00
-5.00000000000000e-01	5.00000000000000e-01	0.00000000000000e+00
-5.00000000000000e-01	5.00000000000000e-01	0.00000000000000e+00
ITEM: ATOMS id type x y DisplacementX DisplacementY
1 1 0.000e+00 0.000e+00 -2.384e-07 2.533e-07
2 1 2.000e-01 0.000e+00 1.341e-07 1.341e-07
3 1 4.000e-01 0.000e+00 -1.192e-07 1.490e-08
4 1 6.000e-01 0.000e+00 2.980e-08 -1.043e-07
5 1 8.000e-01 0.000e+00 2.086e-07 -1.043e-07
6 1 0.000e+00 2.000e-01 3.874e-07 -2.235e-07
7 1 2.000e-01 2.000e-01 3.278e-07 1.490e-08
8 1 4.000e-01 2.000e-01 -1.937e-07 -1.043e-07
9 1 6.000e-01 2.000e-01 -2.980e-08 1.341e-07
10 1 8.000e-01 2.000e-01 -1.490e-07 -2.235e-07
11 1 0.000e+00 4.000e-01 -1.043e-07 -7.004e-07
12 1 2.000e-01 4.000e-01 2.682e-07 -3.427e-07
13 1 4.000e-01 4.000e-01 -5.960e-08 2.533e-07
14 1 6.000e-01 4.000e-01 2.384e-07 -1.043e-07
15 1 8.000e-01 4.000e-01 -4.470e-08 1.341e-07
16 1 0.000e+00 6.000e-01 8.941e-08 -2.235e-07
17 1 2.000e-01 6.000e-01 2.533e-07 1.490e-08
18 1 6.000e-01 6.000e-01 -1.000e+00 -2.235e-07
19 1 8.000e-01 6.000e-01 5.960e-08 -1.043e-07
20 1 0.000e+00 8.000e-01 7.451e-08 4.917e-07
21 1 2.000e-01 8.000e-01 1.043e-07 -1.043e-07
22 1 4.000e-01 8.000e-01 -1.192e-07 -1.043e-07
23 1 6.000e-01 8.000e-01 6.706e-08 1.937e-07
24 1 8.000e-01 8.000e-01 1.788e-07 1.490e-08
ITEM: TIMESTEP
0
ITEM: NUMBER OF ATOMS
24
ITEM: BOX BOUNDS xy xz yz pp pp pp
                     -5.00000000000000e-01 5.00000000000000e-01 0.00000000000000e+00
-5.00000000000000e-01	5.00000000000000e-01	0.00000000000000e+00
-5.00000000000000e-01	5.00000000000000e-01	0.00000000000000e+00
ITEM: ATOMS id type x y DisplacementX DisplacementY
1 1 0.000e+00 0.000e+00 -6.333e-08 -7.451e-09
2 1 2.000e-01 0.000e+00 -9.313e-08 -2.310e-07
3 1 4.000e-01 0.000e+00 1.118e-08 6.706e-08
4 1 6.000e-01 0.000e+00 -1.378e-07 3.725e-08
5 1 8.000e-01 0.000e+00 -1.118e-08 -3.725e-08
6 1 0.000e+00 2.000e-01 -2.570e-07 2.235e-08
7 1 2.000e-01 2.000e-01 7.078e-08 7.451e-09
8 1 4.000e-01 2.000e-01 5.588e-08 -2.235e-07
9 1 6.000e-01 2.000e-01 4.098e-08 -1.416e-07
10 1 8.000e-01 2.000e-01 -1.118e-08 -9.686e-08
11 1 0.000e+00 4.000e-01 -3.725e-09 3.725e-08
12 1 2.000e-01 4.000e-01 8.568e-08 1.714e-07
13 1 4.000e-01 4.000e-01 -1.676e-07 -2.533e-07
14 1 6.000e-01 4.000e-01 -1.118e-08 9.686e-08
15 1 8.000e-01 4.000e-01 -1.080e-07 -7.451e-09
16 1 0.000e+00 6.000e-01 2.794e-07 7.451e-09
17 1 2.000e-01 6.000e-01 1.118e-08 -1.267e-07
18 1 6.000e-01 6.000e-01 2.421e-07 2.086e-07
19 1 8.000e-01 6.000e-01 1.155e-07 -1.416e-07
20 1 0.000e+00 8.000e-01 -9.313e-08 -2.012e-07
21 1 2.000e-01 8.000e-01 -7.823e-08 7.451e-09
22 1 4.000e-01 8.000e-01 7.078e-08 -1.000e+00
23 1 6.000e-01 8.000e-01 -1.676e-07 -1.118e-08
24 1 8.000e-01 8.000e-01 -4.843e-08 -6.706e-08
ITEM: TIMESTEP
0
ITEM: NUMBER OF ATOMS
24
ITEM: BOX BOUNDS xy xz yz pp pp pp
                     -5.00000000000000e-01 5.00000000000000e-01 0.00000000000000e+00
-5.00000000000000e-01	5.00000000000000e-01	0.00000000000000e+00
-5.00000000000000e-01	5.00000000000000e-01	0.00000000000000e+00
ITEM: ATOMS id type x y DisplacementX DisplacementY
1 1 0.000e+00 0.000e+00 8.196e-08 1.043e-07
2 1 2.000e-01 0.000e+00 2.235e-08 -1.416e-07
3 1 4.000e-01 0.000e+00 -2.161e-07 3.166e-07
4 1 6.000e-01 0.000e+00 -6.706e-08 4.470e-08
5 1 8.000e-01 0.000e+00 -1.565e-07 4.619e-07
6 1 0.000e+00 2.000e-01 -1.565e-07 -2.943e-07
7 1 2.000e-01 2.000e-01 -9.686e-08 -2.086e-07
8 1 4.000e-01 2.000e-01 2.235e-08 5.960e-08
9 1 6.000e-01 2.000e-01 8.196e-08 -2.086e-07
10 1 8.000e-01 2.000e-01 -9.686e-08 7.451e-09
11 1 0.000e+00 4.000e-01 2.012e-07 4.917e-07
12 1 2.000e-01 4.000e-01 -2.757e-07 2.347e-07
13 1 4.000e-01 4.000e-01 2.235e-08 -4.470e-07
14 1 6.000e-01 4.000e-01 2.012e-07 1.788e-07
15 1 8.000e-01 4.000e-01 2.012e-07 -3.763e-07
16 1 0.000e+00 6.000e-01 8.196e-08 4.414e-07
17 1 2.000e-01 6.000e-01 1.000e+00 -2.459e-07
18 1 6.000e-01 6.000e-01 2.235e-08 2.831e-07
19 1 8.000e-01 6.000e-01 2.235e-08 1.639e-07
20 1 0.000e+00 8.000e-01 -3.725e-08 -3.427e-07
21 1 2.000e-01 8.000e-01 -9.686e-08 1.490e-08
22 1 4.000e-01 8.000e-01 2.608e-07 1.937e-07
23 1 6.000e-01 8.000e-01 -9.686e-08 -2.831e-07
24 1 8.000e-01 8.000e-01 8.196e-08 -4.396e-07
ITEM: TIMESTEP
0
ITEM: NUMBER OF ATOMS
24
ITEM: BOX BOUNDS xy xz yz pp pp pp
                     -5.00000000000000e-01 5.00000000000000e-01 0.00000000000000e+00
-5.00000000000000e-01	5.00000000000000e-01	0.00000000000000e+00
-5.00000000000000e-01	5.00000000000000e-01	0.00000000000000e+00
ITEM: ATOMS id type x y DisplacementX DisplacementY
1 1 0.000e+00 0.000e+00 -6.706e-08 -1.173e-07
2 1 2.000e-01 0.000e+00 -3.651e-07 1.211e-07
3 1 4.000e-01 0.000e+00 5.215e-08 2.403e-07
4 1 6.000e-01 0.000e+00 2.906e-07 1.863e-09
5 1 8.000e-01 0.000e+00 -6.706e-08 -1.173e-07
6 1 0.000e+00 2.000e-01 -6.706e-08 1.807e-07
7 1 2.000e-01 2.000e-01 -7.451e-09 1.807e-07
8 1 4.000e-01 2.000e-01 -7.451e-09 -5.774e-08
9 1 6.000e-01 2.000e-01 -7.451e-09 6.147e-08
10 1 8.000e-01 2.000e-01 2.906e-07 2.403e-07
11 1 0.000e+00 4.000e-01 -7.451e-09 -2.962e-07
12 1 2.000e-01 4.000e-01 2.310e-07 1.863e-09
13 1 4.000e-01 4.000e-01 -7.451e-09 1.000e+00
14 1 6.000e-01 4.000e-01 1.118e-07 -1.770e-07
15 1 8.000e-01 4.000e-01 1.118e-07 1.863e-09
16 1 0.000e+00 6.000e-01 2.310e-07 -1.770e-07
17 1 2.000e-01 6.000e-01 -6.706e-08 2.403e-07
18 1 6.000e-01 6.000e-01 -1.267e-07 6.147e-08
19 1 8.000e-01 6.000e-01 2.906e-07 1.863e-09
20 1 0.000e+00 8.000e-01 -1.267e-07 1.807e-07
21 1 2.000e-01 8.000e-01 1.714e-07 1.807e-07
22 1 4.000e-01 8.000e-01 2.310e-07 1.807e-07
23 1 6.000e-01 8.000e-01 -7.451e-09 -5.774e-08
24 1 8.000e-01 8.000e-01 -7.451e-09 2.403e-07
ITEM: TIMESTEP
0
ITEM: NUMBER OF ATOMS
24
ITEM: BOX BOUNDS xy xz yz pp pp pp
                     -5.00000000000000e-01 5.00000000000000e-01 0.00000000000000e+00
-5.00000000000000e-01	5.00000000000000e-01	0.00000000000000e+00
-5.00000000000000e-01	5.00000000000000e-01	0.00000000000000e+00
ITEM: ATOMS id type x y DisplacementX DisplacementY
25 1 0.000e+00 0.000e+00 1.341e-07 1.341e-07
26 1 2.000e-01 0.000e+00 -1.192e-07 1.490e-08
27 1 4.000e-01 0.000e+00 2.980e-08 -1.043e-07
28 1 6.000e-01 0.000e+00 2.086e-07 -1.043e-07
29 1 8.000e-01 0.000e+00 -2.384e-07 2.533e-07
30 1 0.000e+00 2.000e-01 3.278e-07 1.490e-08
31 1 2.000e-01 2.000e-01 -1.043e-07 -1.043e-07
32 1 4.000e-01 2.000e-01 -2.384e-07 3.725e-07
33 1 6.000e-01 2.000e-01 -1.490e-07 -2.235e-07
34 1 8.000e-01 2.000e-01 3.874e-07 -2.235e-07
35 1 0.000e+00 4.000e-01 2.682e-07 -3.427e-07
36 1 2.000e-01 4.000e-01 -5.960e-08 2.533e-07
37 1 4.000e-01 4.000e-01 2.384e-07 -1.043e-07
38 1 6.000e-01 4.000e-01 -4.470e-08 1.341e-07
39 1 8.000e-01 4.000e-01 -1.043e-07 -7.004e-07
40 1 0.000e+00 6.000e-01 2.533e-07 1.490e-08
41 1 4.000e-01 6.000e-01 -1.000e+00 -2.235e-07
42 1 6.000e-01 6.000e-01 5.960e-08 -1.043e-07
43 1 8.000e-01 6.000e-01 8.941e-08 -2.235e-07
44 1 0.000e+00 8.000e-01 1.043e-07 -1.043e-07
45 1 2.000e-01 8.000e-01 -1.192e-07 -1.043e-07
46 1 4.000e-01 8.000e-01 6.706e-08 1.937e-07
47 1 6.000e-01 8.000e-01 1.788e-07 1.490e-08
48 1 8.000e-01 8.000e-01 7.451e-08 4.917e-07
ITEM: TIMESTEP
0
ITEM: NUMBER OF ATOMS
24
ITEM: BOX BOUNDS xy xz yz pp pp pp
                     -5.00000000000000e-01 5.00000000000000e-01 0.00000000000000e+00
-5.00000000000000e-01	5.00000000000000e-01	0.00000000000000e+00
-5.00000000000000e-01	5.00000000000000e-01	0.00000000000000e+00
ITEM: ATOMS id type x y DisplacementX DisplacementY
25 1 0.000e+00 0.000e+00 -9.313e-08 -2.310e-07
26 1 2.000e-01 0.000e+00 1.118e-08 6.706e-08
27 1 4.000e-01 0.000e+00 -1.378e-07 3.725e-08
28 1 6.000e-01 0.000e+00 -1.118e-08 -3.725e-08
29 1 8.000e-01 0.000e+00 -6.333e-08 -7.451e-09
30 1 0.000e+00 2.000e-01 7.078e-08 7.451e-09
31 1 2.000e-01 2.000e-01 8.568e-08 -4.694e-07
32 1 4.000e-01 2.000e-01 -7.823e-08 -8.196e-08
33 1 6.000e-01 2.000e-01 -1.118e-08 -9.686e-08
34 1 8.000e-01 2.000e-01 -2.570e-07 2.235e-08
35 1 0.000e+00 4.000e-01 8.568e-08 1.714e-07
36 1 2.000e-01 4.000e-01 -1.676e-07 -2.533e-07
37 1 4.000e-01 4.000e-01 -1.118e-08 9.686e-08
38 1 6.000e-01 4.000e-01 -1.080e-07 -7.451e-09
39 1 8.000e-01 4.000e-01 -3.725e-09 3.725e-08
40 1 0.000e+00 6.000e-01 1.118e-08 -1.267e-07
41 1 4.000e-01 6.000e-01 2.421e-07 2.086e-07
42 1 6.000e-01 6.000e-01 1.155e-07 -1.416e-07
43 1 8.000e-01 6.000e-01 2.794e-07 7.451e-09
44 1 0.000e+00 8.000e-01 -7.823e-08 7.451e-09
45 1 2.000e-01 8.000e-01 7.078e-08 -1.000e+00
46 1 4.000e-01 8.000e-01 -1.676e-07 -1.118e-08
47 1 6.000e-01 8.000e-01 -4.843e-08 -6.706e-08
48 1 8.000e-01 8.000e-01 -9.313e-08 -2.012e-07
ITEM: TIMESTEP
0
ITEM: NUMBER OF ATOMS
24
ITEM: BOX BOUNDS xy xz yz pp pp pp
                     -5.00000000000000e-01 5.00000000000000e-01 0.00000000000000e+00
-5.00000000000000e-01	5.00000000000000e-01	0.00000000000000e+00
-5.00000000000000e-01	5.00000000000000e-01	0.00000000000000e+00
ITEM: ATOMS id type x y DisplacementX DisplacementY
25 1 0.000e+00 0.000e+00 2.235e-08 -1.416e-07
26 1 2.000e-01 0.000e+00 -2.161e-07 3.166e-07
27 1 4.000e-01 0.000e+00 -6.706e-08 4.470e-08
28 1 6.000e-01 0.000e+00 -1.565e-07 4.619e-07
29 1 8.000e-01 0.000e+00 8.196e-08 1.043e-07
30 1 0.000e+00 2.000e-01 -9.686e-08 -2.086e-07
31 1 2.000e-01 2.000e-01 2.012e-07 1.490e-07
32 1 4.000e-01 2.000e-01 -3.725e-08 -2.235e-08
33 1 6.000e-01 2.000e-01 -9.686e-08 7.451e-09
34 1 8.000e-01 2.000e-01 -1.565e-07 -2.943e-07
35 1 0.000e+00 4.000e-01 -2.757e-07 2.347e-07
36 1 2.000e-01 4.000e-01 2.235e-08 -4.470e-07
37 1 4.000e-01 4.000e-01 2.012e-07 1.788e-07
38 1 6.000e-01 4.000e-01 2.012e-07 -3.763e-07
39 1 8.000e-01 4.000e-01 2.012e-07 4.917e-07
40 1 0.000e+00 6.000e-01 1.000e+00 -2.459e-07
41 1 4.000e-01 6.000e-01 2.235e-08 2.831e-07
42 1 6.000e-01 6.000e-01 2.235e-08 1.639e-07
43 1 8.000e-01 6.000e-01 8.196e-08 4.414e-07
44 1 0.000e+00 8.000e-01 -9.686e-08 1.490e-08
45 1 2.000e-01 8.000e-01 2.608e-07 1.937e-07
46 1 4.000e-01 8.000e-01 -9.686e-08 -2.831e-07
47 1 6.000e-01 8.000e-01 8.196e-08 -4.396e-07
48 1 8.000e-01 8.000e-01 -3.725e-08 -3.427e-07
ITEM: TIMESTEP
0
ITEM: NUMBER OF ATOMS
24
ITEM: BOX BOUNDS xy xz yz pp pp pp
                     -5.00000000000000e-01 5.00000000000000e-01 0.00000000000000e+00
-5.00000000000000e-01	5.00000000000000e-01	0.00000000000000e+00
-5.00000000000000e-01	5.00000000000000e-01	0.00000000000000e+00
ITEM: ATOMS id type x y DisplacementX DisplacementY
25 1 0.000e+00 0.000e+00 -3.651e-07 1.211e-07
26 1 2.000e-01 0.000e+00 5.215e-08 2.403e-07
27 1 4.000e-01 0.000e+00 2.906e-07 1.863e-09
28 1 6.000e-01 0.000e+00 -6.706e-08 -1.173e-07
29 1 8.000e-01 0.000e+00 -6.706e-08 -1.173e-07
30 1 0.000e+00 2.000e-01 -7.451e-09 1.807e-07
31 1 2.000e-01 2.000e-01 -1.267e-07 1.863e-09
32 1 4.000e-01 2.000e-01 1.714e-07 -5.774e-08
33 1 6.000e-01 2.000e-01 2.906e-07 2.403e-07
34 1 8.000e-01 2.000e-01 -6.706e-08 1.807e-07
35 1 0.000e+00 4.000e-01 2.310e-07 1.863e-09
36 1 2.000e-01 4.000e-01 -7.451e-09 1.000e+00
37 1 4.000e-01 4.000e-01 1.118e-07 -1.770e-07
38 1 6.000e-01 4.000e-01 1.118e-07 1.863e-09
39 1 8.000e-01 4.000e-01 -7.451e-09 -2.962e-07
40 1 0.000e+00 6.000e-01 -6.706e-08 2.403e-07
41 1 4.000e-01 6.000e-01 -1.267e-07 6.147e-08
42 1 6.000e-01 6.000e-01 2.906e-07 1.863e-09
43 1 8.000e-01 6.000e-01 2.310e-07 -1.770e-07
44 1 0.000e+00 8.000e-01 1.714e-07 1.807e-07
45 1 2.000e-01 8.000e-01 2.310e-07 1.807e-07
46 1 4.000e-01 8.000e-01 -7.451e-09 -5.774e-08
47 1 6.000e-01 8.000e-01 -7.451e-09 2.403e-07
48 1 8.000e-01 8.000e-01 -1.267e-07 1.807e-07
ITEM: TIMESTEP
0
ITEM: NUMBER OF ATOMS
24
ITEM: BOX BOUNDS xy xz yz pp pp pp
                     -5.00000000000000e-01 5.00000000000000e-01 0.00000000000000e+00
-5.00000000000000e-01	5.00000000000000e-01	0.00000000000000e+00
-5.00000000000000e-01	5.00000000000000e-01	0.00000000000000e+00
ITEM: ATOMS id type x y DisplacementX DisplacementY
49 1 0.000e+00 0.000e+00 1.341e-07 1.341e-07
50 1 2.000e-01 0.000e+00 -1.192e-07 1.490e-08
51 1 4.000e-01 0.000e+00 2.980e-08 -1.043e-07
52 1 6.000e-01 0.000e+00 2.086e-07 -1.043e-07
53 1 8.000e-01 0.000e+00 -2.384e-07 2.533e-07
54 1 0.000e+00 2.000e-01 3.278e-07 1.490e-08
55 1 2.000e-01 2.000e-01 -1.937e-07 -1.043e-07
56 1 4.000e-01 2.000e-01 -2.980e-08 1.341e-07
57 1 6.000e-01 2.000e-01 -1.490e-07 -2.235e-07
58 1 8.000e-01 2.000e-01 3.874e-07 -2.235e-07
59 1 0.000e+00 4.000e-01 2.682e-07 -3.427e-07
60 1 2.000e-01 4.000e-01 -5.960e-08 2.533e-07
61 1 4.000e-01 4.000e-01 2.384e-07 -1.043e-07
62 1 6.000e-01 4.000e-01 -4.470e-08 1.341e-07
63 1 8.000e-01 4.000e-01 3.129e-07 -7.004e-07
64 1 0.000e+00 6.000e-01 1.341e-07 1.490e-08
65 1 4.000e-01 6.000e-01 -1.000e+00 -2.235e-07
66 1 6.000e-01 6.000e-01 5.960e-08 -1.043e-07
67 1 8.000e-01 6.000e-01 8.941e-08 -2.235e-07
68 1 0.000e+00 8.000e-01 1.043e-07 -1.043e-07
69 1 2.000e-01 8.000e-01 -1.192e-07 -1.043e-07
70 1 4.000e-01 8.000e-01 6.706e-08 1.937e-07
71 1 6.000e-01 8.000e-01 1.788e-07 1.490e-08
72 1 8.000e-01 8.000e-01 7.451e-08 4.917e-07
ITEM: TIMESTEP
0
ITEM: NUMBER OF ATOMS
24
ITEM: BOX BOUNDS xy xz yz pp pp pp
                     -5.00000000000000e-01 5.00000000000000e-01 0.00000000000000e+00
-5.00000000000000e-01	5.00000000000000e-01	0.00000000000000e+00
-5.00000000000000e-01	5.00000000000000e-01	0.00000000000000e+00
ITEM: ATOMS id type x y DisplacementX DisplacementY
49 1 0.000e+00 0.000e+00 -9.313e-08 -2.310e-07
50 1 2.000e-01 0.000e+00 1.118e-08 6.706e-08
51 1 4.000e-01 0.000e+00 -1.378e-07 3.725e-08
52 1 6.000e-01 0.000e+00 -1.118e-08 -3.725e-08
53 1 8.000e-01 0.000e+00 -6.333e-08 -7.451e-09
54 1 0.000e+00 2.000e-01 7.078e-08 7.451e-09
55 1 2.000e-01 2.000e-01 5.588e-08 -2.235e-07
56 1 4.000e-01 2.000e-01 4.098e-08 -1.416e-07
57 1 6.000e-01 2.000e-01 -1.118e-08 -9.686e-08
58 1 8.000e-01 2.000e-01 -2.570e-07 2.235e-08
59 1 0.000e+00 4.000e-01 8.568e-08 1.714e-07
60 1 2.000e-01 4.000e-01 -1.676e-07 -2.533e-07
61 1 4.000e-01 4.000e-01 -1.118e-08 9.686e-08
62 1 6.000e-01 4.000e-01 -1.080e-07 -7.451e-09
63 1 8.000e-01 4.000e-01 8.568e-08 -6.706e-08
64 1 0.000e+00 6.000e-01 -1.676e-07 1.155e-07
65 1 4.000e-01 6.000e-01 2.421e-07 2.086e-07
66 1 6.000e-01 6.000e-01 1.155e-07 -1.416e-07
67 1 8.000e-01 6.000e-01 2.794e-07 7.451e-09
68 1 0.000e+00 8.000e-01 -7.823e-08 7.451e-09
69 1 2.000e-01 8.000e-01 7.078e-08 -1.000e+00
70 1 4.000e-01 8.000e-01 -1.676e-07 -1.118e-08
71 1 6.000e-01 8.000e-01 -4.843e-08 -6.706e-08
72 1 8.000e-01 8.000e-01 -9.313e-08 -2.012e-07
ITEM: TIMESTEP
0
ITEM: NUMBER OF ATOMS
24
ITEM: BOX BOUNDS xy xz yz pp pp pp
                     -5.00000000000000e-01 5.00000000000000e-01 0.00000000000000e+00
-5.00000000000000e-01	5.00000000000000e-01	0.00000000000000e+00
-5.00000000000000e-01	5.00000000000000e-01	0.00000000000000e+00
ITEM: ATOMS id type x y DisplacementX DisplacementY
49 1 0.000e+00 0.000e+00 2.235e-08 -1.416e-07
50 1 2.000e-01 0.000e+00 -2.161e-07 3.166e-07
51 1 4.000e-01 0.000e+00 -6.706e-08 4.470e-08
52 1 6.000e-01 0.000e+00 -1.565e-07 4.619e-07
53 1 8.000e-01 0.000e+00 8.196e-08 1.043e-07
54 1 0.000e+00 2.000e-01 -9.686e-08 -2.086e-07
55 1 2.000e-01 2.000e-01 2.235e-08 5.960e-08
56 1 4.000e-01 2.000e-01 8.196e-08 -2.086e-07
57 1 6.000e-01 2.000e-01 -9.686e-08 7.451e-09
58 1 8.000e-01 2.000e-01 -1.565e-07 -2.943e-07
59 1 0.000e+00 4.000e-01 -2.757e-07 2.347e-07
60 1 2.000e-01 4.000e-01 2.235e-08 -4.470e-07
61 1 4.000e-01 4.000e-01 2.012e-07 1.788e-07
62 1 6.000e-01 4.000e-01 2.012e-07 -3.763e-07
63 1 8.000e-01 4.000e-01 2.235e-08 5.215e-07
64 1 0.000e+00 6.000e-01 1.000e+00 -4.619e-07
65 1 4.000e-01 6.000e-01 2.235e-08 2.831e-07
66 1 6.000e-01 6.000e-01 2.235e-08 1.639e-07
67 1 8.000e-01 6.000e-01 8.196e-08 4.414e-07
68 1 0.000e+00 8.000e-01 -9.686e-08 1.490e-08
69 1 2.000e-01 8.000e-01 2.608e-07 1.937e-07
70 1 4.000e-01 8.000e-01 -9.686e-08 -2.831e-07
71 1 6.000e-01 8.000e-01 8.196e-08 -4.396e-07
72 1 8.000e-01 8.000e-01 -3.725e-08 -3.427e-07
ITEM: TIMESTEP
0
ITEM: NUMBER OF ATOMS
24
ITEM: BOX BOUNDS xy xz yz pp pp pp
                     -5.00000000000000e-01 5.00000000000000e-01 0.00000000000000e+00
-5.00000000000000e-01	5.00000000000000e-01	0.00000000000000e+00
-5.00000000000000e-01	5.00000000000000e-01	0.00000000000000e+00
ITEM: ATOMS id type x y DisplacementX DisplacementY
49 1 0.000e+00 0.000e+00 -3.651e-07 1.211e-07
50 1 2.000e-01 0.000e+00 5.215e-08 2.403e-07
51 1 4.000e-01 0.000e+00 2.906e-07 1.863e-09
52 1 6.000e-01 0.000e+00 -6.706e-08 -1.173e-07
53 1 8.000e-01 0.000e+00 -6.706e-08 -1.173e-07
54 1 0.000e+00 2.000e-01 -7.451e-09 1.807e-07
55 1 2.000e-01 2.000e-01 -7.451e-09 -5.774e-08
56 1 4.000e-01 2.000e-01 -7.451e-09 6.147e-08
57 1 6.000e-01 2.000e-01 2.906e-07 2.403e-07
58 1 8.000e-01 2.000e-01 -6.706e-08 1.807e-07
59 1 0.000e+00 4.000e-01 2.310e-07 1.863e-09
60 1 2.000e-01 4.000e-01 -7.451e-09 1.000e+00
61 1 4.000e-01 4.000e-01 1.118e-07 -1.770e-07
62 1 6.000e-01 4.000e-01 1.118e-07 1.863e-09
63 1 8.000e-01 4.000e-01 1.118e-07 -5.774e-08
64 1 0.000e+00 6.000e-01 1.714e-07 -2.366e-07
65 1 4.000e-01 6.000e-01 -1.267e-07 6.147e-08
66 1 6.000e-01 6.000e-01 2.906e-07 1.863e-09
67 1 8.000e-01 6.000e-01 2.310e-07 -1.770e-07
68 1 0.000e+00 8.000e-01 1.714e-07 1.807e-07
69 1 2.000e-01 8.000e-01 2.310e-07 1.807e-07
70 1 4.000e-01 8.000e-01 -7.451e-09 -5.774e-08
71 1 6.000e-01 8.000e-01 -7.451e-09 2.403e-07
72 1 8.000e-01 8.000e-01 -1.267e-07 1.807e-07
ITEM: TIMESTEP
0
ITEM: NUMBER OF ATOMS
24
ITEM: BOX BOUNDS xy xz yz pp pp pp
                     -5.00000000000000e-01 5.00000000000000e-01 0.00000000000000e+00
-5.00000000000000e-01	5.00000000000000e-01	0.00000000000000e+00
-5.00000000000000e-01	5.00000000000000e-01	0.00000000000000e+00
ITEM: ATOMS id type x y DisplacementX DisplacementY
73 1 0.000e+00 0.000e+00 3.278e-07 1.490e-08
74 1 2.000e-01 0.000e+00 -1.937e-07 -1.043e-07
75 1 4.000e-01 0.000e+00 -2.980e-08 1.341e-07
76 1 6.000e-01 0.000e+00 -1.490e-07 -2.235e-07
77 1 8.000e-01 0.000e+00 3.874e-07 -2.235e-07
78 1 0.000e+00 2.000e-01 2.682e-07 -3.427e-07
79 1 2.000e-01 2.000e-01 -5.960e-08 2.533e-07
80 1 4.000e-01 2.000e-01 2.384e-07 -1.043e-07
81 1 6.000e-01 2.000e-01 -4.470e-08 1.341e-07
82 1 8.000e-01 2.000e-01 -1.043e-07 -7.004e-07
83 1 0.000e+00 4.000e-01 2.533e-07 1.490e-08
84 1 4.000e-01 4.000e-01 -1.000e+00 -2.235e-07
85 1 6.000e-01 4.000e-01 5.960e-08 -1.043e-07
86 1 8.000e-01 4.000e-01 8.941e-08 -2.235e-07
87 1 0.000e+00 6.000e-01 1.043e-07 -1.043e-07
88 1 2.000e-01 6.000e-01 -1.192e-07 -1.043e-07
89 1 4.000e-01 6.000e-01 6.706e-08 1.937e-07
90 1 6.000e-01 6.000e-01 1.788e-07 1.490e-08
91 1 8.000e-01 6.000e-01 7.451e-08 4.917e-07
92 1 0.000e+00 8.000e-01 1.341e-07 1.341e-07
93 1 2.000e-01 8.000e-01 -1.192e-07 1.490e-08
94 1 4.000e-01 8.000e-01 2.980e-08 -1.043e-07
95 1 6.000e-01 8.000e-01 2.682e-07 -7.004e-07
96 1 8.000e-01 8.000e-01 -2.384e-07 1.490e-08
ITEM: TIMESTEP
0
ITEM: NUMBER OF ATOMS
24
ITEM: BOX BOUNDS xy xz yz pp pp pp
                     -5.00000000000000e-01 5.00000000000000e-01 0.00000000000000e+00
-5.00000000000000e-01	5.00000000000000e-01	0.00000000000000e+00
-5.00000000000000e-01	5.00000000000000e-01	0.00000000000000e+00
ITEM: ATOMS id type x y DisplacementX DisplacementY
73 1 0.000e+00 0.000e+00 7.078e-08 7.451e-09
74 1 2.000e-01 0.000e+00 5.588e-08 -2.235e-07
75 1 4.000e-01 0.000e+00 4.098e-08 -1.416e-07
76 1 6.000e-01 0.000e+00 -1.118e-08 -9.686e-08
77 1 8.000e-01 0.000e+00 -2.570e-07 2.235e-08
78 1 0.000e+00 2.000e-01 8.568e-08 1.714e-07
79 1 2.000e-01 2.000e-01 -1.676e-07 -2.533e-07
80 1 4.000e-01 2.000e-01 -1.118e-08 9.686e-08
81 1 6.000e-01 2.000e-01 -1.080e-07 -7.451e-09
82 1 8.000e-01 2.000e-01 -3.725e-09 3.725e-08
83 1 0.000e+00 4.000e-01 1.118e-08 -1.267e-07
84 1 4.000e-01 4.000e-01 2.421e-07 2.086e-07
85 1 6.000e-01 4.000e-01 1.155e-07 -1.416e-07
86 1 8.000e-01 4.000e-01 2.794e-07 7.451e-09
87 1 0.000e+00 6.000e-01 -7.823e-08 7.451e-09
88 1 2.000e-01 6.000e-01 7.078e-08 -1.000e+00
89 1 4.000e-01 6.000e-01 -1.676e-07 -1.118e-08
90 1 6.000e-01 6.000e-01 -4.843e-08 -6.706e-08
91 1 8.000e-01 6.000e-01 -9.313e-08 -2.012e-07
92 1 0.000e+00 8.000e-01 -9.313e-08 -2.310e-07
93 1 2.000e-01 8.000e-01 1.118e-08 6.706e-08
94 1 4.000e-01 8.000e-01 -1.378e-07 3.725e-08
95 1 6.000e-01 8.000e-01 -3.316e-07 7.078e-08
96 1 8.000e-01 8.000e-01 -7.823e-08 -4.396e-07
ITEM: TIMESTEP
0
ITEM: NUMBER OF ATOMS
24
ITEM: BOX BOUNDS xy xz yz pp pp pp
                     -5.00000000000000e-01 5.00000000000000e-01 0.00000000000000e+00
-5.00000000000000e-01	5.00000000000000e-01	0.00000000000000e+00
-5.00000000000000e-01	5.00000000000000e-01	0.00000000000000e+00
ITEM: ATOMS id type x y DisplacementX DisplacementY
73 1 0.000e+00 0.000e+00 -9.686e-08 -2.086e-07
74 1 2.000e-01 0.000e+00 2.235e-08 5.960e-08
75 1 4.000e-01 0.000e+00 8.196e-08 -2.086e-07
76 1 6.000e-01 0.000e+00 -9.686e-08 7.451e-09
77 1 8.000e-01 0.000e+00 -1.565e-07 -2.943e-07
78 1 0.000e+00 2.000e-01 -2.757e-07 2.347e-07
79 1 2.000e-01 2.000e-01 2.235e-08 -4.470e-07
80 1 4.000e-01 2.000e-01 2.012e-07 1.788e-07
81 1 6.000e-01 2.000e-01 2.012e-07 -3.763e-07
82 1 8.000e-01 2.000e-01 2.012e-07 4.917e-07
83 1 0.000e+00 4.000e-01 1.000e+00 -2.459e-07
84 1 4.000e-01 4.000e-01 2.235e-08 2.831e-07
85 1 6.000e-01 4.000e-01 2.235e-08 1.639e-07
86 1 8.000e-01 4.000e-01 8.196e-08 4.414e-07
87 1 0.000e+00 6.000e-01 -9.686e-08 1.490e-08
88 1 2.000e-01 6.000e-01 2.608e-07 1.937e-07
89 1 4.000e-01 6.000e-01 -9.686e-08 -2.831e-07
90 1 6.000e-01 6.000e-01 8.196e-08 -4.396e-07
91 1 8.000e-01 6.000e-01 -3.725e-08 -3.427e-07
92 1 0.000e+00 8.000e-01 2.235e-08 -1.416e-07
93 1 2.000e-01 8.000e-01 -2.161e-07 3.166e-07
94 1 4.000e-01 8.000e-01 -6.706e-08 4.470e-08
95 1 6.000e-01 8.000e-01 -3.949e-07 1.937e-07
96 1 8.000e-01 8.000e-01 -9.686e-08 -1.192e-07
ITEM: TIMESTEP
0
ITEM: NUMBER OF ATOMS
24
ITEM: BOX BOUNDS xy xz yz pp pp pp
                     -5.00000000000000e-01 5.00000000000000e-01 0.00000000000000e+00
-5.00000000000000e-01	5.00000000000000e-01	0.00000000000000e+00
-5.00000000000000e-01	5.00000000000000e-01	0.00000000000000e+00
ITEM: ATOMS id type x y DisplacementX DisplacementY
73 1 0.000e+00 0.000e+00 -7.451e-09 1.807e-07
74 1 2.000e-01 0.000e+00 -7.451e-09 -5.774e-08
75 1 4.000e-01 0.000e+00 -7.451e-09 6.147e-08
76 1 6.000e-01 0.000e+00 2.906e-07 2.403e-07
77 1 8.000e-01 0.000e+00 -6.706e-08 1.807e-07
78 1 0.000e+00 2.000e-01 2.310e-07 1.863e-09
79 1 2.000e-01 2.000e-01 -7.451e-09 1.000e+00
80 1 4.000e-01 2.000e-01 1.118e-07 -1.770e-07
81 1 6.000e-01 2.000e-01 1.118e-07 1.863e-09
82 1 8.000e-01 2.000e-01 -7.451e-09 -2.962e-07
83 1 0.000e+00 4.000e-01 -6.706e-08 2.403e-07
84 1 4.000e-01 4.000e-01 -1.267e-07 6.147e-08
85 1 6.000e-01 4.000e-01 2.906e-07 1.863e-09
86 1 8.000e-01 4.000e-01 2.310e-07 -1.770e-07
87 1 0.000e+00 6.000e-01 1.714e-07 1.807e-07
88 1 2.000e-01 6.000e-01 2.310e-07 1.807e-07
89 1 4.000e-01 6.000e-01 -7.451e-09 -5.774e-08
90 1 6.000e-01 6.000e-01 -7.451e-09 2.403e-07
91 1 8.000e-01 6.000e-01 -1.267e-07 1.807e-07
92 1 0.000e+00 8.000e-01 -3.651e-07 1.211e-07
93 1 2.000e-01 8.000e-01 5.215e-08 2.403e-07
94 1 4.000e-01 8.000e-01 2.906e-07 1.863e-09
95 1 6.000e-01 8.000e-01 -7.451e-09 -1.173e-07
96 1 8.000e-01 8.000e-01 5.290e-07 -4.750e-07
ITEM: TIMESTEP
0
ITEM: NUMBER OF ATOMS
24
ITEM: BOX BOUNDS xy xz yz pp pp pp
                     -5.00000000000000e-01 5.00000000000000e-01 0.00000000000000e+00
-5.00000000000000e-01	5.00000000000000e-01	0.00000000000000e+00
-5.00000000000000e-01	5.00000000000000e-01	0.00000000000000e+00
ITEM: ATOMS id type x y DisplacementX DisplacementY
97 1 0.000e+00 0.000e+00 -4.470e-08 1.341e-07
98 1 2.000e-01 0.000e+00 -1.043e-07 -7.004e-07
99 1 4.000e-01 0.000e+00 2.682e-07 -3.427e-07
100 1 6.000e-01 0.000e+00 -5.960e-08 2.533e-07
101 1 8.000e-01 0.000e+00 2.384e-07 -1.043e-07
102 1 0.000e+00 2.000e-01 5.960e-08 -1.043e-07
103 1 2.000e-01 2.000e-01 8.941e-08 -2.235e-07
104 1 4.000e-01 2.000e-01 2.533e-07 1.490e-08
105 1 8.000e-01 2.000e-01 -1.000e+00 -2.235e-07
106 1 0.000e+00 4.000e-01 1.788e-07 1.490e-08
107 1 2.000e-01 4.000e-01 7.451e-08 4.917e-07
108 1 4.000e-01 4.000e-01 1.043e-07 -1.043e-07
109 1 6.000e-01 4.000e-01 -1.192e-07 -1.043e-07
110 1 8.000e-01 4.000e-01 6.706e-08 1.937e-07
111 1 0.000e+00 6.000e-01 2.086e-07 -1.043e-07
112 1 2.000e-01 6.000e-01 -2.384e-07 2.533e-07
113 1 4.000e-01 6.000e-01 1.341e-07 1.341e-07
114 1 6.000e-01 6.000e-01 -1.192e-07 1.490e-08
115 1 8.000e-01 6.000e-01 2.980e-08 -1.043e-07
116 1 0.000e+00 8.000e-01 -1.490e-07 -2.235e-07
117 1 2.000e-01 8.000e-01 3.874e-07 -2.235e-07
118 1 4.000e-01 8.000e-01 3.278e-07 1.490e-08
119 1 6.000e-01 8.000e-01 -1.937e-07 -1.043e-07
120 1 8.000e-01 8.000e-01 -2.980e-08 1.341e-07
ITEM: TIMESTEP
0
ITEM: NUMBER OF ATOMS
24
ITEM: BOX BOUNDS xy xz yz pp pp pp
                     -5.00000000000000e-01 5.00000000000000e-01 0.00000000000000e+00
-5.00000000000000e-01	5.00000000000000e-01	0.00000000000000e+00
-5.00000000000000e-01	5.00000000000000e-01	0.00000000000000e+00
ITEM: ATOMS id type x y DisplacementX DisplacementY
97 1 0.000e+00 0.000e+00 -1.080e-07 -7.451e-09
98 1 2.000e-01 0.000e+00 -3.725e-09 3.725e-08
99 1 4.000e-01 0.000e+00 8.568e-08 1.714e-07
100 1 6.000e-01 0.000e+00 -1.676e-07 -2.533e-07
101 1 8.000e-01 0.000e+00 -1.118e-08 9.686e-08
102 1 0.000e+00 2.000e-01 1.155e-07 -1.416e-07
103 1 2.000e-01 2.000e-01 2.794e-07 7.451e-09
104 1 4.000e-01 2.000e-01 1.118e-08 -1.267e-07
105 1 8.000e-01 2.000e-01 2.421e-07 2.086e-07
106 1 0.000e+00 4.000e-01 -4.843e-08 -6.706e-08
107 1 2.000e-01 4.000e-01 -9.313e-08 -2.012e-07
108 1 4.000e-01 4.000e-01 -7.823e-08 7.451e-09
109 1 6.000e-01 4.000e-01 7.078e-08 -1.000e+00
110 1 8.000e-01 4.000e-01 -1.676e-07 -1.118e-08
111 1 0.000e+00 6.000e-01 -1.118e-08 -3.725e-08
112 1 2.000e-01 6.000e-01 -6.333e-08 -7.451e-09
113 1 4.000e-01 6.000e-01 -9.313e-08 -2.310e-07
114 1 6.000e-01 6.000e-01 1.118e-08 6.706e-08
115 1 8.000e-01 6.000e-01 -1.378e-07 3.725e-08
116 1 0.000e+00 8.000e-01 -1.118e-08 -9.686e-08
117 1 2.000e-01 8.000e-01 -2.570e-07 2.235e-08
118 1 4.000e-01 8.000e-01 7.078e-08 7.451e-09
119 1 6.000e-01 8.000e-01 5.588e-08 -2.235e-07
120 1 8.000e-01 8.000e-01 4.098e-08 -1.416e-07
ITEM: TIMESTEP
0
ITEM: NUMBER OF ATOMS
24
ITEM: BOX BOUNDS xy xz yz pp pp pp
                     -5.00000000000000e-01 5.00000000000000e-01 0.00000000000000e+00
-5.00000000000000e-01	5.00000000000000e-01	0.00000000000000e+00
-5.00000000000000e-01	5.00000000000000e-01	0.00000000000000e+00
ITEM: ATOMS id type x y DisplacementX DisplacementY
97 1 0.000e+00 0.000e+00 2.012e-07 -3.763e-07
98 1 2.000e-01 0.000e+00 2.012e-07 4.917e-07
99 1 4.000e-01 0.000e+00 -2.757e-07 2.347e-07
100 1 6.000e-01 0.000e+00 2.235e-08 -4.470e-07
101 1 8.000e-01 0.000e+00 2.012e-07 1.788e-07
102 1 0.000e+00 2.000e-01 2.235e-08 1.639e-07
103 1 2.000e-01 2.000e-01 8.196e-08 4.414e-07
104 1 4.000e-01 2.000e-01 1.000e+00 -2.459e-07
105 1 8.000e-01 2.000e-01 2.235e-08 2.831e-07
106 1 0.000e+00 4.000e-01 8.196e-08 -4.396e-07
107 1 2.000e-01 4.000e-01 -3.725e-08 -3.427e-07
108 1 4.000e-01 4.000e-01 -9.686e-08 1.490e-08
109 1 6.000e-01 4.000e-01 2.608e-07 1.937e-07
110 1 8.000e-01 4.000e-01 -9.686e-08 -2.831e-07
111 1 0.000e+00 6.000e-01 -1.565e-07 4.619e-07
112 1 2.000e-01 6.000e-01 8.196e-08 1.043e-07
113 1 4.000e-01 6.000e-01 2.235e-08 -1.416e-07
114 1 6.000e-01 6.000e-01 -2.161e-07 3.166e-07
115 1 8.000e-01 6.000e-01 -6.706e-08 4.470e-08
116 1 0.000e+00 8.000e-01 -9.686e-08 7.451e-09
117 1 2.000e-01 8.000e-01 -1.565e-07 -2.943e-07
118 1 4.000e-01 8.000e-01 -9.686e-08 -2.086e-07
119 1 6.000e-01 8.000e-01 2.235e-08 5.960e-08
120 1 8.000e-01 8.000e-01 8.196e-08 -2.086e-07
ITEM: TIMESTEP
0
ITEM: NUMBER OF ATOMS
24
ITEM: BOX BOUNDS xy xz yz pp pp pp
                     -5.00000000000000e-01 5.00000000000000e-01 0.00000000000000e+00
-5.00000000000000e-01	5.00000000000000e-01	0.00000000000000e+00
-5.00000000000000e-01	5.00000000000000e-01	0.00000000000000e+00
ITEM: ATOMS id type x y DisplacementX DisplacementY
97 1 0.000e+00 0.000e+00 1.118e-07 1.863e-09
98 1 2.000e-01 0.000e+00 -7.451e-09 -2.962e-07
99 1 4.000e-01 0.000e+00 2.310e-07 1.863e-09
100 1 6.000e-01 0.000e+00 -7.451e-09 1.000e+00
101 1 8.000e-01 0.000e+00 1.118e-07 -1.770e-07
102 1 0.000e+00 2.000e-01 2.906e-07 1.863e-09
103 1 2.000e-01 2.000e-01 2.310e-07 -1.770e-07
104 1 4.000e-01 2.000e-01 -6.706e-08 2.403e-07
105 1 8.000e-01 2.000e-01 -1.267e-07 6.147e-08
106 1 0.000e+00 4.000e-01 -7.451e-09 2.403e-07
107 1 2.000e-01 4.000e-01 -1.267e-07 1.807e-07
108 1 4.000e-01 4.000e-01 1.714e-07 1.807e-07
109 1 6.000e-01 4.000e-01 2.310e-07 1.807e-07
110 1 8.000e-01 4.000e-01 -7.451e-09 -5.774e-08
111 1 0.000e+00 6.000e-01 -6.706e-08 -1.173e-07
112 1 2.000e-01 6.000e-01 -6.706e-08 -1.173e-07
113 1 4.000e-01 6.000e-01 -3.651e-07 1.211e-07
114 1 6.000e-01 6.000e-01 5.215e-08 2.403e-07
115 1 8.000e-01 6.000e-01 2.906e-07 1.863e-09
116 1 0.000e+00 8.000e-01 2.906e-07 2.403e-07
117 1 2.000e-01 8.000e-01 -6.706e-08 1.807e-07
118 1 4.000e-01 8.000e-01 -7.451e-09 1.807e-07
119 1 6.000e-01 8.000e-01 -7.451e-09 -5.774e-08
120 1 8.000e-01 8.000e-01 -7.451e-09 6.147e-08
ITEM: TIMESTEP
0
ITEM: NUMBER OF ATOMS
24
ITEM: BOX BOUNDS xy xz yz pp pp pp
                     -5.00000000000000e-01 5.00000000000000e-01 0.00000000000000e+00
-5.00000000000000e-01	5.00000000000000e-01	0.00000000000000e+00
-5.00000000000000e-01	5.00000000000000e-01	0.00000000000000e+00
ITEM: ATOMS id type x y DisplacementX DisplacementY
121 1 0.000e+00 0.000e+00 2.682e-07 -3.427e-07
122 1 2.000e-01 0.000e+00 -5.960e-08 2.533e-07
123 1 4.000e-01 0.000e+00 2.384e-07 -1.043e-07
124 1 6.000e-01 0.000e+00 -4.470e-08 1.341e-07
125 1 8.000e-01 0.000e+00 -1.043e-07 -7.004e-07
126 1 0.000e+00 2.000e-01 2.533e-07 1.490e-08
127 1 4.000e-01 2.000e-01 -1.000e+00 -4.619e-07
128 1 6.000e-01 2.000e-01 0.000e+00 -1.043e-07
129 1 8.000e-01 2.000e-01 8.941e-08 -2.235e-07
130 1 0.000e+00 4.000e-01 1.043e-07 -1.043e-07
131 1 2.000e-01 4.000e-01 -1.192e-07 -1.043e-07
132 1 4.000e-01 4.000e-01 6.706e-08 1.937e-07
133 1 6.000e-01 4.000e-01 1.788e-07 1.490e-08
134 1 8.000e-01 4.000e-01 7.451e-08 4.917e-07
135 1 0.000e+00 6.000e-01 1.341e-07 1.341e-07