ITEM: TIMESTEP
0
ITEM: NUMBER OF ATOMS
4
ITEM: BOX BOUNDS xy xz yz pp pp pp
                     -5.00000000000000e-01 5.00000000000000e-01 0.00000000000000e+00
-5.00000000000000e-01	5.00000000000000e-01	0.00000000000000e+00
-5.00000000000000e-01	5.00000000000000e-01	0.00000000000000e+00
ITEM: ATOMS id type x y z DisplacementX DisplacementY DisplacementZ
1 1 0.000e+00 0.000e+00 0.000e+00 1.011e-01 -1.798e-03 -2.566e-03
2 1 -1.000e-01 0.000e+00 0.000e+00 8.925e-04 -5.412e-04 -8.644e-04
3 1 0.000e+00 1.000e-01 0.000e+00 -9.759e-04 4.381e-04 3.859e-04
4 1 0.000e+00 -1.000e-01 0.000e+00 8.878e-04 1.336e-03 2.311e-03
ITEM: TIMESTEP
0
ITEM: NUMBER OF ATOMS
4
ITEM: BOX BOUNDS xy xz yz pp pp pp
                     -5.00000000000000e-01 5.00000000000000e-01 0.00000000000000e+00
-5.00000000000000e-01	5.00000000000000e-01	0.00000000000000e+00
-5.00000000000000e-01	5.00000000000000e-01	0.00000000000000e+00
ITEM: ATOMS id type x y z DisplacementX DisplacementY DisplacementZ
5 1 0.000e+00 0.000e+00 0.000e+00 8.139e-04 9.831e-02 -1.859e-03
6 1 0.000e+00 -1.000e-01 0.000e+00 2.420e-03 -9.325e-04 6.318e-04
7 1 -1.000e-01 0.000e+00 0.000e+00 -8.954e-04 7.445e-05 3.285e-04
8 1 1.000e-01 0.000e+00 0.000e+00 2.043e-03 2.167e-04 -6.448e-04
