ITEM: TIMESTEP
0
ITEM: NUMBER OF ATOMS
5808
ITEM: BOX BOUNDS pp pp pp
0.0000000000000000e+00 1.5058546013000000e+02
0.0000000000000000e+00 4.8774550720000001e+01
0.0000000000000000e+00 8.6222039000000006e+00
ITEM: ATOMS id type x y z c_1[1] c_1[2] c_1[3] c_1[4] c_1[5] c_1[6]
1 2 6.22253755913000e-01 9.15362723763000e-01 3.59258524574000e-01 4.487e+05 2.399e+05 3.156e+05 5.314e-09 2.490e-09 -7.781e+02
2 1 6.22253755913000e-01 2.94763583301200e+00 3.23332646250000e+00 5.167e+05 3.254e+05 3.410e+05 -5.536e-09 -7.814e-09 2.731e+04
4 1 1.87713208837800e+00 2.94763583301200e+00 1.07777557372200e+00 5.167e+05 3.255e+05 3.410e+05 8.172e+02 -1.491e+02 2.737e+04
6 1 1.87713208837800e+00 9.15362723763000e-01 2.51480949957400e+00 4.494e+05 2.394e+05 3.155e+05 4.021e+04 1.792e+04 -1.565e+03
7 2 3.13201192669800e+00 9.15362723763000e-01 3.59258524574000e-01 4.515e+05 2.381e+05 3.152e+05 8.026e+04 3.572e+04 -3.921e+03
8 1 3.13201192669800e+00 2.94763583301200e+00 3.23332646250000e+00 5.167e+05 3.256e+05 3.409e+05 1.657e+03 -3.042e+02 2.754e+04
10 2 4.38689025916300e+00 2.94763583301200e+00 1.07777557372200e+00 5.167e+05 3.257e+05 3.408e+05 2.541e+03 -4.709e+02 2.782e+04
12 2 4.38689025916300e+00 9.15362723763000e-01 2.51480949957400e+00 4.551e+05 2.359e+05 3.147e+05 1.200e+05 5.326e+04 -7.824e+03
13 2 5.64176859162800e+00 9.15362723763000e-01 3.59258524574000e-01 4.602e+05 2.328e+05 3.141e+05 1.593e+05 7.044e+04 -1.324e+04
14 1 5.64176859162800e+00 2.94763583301200e+00 3.23332646250000e+00 5.167e+05 3.260e+05 3.406e+05 3.488e+03 -6.539e+02 2.822e+04
16 2 6.89664842994800e+00 2.94763583301200e+00 1.07777557372200e+00 5.167e+05 3.263e+05 3.404e+05 4.511e+03 -8.575e+02 2.872e+04
18 1 6.89664842994800e+00 9.15362723763000e-01 2.51480949957400e+00 4.667e+05 2.287e+05 3.132e+05 1.980e+05 8.715e+04 -2.014e+04
19 1 8.15152676241300e+00 9.15362723763000e-01 3.59258524574000e-01 4.746e+05 2.236e+05 3.122e+05 2.359e+05 1.033e+05 -2.845e+04
20 2 8.15152676241300e+00 2.94763583301200e+00 3.23332646250000e+00 5.167e+05 3.267e+05 3.401e+05 5.625e+03 -1.085e+03 2.934e+04
22 1 9.40640509487800e+00 2.94763583301200e+00 1.07777557372200e+00 5.167e+05 3.272e+05 3.398e+05 6.838e+03 -1.340e+03 3.006e+04
24 2 9.40640509487800e+00 9.15362723763000e-01 2.51480949957400e+00 4.837e+05 2.174e+05 3.110e+05 2.729e+05 1.189e+05 -3.813e+04
25 1 1.06612849331980e+01 9.15362723763000e-01 3.59258524574000e-01 4.939e+05 2.099e+05 3.095e+05 3.089e+05 1.339e+05 -4.911e+04
26 2 1.06612849331980e+01 2.94763583301200e+00 3.23332646250000e+00 5.168e+05 3.277e+05 3.395e+05 8.155e+03 -1.624e+03 3.088e+04
28 1 1.19161632656630e+01 2.94763583301200e+00 1.07777557372200e+00 5.169e+05 3.284e+05 3.392e+05 9.580e+03 -1.939e+03 3.181e+04
30 1 1.19161632656630e+01 9.15362723763000e-01 2.51480949957400e+00 5.051e+05 2.011e+05 3.077e+05 3.437e+05 1.482e+05 -6.135e+04
31 2 1.31710415981280e+01 9.15362723763000e-01 3.59258524574000e-01 5.171e+05 1.907e+05 3.057e+05 3.772e+05 1.619e+05 -7.477e+04
32 1 1.31710415981280e+01 2.94763583301200e+00 3.23332646250000e+00 5.170e+05 3.291e+05 3.388e+05 1.111e+04 -2.285e+03 3.284e+04
34 2 1.44259214364480e+01 2.94763583301200e+00 1.07777557372200e+00 5.173e+05 3.299e+05 3.385e+05 1.275e+04 -2.662e+03 3.396e+04
36 1 1.44259214364480e+01 9.15362723763000e-01 2.51480949957400e+00 5.297e+05 1.787e+05 3.034e+05 4.094e+05 1.749e+05 -8.933e+04
37 1 1.56807997689130e+01 9.15362723763000e-01 3.59258524574000e-01 5.426e+05 1.649e+05 3.007e+05 4.401e+05 1.872e+05 -1.050e+05
38 1 1.56807997689130e+01 2.94763583301200e+00 3.23332646250000e+00 5.175e+05 3.308e+05 3.381e+05 1.449e+04 -3.070e+03 3.517e+04
40 2 1.69356781013780e+01 2.94763583301200e+00 1.07777557372200e+00 5.179e+05 3.318e+05 3.378e+05 1.632e+04 -3.507e+03 3.648e+04
42 1 1.69356781013780e+01 9.15362723763000e-01 2.51480949957400e+00 5.556e+05 1.490e+05 2.977e+05 4.693e+05 1.990e+05 -1.218e+05
43 1 1.81905579396980e+01 9.15362723763000e-01 3.59258524574000e-01 5.686e+05 1.310e+05 2.942e+05 4.969e+05 2.102e+05 -1.396e+05
44 1 1.81905579396980e+01 2.94763583301200e+00 3.23332646250000e+00 5.183e+05 3.329e+05 3.374e+05 1.823e+04 -3.970e+03 3.788e+04
46 2 1.94454362721630e+01 2.94763583301200e+00 1.07777557372200e+00 5.187e+05 3.340e+05 3.371e+05 2.021e+04 -4.458e+03 3.936e+04
48 1 1.94454362721630e+01 9.15362723763000e-01 2.51480949957400e+00 5.813e+05 1.106e+05 2.904e+05 5.227e+05 2.208e+05 -1.585e+05
49 2 2.07003146046280e+01 9.15362723763000e-01 3.59258524574000e-01 5.936e+05 8.776e+04 2.861e+05 5.467e+05 2.308e+05 -1.783e+05
50 2 2.07003146046280e+01 2.94763583301200e+00 3.23332646250000e+00 5.192e+05 3.351e+05 3.368e+05 2.223e+04 -4.967e+03 4.092e+04
52 2 2.19551944429480e+01 2.94763583301200e+00 1.07777557372200e+00 5.198e+05 3.363e+05 3.366e+05 2.429e+04 -5.492e+03 4.256e+04
54 1 2.19551944429480e+01 9.15362723763000e-01 2.51480949957400e+00 6.054e+05 6.232e+04 2.814e+05 5.688e+05 2.402e+05 -1.990e+05
55 2 2.32100727754130e+01 9.15362723763000e-01 3.59258524574000e-01 6.164e+05 3.417e+04 2.764e+05 5.890e+05 2.491e+05 -2.207e+05
56 1 2.32100727754130e+01 2.94763583301200e+00 3.23332646250000e+00 5.205e+05 3.375e+05 3.363e+05 2.635e+04 -6.029e+03 4.428e+04
58 1 2.44649511078780e+01 2.94763583301200e+00 1.07777557372200e+00 5.211e+05 3.387e+05 3.361e+05 2.840e+04 -6.573e+03 4.608e+04
60 2 2.44649511078780e+01 9.15362723763000e-01 2.51480949957400e+00 6.266e+05 3.241e+03 2.710e+05 6.073e+05 2.576e+05 -2.433e+05
61 2 2.57198309461980e+01 9.15362723763000e-01 3.59258524574000e-01 6.359e+05 -3.055e+04 2.652e+05 6.237e+05 2.655e+05 -2.667e+05
62 2 2.57198309461980e+01 2.94763583301200e+00 3.23332646250000e+00 5.218e+05 3.399e+05 3.360e+05 3.040e+04 -7.118e+03 4.796e+04
64 1 2.69747092786630e+01 2.94763583301200e+00 1.07777557372200e+00 5.226e+05 3.410e+05 3.359e+05 3.233e+04 -7.659e+03 4.990e+04
66 1 2.69747092786630e+01 9.15362723763000e-01 2.51480949957400e+00 6.444e+05 -6.721e+04 2.591e+05 6.382e+05 2.731e+05 -2.911e+05
67 1 2.82295876111280e+01 9.15362723763000e-01 3.59258524574000e-01 6.517e+05 -1.068e+05 2.527e+05 6.509e+05 2.802e+05 -3.163e+05
68 1 2.82295876111280e+01 2.94763583301200e+00 3.23332646250000e+00 5.233e+05 3.421e+05 3.359e+05 3.415e+04 -8.188e+03 5.192e+04
70 1 2.94844674494480e+01 2.94763583301200e+00 1.07777557372200e+00 5.240e+05 3.431e+05 3.359e+05 3.584e+04 -8.698e+03 5.401e+04
72 2 2.94844674494480e+01 9.15362723763000e-01 2.51480949957400e+00 6.581e+05 -1.492e+05 2.461e+05 6.617e+05 2.869e+05 -3.423e+05
73 1 3.07393457819130e+01 9.15362723763000e-01 3.59258524574000e-01 6.633e+05 -1.944e+05 2.394e+05 6.707e+05 2.932e+05 -3.692e+05
74 1 3.07393457819130e+01 2.94763583301200e+00 3.23332646250000e+00 5.246e+05 3.439e+05 3.360e+05 3.736e+04 -9.182e+03 5.618e+04
76 1 3.19942241143780e+01 2.94763583301200e+00 1.07777557372200e+00 5.252e+05 3.448e+05 3.361e+05 3.876e+04 -9.647e+03 5.840e+04
78 2 3.19942241143780e+01 9.15362723763000e-01 2.51480949957400e+00 6.676e+05 -2.421e+05 2.326e+05 6.780e+05 2.990e+05 -3.968e+05
79 1 3.32491039526980e+01 9.15362723763000e-01 3.59258524574000e-01 6.710e+05 -2.922e+05 2.258e+05 6.835e+05 3.044e+05 -4.253e+05
80 2 3.32491039526980e+01 2.94763583301200e+00 3.23332646250000e+00 5.259e+05 3.455e+05 3.363e+05 4.002e+04 -1.009e+04 6.068e+04
82 2 3.45039822851630e+01 2.94763583301200e+00 1.07777557372200e+00 5.266e+05 3.462e+05 3.366e+05 4.115e+04 -1.050e+04 6.301e+04
84 2 3.45039822851630e+01 9.15362723763000e-01 2.51480949957400e+00 6.736e+05 -3.444e+05 2.192e+05 6.874e+05 3.092e+05 -4.546e+05
85 1 3.57588606176280e+01 9.15362723763000e-01 3.59258524574000e-01 6.757e+05 -3.985e+05 2.127e+05 6.896e+05 3.135e+05 -4.845e+05
86 1 3.57588606176280e+01 2.94763583301200e+00 3.23332646250000e+00 5.272e+05 3.468e+05 3.369e+05 4.213e+04 -1.089e+04 6.540e+04
88 2 3.70137404559480e+01 2.94763583301200e+00 1.07777557372200e+00 5.279e+05 3.473e+05 3.372e+05 4.294e+04 -1.123e+04 6.783e+04
90 1 3.70137404559480e+01 9.15362723763000e-01 2.51480949957400e+00 6.772e+05 -4.541e+05 2.065e+05 6.901e+05 3.171e+05 -5.152e+05
3 2 6.22253755913000e-01 4.97990845451500e+00 1.79629253664800e+00 5.129e+05 3.203e+05 3.391e+05 -6.014e-09 -2.240e-09 2.691e+04
5 1 1.87713208837800e+00 4.97990845451500e+00 3.95184342542600e+00 5.129e+05 3.203e+05 3.391e+05 -1.958e+01 -1.562e+01 2.691e+04
9 2 3.13201192669800e+00 4.97990845451500e+00 1.79629253664800e+00 5.129e+05 3.203e+05 3.391e+05 -3.913e+01 -3.117e+01 2.691e+04
11 2 4.38689025916300e+00 4.97990845451500e+00 3.95184342542600e+00 5.129e+05 3.203e+05 3.391e+05 -5.851e+01 -4.658e+01 2.691e+04
15 1 5.64176859162800e+00 4.97990845451500e+00 1.79629253664800e+00 5.130e+05 3.203e+05 3.391e+05 -7.765e+01 -6.177e+01 2.691e+04
17 1 6.89664842994800e+00 4.97990845451500e+00 3.95184342542600e+00 5.130e+05 3.203e+05 3.391e+05 -9.657e+01 -7.670e+01 2.691e+04
21 1 8.15152676241300e+00 4.97990845451500e+00 1.79629253664800e+00 5.130e+05 3.203e+05 3.391e+05 -1.151e+02 -9.130e+01 2.691e+04
23 1 9.40640509487800e+00 4.97990845451500e+00 3.95184342542600e+00 5.130e+05 3.203e+05 3.392e+05 -1.333e+02 -1.055e+02 2.691e+04
27 1 1.06612849331980e+01 4.97990845451500e+00 1.79629253664800e+00 5.131e+05 3.203e+05 3.392e+05 -1.511e+02 -1.194e+02 2.691e+04
29 1 1.19161632656630e+01 4.97990845451500e+00 3.95184342542600e+00 5.131e+05 3.203e+05 3.392e+05 -1.685e+02 -1.328e+02 2.690e+04
33 2 1.31710415981280e+01 4.97990845451500e+00 1.79629253664800e+00 5.132e+05 3.203e+05 3.393e+05 -1.854e+02 -1.457e+02 2.690e+04
35 2 1.44259214364480e+01 4.97990845451500e+00 3.95184342542600e+00 5.132e+05 3.203e+05 3.393e+05 -2.017e+02 -1.581e+02 2.690e+04
39 2 1.56807997689130e+01 4.97990845451500e+00 1.79629253664800e+00 5.133e+05 3.203e+05 3.393e+05 -2.174e+02 -1.699e+02 2.689e+04
41 1 1.69356781013780e+01 4.97990845451500e+00 3.95184342542600e+00 5.133e+05 3.203e+05 3.394e+05 -2.324e+02 -1.810e+02 2.689e+04
45 2 1.81905579396980e+01 4.97990845451500e+00 1.79629253664800e+00 5.134e+05 3.203e+05 3.395e+05 -2.466e+02 -1.915e+02 2.689e+04
47 2 1.94454362721630e+01 4.97990845451500e+00 3.95184342542600e+00 5.134e+05 3.204e+05 3.395e+05 -2.599e+02 -2.011e+02 2.689e+04
51 1 2.07003146046280e+01 4.97990845451500e+00 1.79629253664800e+00 5.135e+05 3.204e+05 3.396e+05 -2.722e+02 -2.099e+02 2.688e+04
53 1 2.19551944429480e+01 4.97990845451500e+00 3.95184342542600e+00 5.136e+05 3.205e+05 3.397e+05 -2.835e+02 -2.178e+02 2.688e+04
57 1 2.32100727754130e+01 4.97990845451500e+00 1.79629253664800e+00 5.137e+05 3.205e+05 3.397e+05 -2.936e+02 -2.247e+02 2.688e+04
59 2 2.44649511078780e+01 4.97990845451500e+00 3.95184342542600e+00 5.138e+05 3.206e+05 3.398e+05 -3.024e+02 -2.305e+02 2.687e+04
63 2 2.57198309461980e+01 4.97990845451500e+00 1.79629253664800e+00 5.139e+05 3.207e+05 3.399e+05 -3.099e+02 -2.353e+02 2.687e+04
65 1 2.69747092786630e+01 4.97990845451500e+00 3.95184342542600e+00 5.140e+05 3.208e+05 3.400e+05 -3.157e+02 -2.387e+02 2.686e+04
69 1 2.82295876111280e+01 4.97990845451500e+00 1.79629253664800e+00 5.141e+05 3.209e+05 3.401e+05 -3.199e+02 -2.409e+02 2.686e+04
71 2 2.94844674494480e+01 4.97990845451500e+00 3.95184342542600e+00 5.142e+05 3.210e+05 3.402e+05 -3.222e+02 -2.416e+02 2.686e+04
75 1 3.07393457819130e+01 4.97990845451500e+00 1.79629253664800e+00 5.143e+05 3.211e+05 3.403e+05 -3.227e+02 -2.409e+02 2.685e+04
77 1 3.19942241143780e+01 4.97990845451500e+00 3.95184342542600e+00 5.144e+05 3.213e+05 3.404e+05 -3.211e+02 -2.386e+02 2.685e+04
81 1 3.32491039526980e+01 4.97990845451500e+00 1.79629253664800e+00 5.145e+05 3.214e+05 3.405e+05 -3.176e+02 -2.349e+02 2.685e+04
83 1 3.45039822851630e+01 4.97990845451500e+00 3.95184342542600e+00 5.146e+05 3.216e+05 3.406e+05 -3.121e+02 -2.297e+02 2.684e+04
87 1 3.57588606176280e+01 4.97990845451500e+00 1.79629253664800e+00 5.147e+05 3.218e+05 3.407e+05 -3.046e+02 -2.229e+02 2.684e+04
89 2 3.70137404559480e+01 4.97990845451500e+00 3.95184342542600e+00 5.148e+05 3.219e+05 3.408e+05 -2.950e+02 -2.147e+02 2.684e+04
361 1 6.22253755913000e-01 7.01218156376300e+00 3.59258524574000e-01 5.126e+05 3.198e+05 3.388e+05 8.894e-10 1.301e-09 2.689e+04
362 1 6.22253755913000e-01 9.04445467301200e+00 3.23332646250000e+00 5.127e+05 3.198e+05 3.388e+05 -7.232e-09 -8.294e-09 2.689e+04
364 2 1.87713208837800e+00 9.04445467301200e+00 1.07777557372200e+00 5.127e+05 3.198e+05 3.388e+05 8.101e-07 1.465e-06 2.689e+04
366 1 1.87713208837800e+00 7.01218156376300e+00 2.51480949957400e+00 5.126e+05 3.198e+05 3.388e+05 -1.561e+00 -1.185e+00 2.689e+04
367 1 3.13201192669800e+00 7.01218156376300e+00 3.59258524574000e-01 5.126e+05 3.198e+05 3.388e+05 -3.090e+00 -2.343e+00 2.689e+04
368 1 3.13201192669800e+00 9.04445467301200e+00 3.23332646250000e+00 5.127e+05 3.198e+05 3.388e+05 -4.260e-07 -5.750e-07 2.689e+04
370 1 4.38689025916300e+00 9.04445467301200e+00 1.07777557372200e+00 5.127e+05 3.198e+05 3.388e+05 -1.862e-10 9.192e-10 2.689e+04
372 2 4.38689025916300e+00 7.01218156376300e+00 2.51480949957400e+00 5.126e+05 3.198e+05 3.388e+05 -4.545e+00 -3.447e+00 2.689e+04
373 1 5.64176859162800e+00 7.01218156376300e+00 3.59258524574000e-01 5.126e+05 3.198e+05 3.388e+05 -5.893e+00 -4.471e+00 2.689e+04
374 2 5.64176859162800e+00 9.04445467301200e+00 3.23332646250000e+00 5.127e+05 3.198e+05 3.388e+05 4.266e-07 5.746e-07 2.689e+04
376 1 6.89664842994800e+00 9.04445467301200e+00 1.07777557372200e+00 5.127e+05 3.198e+05 3.388e+05 -8.081e-07 -1.465e-06 2.689e+04
378 1 6.89664842994800e+00 7.01218156376300e+00 2.51480949957400e+00 5.126e+05 3.198e+05 3.388e+05 -7.116e+00 -5.396e+00 2.689e+04
379 1 8.15152676241300e+00 7.01218156376300e+00 3.59258524574000e-01 5.126e+05 3.198e+05 3.388e+05 -8.175e+00 -6.200e+00 2.689e+04
380 1 8.15152676241300e+00 9.04445467301200e+00 3.23332646250000e+00 5.127e+05 3.198e+05 3.388e+05 -1.511e-10 -3.178e-10 2.689e+04
382 2 9.40640509487800e+00 9.04445467301200e+00 1.07777557372200e+00 5.127e+05 3.198e+05 3.388e+05 8.070e-07 1.465e-06 2.689e+04
384 2 9.40640509487800e+00 7.01218156376300e+00 2.51480949957400e+00 5.126e+05 3.198e+05 3.388e+05 -9.050e+00 -6.865e+00 2.689e+04
385 2 1.06612849331980e+01 7.01218156376300e+00 3.59258524574000e-01 5.127e+05 3.198e+05 3.388e+05 -9.732e+00 -7.381e+00 2.689e+04
386 1 1.06612849331980e+01 9.04445467301200e+00 3.23332646250000e+00 5.127e+05 3.198e+05 3.388e+05 -4.254e-07 -5.743e-07 2.689e+04
388 2 1.19161632656630e+01 9.04445467301200e+00 1.07777557372200e+00 5.127e+05 3.198e+05 3.388e+05 -8.373e-11 6.115e-11 2.689e+04
390 1 1.19161632656630e+01 7.01218156376300e+00 2.51480949957400e+00 5.127e+05 3.198e+05 3.388e+05 -1.019e+01 -7.730e+00 2.689e+04
391 2 1.31710415981280e+01 7.01218156376300e+00 3.59258524574000e-01 5.127e+05 3.198e+05 3.388e+05 -1.042e+01 -7.905e+00 2.689e+04
392 1 1.31710415981280e+01 9.04445467301200e+00 3.23332646250000e+00 5.127e+05 3.198e+05 3.388e+05 4.253e-07 5.746e-07 2.689e+04
394 2 1.44259214364480e+01 9.04445467301200e+00 1.07777557372200e+00 5.127e+05 3.198e+05 3.388e+05 -8.071e-07 -1.465e-06 2.689e+04
396 1 1.44259214364480e+01 7.01218156376300e+00 2.51480949957400e+00 5.127e+05 3.198e+05 3.388e+05 -1.042e+01 -7.901e+00 2.689e+04
397 2 1.56807997689130e+01 7.01218156376300e+00 3.59258524574000e-01 5.127e+05 3.198e+05 3.388e+05 -1.017e+01 -7.711e+00 2.689e+04
398 2 1.56807997689130e+01 9.04445467301200e+00 3.23332646250000e+00 5.127e+05 3.198e+05 3.388e+05 1.136e-10 -1.685e-10 2.689e+04
400 2 1.69356781013780e+01 9.04445467301200e+00 1.07777557372200e+00 5.127e+05 3.198e+05 3.388e+05 8.072e-07 1.465e-06 2.689e+04
402 1 1.69356781013780e+01 7.01218156376300e+00 2.51480949957400e+00 5.127e+05 3.198e+05 3.388e+05 -9.674e+00 -7.337e+00 2.689e+04
403 1 1.81905579396980e+01 7.01218156376300e+00 3.59258524574000e-01 5.127e+05 3.198e+05 3.388e+05 -8.944e+00 -6.781e+00 2.689e+04
404 2 1.81905579396980e+01 9.04445467301200e+00 3.23332646250000e+00 5.127e+05 3.198e+05 3.388e+05 -4.254e-07 -5.742e-07 2.689e+04
406 1 1.94454362721630e+01 9.04445467301200e+00 1.07777557372200e+00 5.127e+05 3.198e+05 3.388e+05 9.537e-11 7.330e-11 2.689e+04
408 1 1.94454362721630e+01 7.01218156376300e+00 2.51480949957400e+00 5.127e+05 3.198e+05 3.388e+05 -7.974e+00 -6.045e+00 2.689e+04
409 2 2.07003146046280e+01 7.01218156376300e+00 3.59258524574000e-01 5.127e+05 3.198e+05 3.388e+05 -6.779e+00 -5.139e+00 2.689e+04
410 2 2.07003146046280e+01 9.04445467301200e+00 3.23332646250000e+00 5.127e+05 3.198e+05 3.388e+05 4.252e-07 5.745e-07 2.689e+04
412 2 2.19551944429480e+01 9.04445467301200e+00 1.07777557372200e+00 5.127e+05 3.198e+05 3.388e+05 -8.074e-07 -1.465e-06 2.689e+04
414 2 2.19551944429480e+01 7.01218156376300e+00 2.51480949957400e+00 5.127e+05 3.198e+05 3.388e+05 -5.376e+00 -4.073e+00 2.689e+04
415 2 2.32100727754130e+01 7.01218156376300e+00 3.59258524574000e-01 5.127e+05 3.198e+05 3.388e+05 -3.776e+00 -2.859e+00 2.688e+04
416 1 2.32100727754130e+01 9.04445467301200e+00 3.23332646250000e+00 5.127e+05 3.198e+05 3.388e+05 2.649e-11 -4.953e-11 2.689e+04
418 1 2.44649511078780e+01 9.04445467301200e+00 1.07777557372200e+00 5.127e+05 3.198e+05 3.388e+05 8.070e-07 1.465e-06 2.689e+04
420 2 2.44649511078780e+01 7.01218156376300e+00 2.51480949957400e+00 5.127e+05 3.198e+05 3.388e+05 -2.003e+00 -1.514e+00 2.689e+04
421 2 2.57198309461980e+01 7.01218156376300e+00 3.59258524574000e-01 5.127e+05 3.198e+05 3.388e+05 -8.535e-02 -5.799e-02 2.689e+04
422 1 2.57198309461980e+01 9.04445467301200e+00 3.23332646250000e+00 5.127e+05 3.198e+05 3.388e+05 -4.253e-07 -5.740e-07 2.689e+04
424 2 2.69747092786630e+01 9.04445467301200e+00 1.07777557372200e+00 5.127e+05 3.198e+05 3.388e+05 6.669e-10 3.719e-10 2.689e+04
426 2 2.69747092786630e+01 7.01218156376300e+00 2.51480949957400e+00 5.127e+05 3.198e+05 3.388e+05 1.953e+00 1.488e+00 2.688e+04
427 1 2.82295876111280e+01 7.01218156376300e+00 3.59258524574000e-01 5.127e+05 3.198e+05 3.388e+05 4.075e+00 3.099e+00 2.688e+04
428 2 2.82295876111280e+01 9.04445467301200e+00 3.23332646250000e+00 5.127e+05 3.198e+05 3.388e+05 4.252e-07 5.742e-07 2.689e+04
430 2 2.94844674494480e+01 9.04445467301200e+00 1.07777557372200e+00 5.127e+05 3.198e+05 3.388e+05 -8.077e-07 -1.465e-06 2.689e+04
432 2 2.94844674494480e+01 7.01218156376300e+00 2.51480949957400e+00 5.127e+05 3.198e+05 3.388e+05 6.248e+00 4.750e+00 2.689e+04
433 2 3.07393457819130e+01 7.01218156376300e+00 3.59258524574000e-01 5.127e+05 3.198e+05 3.388e+05 8.457e+00 6.424e+00 2.688e+04
434 2 3.07393457819130e+01 9.04445467301200e+00 3.23332646250000e+00 5.127e+05 3.198e+05 3.388e+05 8.251e-11 1.970e-10 2.689e+04
436 1 3.19942241143780e+01 9.04445467301200e+00 1.07777557372200e+00 5.127e+05 3.198e+05 3.388e+05 8.072e-07 1.465e-06 2.689e+04
438 2 3.19942241143780e+01 7.01218156376300e+00 2.51480949957400e+00 5.127e+05 3.198e+05 3.388e+05 1.067e+01 8.105e+00 2.689e+04
439 1 3.32491039526980e+01 7.01218156376300e+00 3.59258524574000e-01 5.127e+05 3.198e+05 3.388e+05 1.287e+01 9.775e+00 2.689e+04
440 1 3.32491039526980e+01 9.04445467301200e+00 3.23332646250000e+00 5.127e+05 3.198e+05 3.388e+05 -4.253e-07 -5.745e-07 2.689e+04
442 2 3.45039822851630e+01 9.04445467301200e+00 1.07777557372200e+00 5.127e+05 3.198e+05 3.388e+05 8.317e-10 4.558e-10 2.689e+04
444 1 3.45039822851630e+01 7.01218156376300e+00 2.51480949957400e+00 5.127e+05 3.198e+05 3.388e+05 1.504e+01 1.142e+01 2.688e+04
445 2 3.57588606176280e+01 7.01218156376300e+00 3.59258524574000e-01 5.127e+05 3.198e+05 3.388e+05 1.715e+01 1.303e+01 2.689e+04
446 1 3.57588606176280e+01 9.04445467301200e+00 3.23332646250000e+00 5.127e+05 3.198e+05 3.388e+05 4.254e-07 5.750e-07 2.689e+04
448 1 3.70137404559480e+01 9.04445467301200e+00 1.07777557372200e+00 5.127e+05 3.198e+05 3.388e+05 -8.079e-07 -1.465e-06 2.689e+04
450 1 3.70137404559480e+01 7.01218156376300e+00 2.51480949957400e+00 5.127e+05 3.198e+05 3.388e+05 1.918e+01 1.457e+01 2.689e+04
363 1 6.22253755913000e-01 1.10767272945150e+01 1.79629253664800e+00 5.127e+05 3.198e+05 3.388e+05 -6.348e-09 -2.440e-09 2.689e+04
365 1 1.87713208837800e+00 1.10767272945150e+01 3.95184342542600e+00 5.127e+05 3.198e+05 3.388e+05 -8.073e-07 -1.463e-06 2.689e+04
369 2 3.13201192669800e+00 1.10767272945150e+01 1.79629253664800e+00 5.127e+05 3.198e+05 3.388e+05 4.263e-07 5.739e-07 2.689e+04
371 1 4.38689025916300e+00 1.10767272945150e+01 3.95184342542600e+00 5.127e+05 3.198e+05 3.388e+05 1.004e-10 2.219e-10 2.689e+04
375 2 5.64176859162800e+00 1.10767272945150e+01 1.79629253664800e+00 5.127e+05 3.198e+05 3.388e+05 -4.263e-07 -5.744e-07 2.689e+04
377 1 6.89664842994800e+00 1.10767272945150e+01 3.95184342542600e+00 5.127e+05 3.198e+05 3.388e+05 8.082e-07 1.464e-06 2.689e+04
381 2 8.15152676241300e+00 1.10767272945150e+01 1.79629253664800e+00 5.127e+05 3.198e+05 3.388e+05 -2.406e-10 -1.935e-10 2.689e+04
383 1 9.40640509487800e+00 1.10767272945150e+01 3.95184342542600e+00 5.127e+05 3.198e+05 3.388e+05 -8.081e-07 -1.465e-06 2.689e+04
387 1 1.06612849331980e+01 1.10767272945150e+01 1.79629253664800e+00 5.127e+05 3.198e+05 3.388e+05 4.250e-07 5.734e-07 2.689e+04
389 2 1.19161632656630e+01 1.10767272945150e+01 3.95184342542600e+00 5.127e+05 3.198e+05 3.388e+05 -3.474e-13 5.120e-11 2.689e+04
393 1 1.31710415981280e+01 1.10767272945150e+01 1.79629253664800e+00 5.127e+05 3.198e+05 3.388e+05 -4.251e-07 -5.735e-07 2.689e+04
395 2 1.44259214364480e+01 1.10767272945150e+01 3.95184342542600e+00 5.127e+05 3.198e+05 3.388e+05 8.079e-07 1.465e-06 2.689e+04
399 2 1.56807997689130e+01 1.10767272945150e+01 1.79629253664800e+00 5.127e+05 3.198e+05 3.388e+05 6.653e-11 8.685e-11 2.689e+04
401 1 1.69356781013780e+01 1.10767272945150e+01 3.95184342542600e+00 5.127e+05 3.198e+05 3.388e+05 -8.081e-07 -1.465e-06 2.689e+04
405 2 1.81905579396980e+01 1.10767272945150e+01 1.79629253664800e+00 5.127e+05 3.198e+05 3.388e+05 4.255e-07 5.737e-07 2.689e+04
407 2 1.94454362721630e+01 1.10767272945150e+01 3.95184342542600e+00 5.127e+05 3.198e+05 3.388e+05 -1.556e-10 1.055e-11 2.689e+04
411 1 2.07003146046280e+01 1.10767272945150e+01 1.79629253664800e+00 5.127e+05 3.198e+05 3.388e+05 -4.254e-07 -5.737e-07 2.689e+04
413 2 2.19551944429480e+01 1.10767272945150e+01 3.95184342542600e+00 5.127e+05 3.198e+05 3.388e+05 8.081e-07 1.465e-06 2.689e+04
417 2 2.32100727754130e+01 1.10767272945150e+01 1.79629253664800e+00 5.127e+05 3.198e+05 3.388e+05 1.605e-10 1.824e-10 2.689e+04
419 1 2.44649511078780e+01 1.10767272945150e+01 3.95184342542600e+00 5.127e+05 3.198e+05 3.388e+05 -8.080e-07 -1.465e-06 2.689e+04
423 1 2.57198309461980e+01 1.10767272945150e+01 1.79629253664800e+00 5.127e+05 3.198e+05 3.388e+05 4.250e-07 5.733e-07 2.689e+04
425 2 2.69747092786630e+01 1.10767272945150e+01 3.95184342542600e+00 5.127e+05 3.198e+05 3.388e+05 -2.258e-11 8.811e-11 2.689e+04
429 1 2.82295876111280e+01 1.10767272945150e+01 1.79629253664800e+00 5.127e+05 3.198e+05 3.388e+05 -4.253e-07 -5.736e-07 2.689e+04
431 1 2.94844674494480e+01 1.10767272945150e+01 3.95184342542600e+00 5.127e+05 3.198e+05 3.388e+05 8.080e-07 1.465e-06 2.689e+04
435 1 3.07393457819130e+01 1.10767272945150e+01 1.79629253664800e+00 5.127e+05 3.198e+05 3.388e+05 2.632e-10 2.178e-10 2.689e+04
437 1 3.19942241143780e+01 1.10767272945150e+01 3.95184342542600e+00 5.127e+05 3.198e+05 3.388e+05 -8.080e-07 -1.465e-06 2.689e+04
441 2 3.32491039526980e+01 1.10767272945150e+01 1.79629253664800e+00 5.127e+05 3.198e+05 3.388e+05 4.254e-07 5.735e-07 2.689e+04
443 1 3.45039822851630e+01 1.10767272945150e+01 3.95184342542600e+00 5.127e+05 3.198e+05 3.388e+05 -2.223e-11 -6.782e-10 2.689e+04
447 1 3.57588606176280e+01 1.10767272945150e+01 1.79629253664800e+00 5.127e+05 3.198e+05 3.388e+05 -4.252e-07 -5.736e-07 2.689e+04
449 2 3.70137404559480e+01 1.10767272945150e+01 3.95184342542600e+00 5.127e+05 3.198e+05 3.388e+05 8.083e-07 1.465e-06 2.689e+04
721 1 6.22253755913000e-01 1.31090004037630e+01 3.59258524574000e-01 5.127e+05 3.198e+05 3.388e+05 -5.781e-10 8.004e-10 2.689e+04
722 2 6.22253755913000e-01 1.51412735130120e+01 3.23332646250000e+00 5.127e+05 3.198e+05 3.388e+05 -7.260e-09 -8.483e-09 2.689e+04
724 2 1.87713208837800e+00 1.51412735130120e+01 1.07777557372200e+00 5.127e+05 3.198e+05 3.388e+05 8.084e-07 1.465e-06 2.689e+04
726 2 1.87713208837800e+00 1.31090004037630e+01 2.51480949957400e+00 5.127e+05 3.198e+05 3.388e+05 -5.003e-10 4.892e-10 2.689e+04
727 2 3.13201192669800e+00 1.31090004037630e+01 3.59258524574000e-01 5.127e+05 3.198e+05 3.388e+05 -4.002e-10 4.892e-10 2.689e+04
728 1 3.13201192669800e+00 1.51412735130120e+01 3.23332646250000e+00 5.127e+05 3.198e+05 3.388e+05 -4.266e-07 -5.753e-07 2.689e+04
730 1 4.38689025916300e+00 1.51412735130120e+01 1.07777557372200e+00 5.127e+05 3.198e+05 3.388e+05 -6.533e-10 5.858e-10 2.689e+04
732 1 4.38689025916300e+00 1.31090004037630e+01 2.51480949957400e+00 5.127e+05 3.198e+05 3.388e+05 -1.536e-10 -2.858e-11 2.689e+04
733 1 5.64176859162800e+00 1.31090004037630e+01 3.59258524574000e-01 5.127e+05 3.198e+05 3.388e+05 1.015e-09 -5.239e-10 2.689e+04
734 1 5.64176859162800e+00 1.51412735130120e+01 3.23332646250000e+00 5.127e+05 3.198e+05 3.388e+05 4.262e-07 5.746e-07 2.689e+04
736 1 6.89664842994800e+00 1.51412735130120e+01 1.07777557372200e+00 5.127e+05 3.198e+05 3.388e+05 -8.086e-07 -1.465e-06 2.689e+04
738 1 6.89664842994800e+00 1.31090004037630e+01 2.51480949957400e+00 5.127e+05 3.198e+05 3.388e+05 -1.320e-10 -1.563e-12 2.689e+04
739 1 8.15152676241300e+00 1.31090004037630e+01 3.59258524574000e-01 5.127e+05 3.198e+05 3.388e+05 -3.676e-10 2.462e-11 2.689e+04
740 1 8.15152676241300e+00 1.51412735130120e+01 3.23332646250000e+00 5.127e+05 3.198e+05 3.388e+05 5.276e-10 -2.856e-10 2.689e+04
742 1 9.40640509487800e+00 1.51412735130120e+01 1.07777557372200e+00 5.127e+05 3.198e+05 3.388e+05 8.081e-07 1.465e-06 2.689e+04
744 1 9.40640509487800e+00 1.31090004037630e+01 2.51480949957400e+00 5.127e+05 3.198e+05 3.388e+05 1.133e-09 4.030e-10 2.689e+04
745 1 1.06612849331980e+01 1.31090004037630e+01 3.59258524574000e-01 5.127e+05 3.198e+05 3.388e+05 -2.415e-10 -6.197e-11 2.689e+04
746 2 1.06612849331980e+01 1.51412735130120e+01 3.23332646250000e+00 5.127e+05 3.198e+05 3.388e+05 -4.250e-07 -5.744e-07 2.689e+04
748 2 1.19161632656630e+01 1.51412735130120e+01 1.07777557372200e+00 5.127e+05 3.198e+05 3.388e+05 -2.727e-11 -1.146e-11 2.689e+04
750 1 1.19161632656630e+01 1.31090004037630e+01 2.51480949957400e+00 5.127e+05 3.198e+05 3.388e+05 -5.211e-12 3.075e-11 2.689e+04
751 1 1.31710415981280e+01 1.31090004037630e+01 3.59258524574000e-01 5.127e+05 3.198e+05 3.388e+05 2.249e-10 1.751e-10 2.689e+04
752 1 1.31710415981280e+01 1.51412735130120e+01 3.23332646250000e+00 5.127e+05 3.198e+05 3.388e+05 4.250e-07 5.745e-07 2.689e+04
754 1 1.44259214364480e+01 1.51412735130120e+01 1.07777557372200e+00 5.127e+05 3.198e+05 3.388e+05 -8.082e-07 -1.465e-06 2.689e+04
756 1 1.44259214364480e+01 1.31090004037630e+01 2.51480949957400e+00 5.127e+05 3.198e+05 3.388e+05 -1.151e-09 -4.489e-10 2.689e+04
757 2 1.56807997689130e+01 1.31090004037630e+01 3.59258524574000e-01 5.127e+05 3.198e+05 3.388e+05 -9.085e-11 1.303e-13 2.689e+04
758 1 1.56807997689130e+01 1.51412735130120e+01 3.23332646250000e+00 5.127e+05 3.198e+05 3.388e+05 -8.577e-11 -1.319e-10 2.689e+04
760 1 1.69356781013780e+01 1.51412735130120e+01 1.07777557372200e+00 5.127e+05 3.198e+05 3.388e+05 8.083e-07 1.465e-06 2.689e+04
762 2 1.69356781013780e+01 1.31090004037630e+01 2.51480949957400e+00 5.127e+05 3.198e+05 3.388e+05 1.013e-09 4.612e-10 2.689e+04
763 2 1.81905579396980e+01 1.31090004037630e+01 3.59258524574000e-01 5.127e+05 3.198e+05 3.388e+05 2.933e-10 5.250e-11 2.689e+04
764 1 1.81905579396980e+01 1.51412735130120e+01 3.23332646250000e+00 5.127e+05 3.198e+05 3.388e+05 -4.254e-07 -5.741e-07 2.689e+04
766 2 1.94454362721630e+01 1.51412735130120e+01 1.07777557372200e+00 5.127e+05 3.198e+05 3.388e+05 -1.695e-10 2.741e-10 2.689e+04
768 2 1.94454362721630e+01 1.31090004037630e+01 2.51480949957400e+00 5.127e+05 3.198e+05 3.388e+05 1.365e-10 8.425e-11 2.689e+04
769 1 2.07003146046280e+01 1.31090004037630e+01 3.59258524574000e-01 5.127e+05 3.198e+05 3.388e+05 1.504e-10 6.314e-11 2.689e+04
770 2 2.07003146046280e+01 1.51412735130120e+01 3.23332646250000e+00 5.127e+05 3.198e+05 3.388e+05 4.259e-07 5.747e-07 2.689e+04
772 2 2.19551944429480e+01 1.51412735130120e+01 1.07777557372200e+00 5.127e+05 3.198e+05 3.388e+05 -8.088e-07 -1.465e-06 2.689e+04
774 2 2.19551944429480e+01 1.31090004037630e+01 2.51480949957400e+00 5.127e+05 3.198e+05 3.388e+05 -5.480e-10 -2.331e-10 2.689e+04
775 2 2.32100727754130e+01 1.31090004037630e+01 3.59258524574000e-01 5.127e+05 3.198e+05 3.388e+05 -1.622e-10 6.505e-11 2.689e+04
776 1 2.32100727754130e+01 1.51412735130120e+01 3.23332646250000e+00 5.127e+05 3.198e+05 3.388e+05 -9.081e-11 -1.767e-10 2.689e+04
778 2 2.44649511078780e+01 1.51412735130120e+01 1.07777557372200e+00 5.127e+05 3.198e+05 3.388e+05 8.088e-07 1.466e-06 2.689e+04
780 2 2.44649511078780e+01 1.31090004037630e+01 2.51480949957400e+00 5.127e+05 3.198e+05 3.388e+05 1.097e-09 3.631e-10 2.689e+04
781 2 2.57198309461980e+01 1.31090004037630e+01 3.59258524574000e-01 5.127e+05 3.198e+05 3.388e+05 2.317e-10 -1.833e-11 2.689e+04
782 1 2.57198309461980e+01 1.51412735130120e+01 3.23332646250000e+00 5.127e+05 3.198e+05 3.388e+05 -4.253e-07 -5.739e-07 2.689e+04
784 1 2.69747092786630e+01 1.51412735130120e+01 1.07777557372200e+00 5.127e+05 3.198e+05 3.388e+05 -4.133e-10 -2.449e-10 2.689e+04
786 1 2.69747092786630e+01 1.31090004037630e+01 2.51480949957400e+00 5.127e+05 3.198e+05 3.388e+05 -6.358e-10 -1.398e-10 2.689e+04
787 2 2.82295876111280e+01 1.31090004037630e+01 3.59258524574000e-01 5.127e+05 3.198e+05 3.388e+05 -2.745e-11 -4.082e-11 2.689e+04
788 1 2.82295876111280e+01 1.51412735130120e+01 3.23332646250000e+00 5.127e+05 3.198e+05 3.388e+05 4.255e-07 5.743e-07 2.689e+04
790 1 2.94844674494480e+01 1.51412735130120e+01 1.07777557372200e+00 5.127e+05 3.198e+05 3.388e+05 -8.082e-07 -1.465e-06 2.689e+04
792 1 2.94844674494480e+01 1.31090004037630e+01 2.51480949957400e+00 5.127e+05 3.198e+05 3.388e+05 -6.731e-10 -3.396e-10 2.689e+04
793 1 3.07393457819130e+01 1.31090004037630e+01 3.59258524574000e-01 5.127e+05 3.198e+05 3.388e+05 1.294e-11 5.824e-11 2.689e+04