ITEM: TIMESTEP
0
ITEM: NUMBER OF ATOMS
74
ITEM: BOX BOUNDS xy xz yz pp pp pp
                     0.00000000000000e+00 1.06200000000000e+01 0.00000000000000e+00
0.00000000000000e+00	1.06200000000000e+01	0.00000000000000e+00
0.00000000000000e+00	1.06200000000000e+01	0.00000000000000e+00
ITEM: ATOMS id type x y z DisplacementX DisplacementY DisplacementZ
1 1 2.128e-03 5.269e+00 1.748e+00 8.061e-04 -1.039e-02 3.067e-04
2 1 -7.421e-04 3.488e+00 3.491e+00 1.082e-03 7.101e-03 8.910e-03
3 1 -5.283e+00 -8.024e-03 1.748e+00 -2.152e-03 -1.193e-03 1.048e-03
4 1 5.293e+00 -2.229e-02 1.746e+00 4.676e-04 -1.134e-03 3.999e-04
5 1 -5.293e+00 1.759e+00 -1.427e-02 -1.086e-03 5.396e-04 -1.383e-04
6 1 5.294e+00 1.736e+00 -1.546e-02 1.412e-03 -1.074e-03 2.388e-05
7 1 2.620e-04 5.255e+00 -1.767e+00 -1.074e-04 5.620e-03 -8.598e-03
8 1 6.628e-03 -5.300e+00 1.746e+00 6.902e-04 -1.829e-03 -2.075e-03
9 1 6.962e-03 -5.299e+00 -1.774e+00 3.534e-04 -2.228e-03 -2.889e-03
10 1 -1.752e+00 -5.300e+00 -1.686e-02 -1.845e-03 -2.896e-03 -5.878e-04
11 1 1.767e+00 -5.301e+00 -1.515e-02 1.761e-03 -2.525e-03 -1.662e-03
12 1 5.289e+00 -2.033e-02 -1.774e+00 4.857e-03 -3.072e-03 -3.345e-03
13 1 -5.280e+00 -6.361e-03 -1.774e+00 -4.236e-03 -3.430e-03 -4.143e-03
14 1 -5.274e+00 -1.771e+00 -1.312e-02 -6.899e-03 -2.273e-03 -4.400e-03
15 1 5.288e+00 -1.781e+00 -1.300e-02 2.407e-03 -2.935e-03 -8.316e-04
16 1 -1.761e+00 5.261e+00 -1.021e-02 -3.981e-03 2.947e-03 -4.974e-03
17 1 1.764e+00 5.253e+00 -1.060e-02 2.760e-03 1.695e-03 -5.697e-03
18 1 8.449e-04 3.503e+00 -3.533e+00 7.079e-04 -9.300e-03 4.971e-03
19 1 5.622e-03 -3.539e+00 3.508e+00 -1.140e-03 5.542e-03 -8.571e-03
20 1 3.421e-03 -3.533e+00 -3.533e+00 -7.631e-04 -4.836e-04 4.176e-03
21 1 3.527e+00 -3.537e+00 -1.235e-02 -3.433e-03 5.872e-04 -3.038e-03
22 1 -3.513e+00 -3.535e+00 -1.296e-02 2.955e-03 3.127e-03 -2.488e-03
23 1 -3.521e+00 -6.493e-03 -3.534e+00 1.852e-03 -1.557e-03 2.136e-03
24 1 3.523e+00 -1.938e-02 -3.532e+00 -1.471e-03 -3.384e-03 3.384e-03
25 1 3.526e+00 3.494e+00 -8.435e-03 -3.077e-03 -5.698e-03 -4.200e-03
26 1 -3.529e+00 3.514e+00 -1.035e-02 1.568e-03 -3.014e-03 -4.457e-03
27 1 -3.519e+00 -3.649e-03 3.503e+00 5.903e-04 -4.932e-03 -3.842e-03
28 1 3.526e+00 -1.741e-02 3.505e+00 -1.007e-03 -3.227e-03 -4.590e-03
29 1 1.752e+00 1.740e+00 3.496e+00 7.338e-03 -4.966e-03 6.466e-03
30 1 -1.755e+00 1.750e+00 3.494e+00 -9.258e-03 -4.366e-03 7.496e-03
31 1 -1.756e+00 3.498e+00 1.747e+00 -5.980e-03 5.966e-03 -4.891e-03
32 1 1.754e+00 3.486e+00 1.748e+00 9.414e-03 8.045e-03 -4.134e-03
33 1 1.766e+00 1.739e+00 -3.534e+00 -4.544e-03 -4.696e-03 2.134e-03
34 1 -1.768e+00 1.751e+00 -3.534e+00 4.115e-03 -4.131e-03 2.763e-03
35 1 1.762e+00 -1.774e+00 3.502e+00 -1.075e-03 -1.804e-03 -1.637e-03
36 1 -1.754e+00 -1.768e+00 3.502e+00 -2.413e-03 -3.195e-03 -1.287e-03
37 1 1.762e+00 -1.773e+00 -3.533e+00 5.221e-04 -1.107e-03 3.575e-03
38 1 -1.755e+00 -1.770e+00 -3.534e+00 8.529e-04 -1.044e-03 2.765e-04
39 1 -1.765e+00 3.504e+00 -1.770e+00 -5.986e-05 -3.103e-03 -3.308e-03
40 1 1.763e+00 3.495e+00 -1.769e+00 -1.217e-03 -2.459e-03 -2.675e-03
41 1 -1.755e+00 -3.536e+00 1.747e+00 6.046e-04 3.946e-03 -4.472e-03
42 1 1.764e+00 -3.540e+00 1.745e+00 -3.784e-03 3.041e-03 -3.515e-03
43 1 -1.754e+00 -3.534e+00 -1.773e+00 5.062e-04 -9.823e-04 1.421e-03
44 1 1.764e+00 -3.537e+00 -1.773e+00 -2.158e-04 -9.328e-04 6.792e-04
45 1 -3.516e+00 -1.770e+00 -1.772e+00 1.255e-03 -1.648e-04 -6.663e-04
46 1 3.525e+00 -1.777e+00 -1.772e+00 -1.480e-04 -1.311e-03 5.468e-04
47 1 3.523e+00 1.736e+00 -1.769e+00 9.748e-04 -5.198e-03 -1.479e-03
48 1 -3.523e+00 1.755e+00 -1.769e+00 -2.313e-03 -4.953e-03 -4.638e-03
49 1 -3.513e+00 -1.767e+00 1.747e+00 -3.319e-03 -4.240e-03 -5.369e-03
50 1 3.523e+00 -1.776e+00 1.746e+00 1.528e-03 -2.494e-03 -6.414e-03
51 1 -3.539e+00 1.756e+00 1.744e+00 1.098e-02 -4.020e-03 -5.263e-03
52 1 3.538e+00 1.739e+00 1.747e+00 -1.265e-02 -6.114e-03 -4.808e-03
53 1 -9.563e-04 1.746e+00 5.276e+00 -6.838e-04 -1.752e-03 -9.293e-03
54 1 7.885e-04 -1.770e+00 5.262e+00 1.936e-03 -7.390e-03 2.861e-03
55 1 1.763e+00 -1.512e-02 5.262e+00 6.185e-03 -4.706e-03 1.163e-03
56 1 -1.760e+00 -6.947e-03 5.262e+00 -4.125e-03 -5.439e-03 2.869e-03
57 1 2.200e-04 1.960e-04 -3.942e-04 -1.731e-03 1.732e+00 1.732e+00
58 1 1.000e-04 -1.249e-03 3.492e+00 -4.517e-04 -1.707e-02 2.319e-02
59 1 -2.422e-04 3.490e+00 9.969e-04 7.374e-05 1.972e-02 -1.726e-02
60 1 1.755e+00 -6.878e-03 1.747e+00 -1.316e-03 -1.475e-02 -1.332e-02
61 1 -1.750e+00 3.534e-03 1.748e+00 -1.190e-03 -1.617e-02 -1.415e-02
62 1 -1.754e+00 1.749e+00 -1.553e-03 1.229e-04 -1.306e-02 -1.347e-02
63 1 1.752e+00 1.741e+00 -2.610e-04 -1.724e-03 -1.583e-02 -1.475e-02
64 1 -3.521e+00 -3.520e-03 -1.143e-02 -1.387e-02 -4.351e-03 -4.788e-03
65 1 3.523e+00 -1.743e-02 -9.577e-03 1.171e-02 -5.188e-03 -4.358e-03
66 1 8.698e-04 -1.465e-02 -3.534e+00 -1.386e-03 -4.743e-04 -1.132e-02
67 1 4.779e-03 -3.539e+00 -1.346e-02 2.310e-04 -8.421e-03 1.025e-03
68 1 3.025e-03 -1.785e+00 1.746e+00 -5.501e-04 1.981e-02 -1.391e-02
69 1 7.719e-04 1.746e+00 -1.781e+00 -1.698e-03 -1.457e-02 2.093e-02
70 1 1.983e-03 -1.770e+00 -1.770e+00 1.032e-03 5.740e-03 7.312e-03
71 1 1.760e+00 -1.514e-02 -1.768e+00 -7.906e-03 -4.380e-03 7.868e-03
72 1 -1.760e+00 -6.910e-03 -1.769e+00 9.392e-03 -3.598e-03 7.304e-03
73 1 -1.758e+00 -1.772e+00 -9.881e-03 9.998e-03 7.925e-03 -5.904e-03
74 1 1.760e+00 -1.774e+00 -1.146e-02 -8.819e-03 6.476e-03 -4.940e-03
ITEM: TIMESTEP
0
ITEM: NUMBER OF ATOMS
74
ITEM: BOX BOUNDS xy xz yz pp pp pp
                     0.00000000000000e+00 1.06200000000000e+01 0.00000000000000e+00
0.00000000000000e+00	1.06200000000000e+01	0.00000000000000e+00
0.00000000000000e+00	1.06200000000000e+01	0.00000000000000e+00
ITEM: ATOMS id type x y z DisplacementX DisplacementY DisplacementZ
75 1 5.291e+00 -1.288e-02 1.748e+00 -1.084e-02 -1.108e-03 -1.186e-03
76 1 3.507e+00 -8.370e-03 3.494e+00 5.070e-03 2.392e-04 6.675e-03
77 1 -6.607e-04 -5.289e+00 1.749e+00 -2.246e-05 -1.105e-04 -1.745e-03
78 1 -4.564e-03 5.270e+00 1.748e+00 1.785e-04 -3.846e-04 -6.442e-04
79 1 1.759e+00 -5.288e+00 -1.313e-02 -2.479e-03 -9.131e-04 1.303e-03
80 1 1.760e+00 5.265e+00 -1.120e-02 -2.160e-03 5.450e-04 -1.105e-03
81 1 5.278e+00 -1.271e-02 -1.769e+00 3.965e-03 -1.526e-03 -7.876e-03
82 1 -5.293e+00 7.736e-03 1.748e+00 -2.644e-03 -1.591e-03 -1.412e-04
83 1 -5.293e+00 7.369e-03 -1.773e+00 -6.405e-04 -1.619e-04 -1.396e-03
84 1 -5.284e+00 -1.760e+00 -1.275e-02 -2.050e-03 -5.229e-04 -1.531e-03
85 1 -5.301e+00 1.775e+00 -1.394e-02 -3.135e-03 -4.211e-04 -1.978e-03
86 1 -3.102e-03 5.264e+00 -1.771e+00 -2.576e-03 2.735e-03 -2.315e-03
87 1 -1.365e-03 -5.284e+00 -1.773e+00 -3.229e-03 -3.587e-03 -4.111e-03
88 1 -1.758e+00 -5.285e+00 -1.292e-02 -3.865e-03 -6.721e-03 -2.310e-03
89 1 -1.772e+00 5.273e+00 -1.052e-02 -3.277e-03 2.600e-03 -1.498e-03
90 1 5.279e+00 -1.769e+00 -1.020e-02 2.964e-03 -2.302e-03 -3.860e-03
91 1 5.278e+00 1.744e+00 -8.353e-03 2.455e-03 2.811e-03 -5.313e-03
92 1 3.520e+00 -1.085e-02 -3.532e+00 -7.778e-03 1.485e-03 4.391e-03
93 1 -3.538e+00 6.923e-03 3.508e+00 5.256e-03 -7.531e-04 -6.955e-03
94 1 -3.531e+00 7.884e-03 -3.533e+00 9.353e-04 -1.280e-03 3.434e-03
95 1 -3.545e+00 3.531e+00 -1.117e-02 1.767e-03 -4.210e-03 -1.494e-03
96 1 -3.519e+00 -3.525e+00 -1.024e-02 2.012e-03 3.018e-03 -1.990e-03
97 1 -5.088e-03 -3.521e+00 -3.531e+00 -3.908e-03 3.491e-03 4.142e-03
98 1 -5.932e-03 3.511e+00 -3.532e+00 -4.305e-03 -2.296e-03 6.095e-03
99 1 3.518e+00 3.503e+00 -8.321e-03 -4.384e-03 -8.459e-04 -5.542e-03
100 1 3.514e+00 -3.524e+00 -8.230e-03 -4.251e-03 5.963e-04 -5.129e-03
101 1 -2.728e-03 -3.520e+00 3.505e+00 -4.410e-03 1.447e-03 -2.987e-03
102 1 -6.811e-03 3.511e+00 3.504e+00 -3.743e-03 -3.625e-03 -3.009e-03
103 1 1.754e+00 1.740e+00 3.495e+00 -4.725e-03 1.128e-02 6.831e-03
104 1 1.755e+00 -1.751e+00 3.494e+00 -4.333e-03 -1.172e-02 7.171e-03
105 1 3.508e+00 -1.756e+00 1.749e+00 7.124e-03 -8.018e-03 -3.370e-03
106 1 3.507e+00 1.734e+00 1.749e+00 8.471e-03 1.052e-02 -3.801e-03
107 1 1.754e+00 1.754e+00 -3.532e+00 -2.779e-03 -4.037e-03 2.009e-03
108 1 1.754e+00 -1.768e+00 -3.533e+00 -3.295e-03 3.215e-04 2.706e-03
109 1 -1.775e+00 1.763e+00 3.505e+00 -1.367e-03 -2.429e-04 -2.897e-03
110 1 -1.767e+00 -1.757e+00 3.505e+00 -1.620e-03 -3.517e-04 -1.818e-03
111 1 -1.776e+00 1.766e+00 -3.531e+00 5.935e-04 -1.256e-03 2.280e-03
112 1 -1.766e+00 -1.756e+00 -3.532e+00 -2.257e-03 8.166e-04 2.858e-04
113 1 3.515e+00 -1.764e+00 -1.769e+00 -2.415e-03 -9.635e-04 -3.238e-03
114 1 3.517e+00 1.744e+00 -1.767e+00 -2.669e-03 1.181e-03 -2.040e-03
115 1 -3.530e+00 -1.759e+00 1.748e+00 3.008e-03 2.096e-03 -5.842e-03
116 1 -3.542e+00 1.771e+00 1.748e+00 1.780e-03 -2.932e-03 -3.895e-03
117 1 -3.525e+00 -1.758e+00 -1.771e+00 4.526e-04 2.502e-03 1.649e-03
118 1 -3.539e+00 1.772e+00 -1.771e+00 -2.292e-04 -1.689e-03 1.745e-03
119 1 -1.762e+00 -3.521e+00 -1.769e+00 -4.681e-05 -6.501e-04 -9.615e-05
120 1 -1.776e+00 3.520e+00 -1.770e+00 -1.371e-03 9.416e-05 -1.333e-03
121 1 1.756e+00 3.504e+00 -1.765e+00 -5.630e-03 1.055e-03 -3.890e-03
122 1 1.757e+00 -3.520e+00 -1.767e+00 -4.417e-03 -2.952e-03 -4.791e-03
123 1 -1.758e+00 -3.518e+00 1.750e+00 -3.462e-03 -1.141e-03 -5.377e-03
124 1 -1.774e+00 3.520e+00 1.748e+00 -2.821e-03 4.428e-04 -3.539e-03
125 1 1.756e+00 -3.534e+00 1.748e+00 -4.273e-03 1.195e-02 -4.592e-03
126 1 1.758e+00 3.519e+00 1.748e+00 -4.569e-03 -1.370e-02 -3.327e-03
127 1 1.752e+00 -3.496e-03 5.278e+00 -9.746e-04 -9.622e-04 -9.079e-03
128 1 -1.770e+00 2.193e-03 5.264e+00 -5.541e-03 -1.799e-03 2.431e-03
129 1 -9.055e-03 1.756e+00 5.263e+00 -3.533e-03 3.397e-03 1.906e-03
130 1 -4.873e-03 -1.759e+00 5.263e+00 -2.977e-03 -6.543e-03 4.060e-03
131 1 1.426e-03 -4.152e-04 2.931e-04 1.740e+00 -7.312e-03 1.734e+00
132 1 4.948e-04 3.544e-04 3.495e+00 -1.190e-02 -1.072e-03 1.937e-02
133 1 3.507e+00 -8.517e-03 -1.284e-03 1.944e-02 -2.481e-04 -1.390e-02
134 1 -2.624e-03 1.748e+00 1.749e+00 -1.078e-02 -3.051e-03 -1.585e-02
135 1 4.258e-03 -1.749e+00 1.747e+00 -1.376e-02 -2.137e-03 -1.466e-02
136 1 1.755e+00 -1.751e+00 1.380e-03 -1.224e-02 -3.724e-03 -1.581e-02
137 1 1.754e+00 1.738e+00 3.189e-03 -1.435e-02 -8.617e-04 -1.477e-02
138 1 -1.451e-03 -3.519e+00 -9.416e-03 -4.577e-03 -1.442e-02 -4.817e-03
139 1 -6.105e-03 3.510e+00 -8.989e-03 -5.706e-03 1.216e-02 -4.400e-03
140 1 -1.203e-02 2.808e-04 -3.532e+00 -7.126e-04 -6.918e-04 -1.172e-02
141 1 -3.535e+00 8.532e-03 -1.171e-02 -8.671e-03 -1.649e-03 1.106e-03
142 1 -1.786e+00 4.882e-03 1.748e+00 2.148e-02 -4.527e-04 -1.416e-02
143 1 1.754e+00 -4.736e-03 -1.780e+00 -1.361e-02 -8.933e-04 1.839e-02
144 1 -1.768e+00 5.466e-03 -1.767e+00 5.946e-03 -1.010e-03 6.044e-03
145 1 -7.094e-03 1.756e+00 -1.768e+00 -3.773e-03 -9.675e-03 8.860e-03
146 1 -7.607e-03 -1.760e+00 -1.767e+00 -1.992e-03 7.037e-03 5.318e-03
147 1 -1.765e+00 -1.755e+00 -8.795e-03 8.989e-03 1.101e-02 -2.938e-03
148 1 -1.775e+00 1.764e+00 -8.048e-03 5.358e-03 -7.811e-03 -3.970e-03
ITEM: TIMESTEP
0
ITEM: NUMBER OF ATOMS
74
ITEM: BOX BOUNDS xy xz yz pp pp pp
                     0.00000000000000e+00 1.06200000000000e+01 0.00000000000000e+00
0.00000000000000e+00	1.06200000000000e+01	0.00000000000000e+00
0.00000000000000e+00	1.06200000000000e+01	0.00000000000000e+00
ITEM: ATOMS id type x y z DisplacementX DisplacementY DisplacementZ
149 1 1.696e-03 -5.273e+00 1.748e+00 -1.337e-03 9.828e-03 -8.838e-04
150 1 -4.613e-04 -3.488e+00 3.492e+00 -3.597e-05 -6.308e-03 5.855e-03
151 1 -5.298e+00 3.435e-02 1.745e+00 -1.512e-03 1.860e-03 -2.160e-03
152 1 5.293e+00 6.211e-03 1.745e+00 2.857e-04 -1.122e-03 -7.750e-05
153 1 -5.291e+00 -1.733e+00 -1.406e-02 -1.930e-03 2.757e-03 -3.679e-04
154 1 5.294e+00 -1.751e+00 -1.608e-02 1.896e-03 1.162e-03 -1.121e-03
155 1 3.024e-03 -5.258e+00 -1.770e+00 -5.253e-04 -2.971e-03 -9.850e-03
156 1 7.757e-03 5.286e+00 1.746e+00 2.637e-03 1.139e-03 5.594e-04
157 1 6.599e-03 5.285e+00 -1.776e+00 -3.521e-04 1.371e-03 1.329e-04
158 1 -1.755e+00 5.285e+00 -1.468e-02 -1.888e-03 9.008e-04 -4.491e-04
159 1 1.769e+00 5.286e+00 -1.426e-02 1.893e-03 5.251e-04 -5.431e-04
160 1 5.290e+00 7.712e-03 -1.773e+00 5.486e-03 2.518e-03 -3.360e-03
161 1 -5.293e+00 3.202e-02 -1.774e+00 -4.315e-03 2.829e-03 -3.038e-03
162 1 -5.298e+00 1.793e+00 -1.410e-02 -3.661e-03 5.533e-03 -2.555e-03
163 1 5.291e+00 1.765e+00 -1.588e-02 3.828e-03 2.723e-03 -2.538e-03
164 1 -1.756e+00 -5.260e+00 -1.253e-02 -4.971e-03 -2.119e-03 -3.305e-03
165 1 1.761e+00 -5.263e+00 -1.257e-02 3.407e-03 -2.223e-03 -4.529e-03
166 1 -5.663e-04 -3.503e+00 -3.536e+00 -5.504e-04 6.895e-03 3.426e-03
167 1 5.303e-03 3.528e+00 3.506e+00 -2.101e-04 -5.430e-03 -8.599e-03
168 1 5.731e-03 3.524e+00 -3.536e+00 -1.821e-03 1.409e-03 3.801e-03
169 1 3.529e+00 3.522e+00 -1.506e-02 -1.546e-03 -1.325e-03 -2.232e-03
170 1 -3.525e+00 3.535e+00 -1.500e-02 1.409e-03 -2.531e-03 -2.807e-03
171 1 -3.529e+00 2.517e-02 -3.535e+00 9.106e-04 2.962e-03 2.362e-03
172 1 3.525e+00 7.082e-03 -3.535e+00 -5.924e-04 1.630e-03 4.717e-03
173 1 3.525e+00 -3.509e+00 -1.247e-02 -1.476e-03 5.314e-03 -3.688e-03
174 1 -3.521e+00 -3.493e+00 -1.141e-02 2.600e-03 6.304e-03 -4.547e-03
175 1 -3.527e+00 2.361e-02 3.504e+00 1.123e-03 5.370e-03 -2.101e-03
176 1 3.524e+00 4.724e-03 3.503e+00 -1.687e-03 6.200e-03 -3.904e-03
177 1 1.753e+00 -1.748e+00 3.493e+00 8.831e-03 5.061e-03 7.271e-03
178 1 -1.755e+00 -1.740e+00 3.494e+00 -1.047e-02 5.811e-03 7.869e-03
179 1 -1.751e+00 -3.487e+00 1.746e+00 -9.662e-03 -7.369e-03 -6.310e-03
180 1 1.753e+00 -3.495e+00 1.746e+00 8.152e-03 -5.477e-03 -3.893e-03
181 1 1.766e+00 -1.749e+00 -3.535e+00 -2.532e-03 5.048e-03 1.772e-03
182 1 -1.768e+00 -1.739e+00 -3.536e+00 4.251e-03 4.560e-03 1.508e-03
183 1 1.764e+00 1.763e+00 3.502e+00 1.715e-03 1.999e-03 -4.660e-03
184 1 -1.761e+00 1.774e+00 3.501e+00 -8.543e-04 2.654e-03 -1.716e-03
185 1 1.764e+00 1.764e+00 -3.534e+00 -7.757e-04 3.575e-04 2.241e-03
186 1 -1.762e+00 1.774e+00 -3.535e+00 1.333e-04 2.210e-03 2.858e-03
187 1 -1.762e+00 -3.498e+00 -1.771e+00 1.921e-04 4.350e-03 -1.823e-03
188 1 1.761e+00 -3.505e+00 -1.773e+00 -1.974e-05 2.831e-03 -1.953e-03
189 1 -1.759e+00 3.532e+00 1.746e+00 4.979e-03 -2.243e-03 -3.607e-03
190 1 1.769e+00 3.527e+00 1.747e+00 -4.260e-03 -2.677e-03 -3.931e-03
191 1 -1.758e+00 3.527e+00 -1.775e+00 5.562e-04 -7.333e-04 1.323e-03
192 1 1.765e+00 3.522e+00 -1.775e+00 -2.920e-03 -5.947e-04 1.875e-03
193 1 -3.530e+00 1.782e+00 -1.773e+00 -2.105e-04 1.875e-03 -4.388e-04
194 1 3.525e+00 1.762e+00 -1.772e+00 4.210e-04 1.340e-03 -1.885e-03
195 1 3.525e+00 -1.751e+00 -1.769e+00 2.607e-03 4.255e-03 -5.384e-03
196 1 -3.523e+00 -1.733e+00 -1.769e+00 -2.757e-03 4.903e-03 -4.552e-03
197 1 -3.528e+00 1.781e+00 1.746e+00 -2.486e-03 3.362e-04 -3.235e-03
198 1 3.524e+00 1.761e+00 1.744e+00 2.099e-03 3.282e-03 -5.349e-03
199 1 -3.541e+00 -1.733e+00 1.745e+00 1.247e-02 4.172e-03 -5.409e-03
200 1 3.538e+00 -1.751e+00 1.746e+00 -1.223e-02 3.806e-03 -3.568e-03
201 1 -3.018e-04 -1.742e+00 5.274e+00 -4.227e-04 6.225e-04 -1.094e-02
202 1 2.336e-03 1.765e+00 5.262e+00 7.020e-04 9.834e-03 5.296e-03
203 1 1.761e+00 6.679e-03 5.260e+00 2.064e-03 5.563e-03 2.880e-03
204 1 -1.764e+00 1.817e-02 5.262e+00 -4.333e-03 4.046e-03 4.369e-04
205 1 1.277e-05 5.100e-04 -2.619e-04 -4.356e-04 -1.727e+00 1.729e+00
206 1 1.511e-03 -5.785e-04 3.492e+00 8.602e-04 1.658e-02 2.138e-02
207 1 1.043e-03 -3.489e+00 -1.995e-03 -4.884e-04 -2.085e-02 -1.466e-02
208 1 1.753e+00 -3.003e-03 1.746e+00 1.681e-03 1.378e-02 -1.270e-02
209 1 -1.756e+00 9.507e-03 1.747e+00 -1.070e-03 1.420e-02 -1.465e-02
210 1 -1.752e+00 -1.738e+00 -3.771e-03 2.205e-04 1.766e-02 -1.430e-02
211 1 1.754e+00 -1.746e+00 -3.568e-03 -1.161e-03 1.418e-02 -1.450e-02
212 1 -3.528e+00 2.372e-02 -1.052e-02 -1.336e-02 4.129e-03 -3.671e-03
213 1 3.526e+00 3.923e-03 -1.056e-02 1.317e-02 5.300e-03 -4.246e-03
214 1 4.446e-04 1.582e-02 -3.534e+00 -6.277e-04 1.765e-04 -9.061e-03
215 1 4.585e-03 3.530e+00 -1.341e-02 -6.974e-04 7.966e-03 -1.210e-03
216 1 1.529e-03 1.782e+00 1.746e+00 1.125e-03 -2.173e-02 -1.510e-02
217 1 -1.389e-03 -1.744e+00 -1.783e+00 1.696e-04 1.519e-02 2.176e-02
218 1 3.495e-03 1.765e+00 -1.767e+00 -8.384e-04 -5.988e-03 6.609e-03
219 1 1.762e+00 6.837e-03 -1.770e+00 -6.787e-03 4.324e-03 7.581e-03
220 1 -1.764e+00 1.680e-02 -1.769e+00 6.620e-03 5.899e-03 6.503e-03
221 1 -1.761e+00 1.774e+00 -1.078e-02 6.928e-03 -6.779e-03 -4.519e-03
222 1 1.765e+00 1.762e+00 -1.252e-02 -8.855e-03 -8.686e-03 -3.745e-03
ITEM: TIMESTEP
0
ITEM: NUMBER OF ATOMS
74
ITEM: BOX BOUNDS xy xz yz pp pp pp
                     0.00000000000000e+00 1.06200000000000e+01 0.00000000000000e+00
0.00000000000000e+00	1.06200000000000e+01	0.00000000000000e+00
0.00000000000000e+00	1.06200000000000e+01	0.00000000000000e+00
ITEM: ATOMS id type x y z DisplacementX DisplacementY DisplacementZ
223 1 -5.290e+00 1.518e-02 1.749e+00 1.034e-02 -1.715e-03 3.263e-04
224 1 -3.505e+00 8.269e-03 3.497e+00 -4.085e-03 -9.762e-04 4.116e-03
225 1 1.381e-02 -5.282e+00 1.749e+00 8.416e-04 -6.345e-04 4.164e-05
226 1 1.514e-02 5.276e+00 1.748e+00 1.952e-03 1.540e-03 -1.741e-03
227 1 -1.747e+00 -5.279e+00 -1.273e-02 2.023e-03 3.083e-04 -1.245e-03
228 1 -1.748e+00 5.277e+00 -1.331e-02 1.590e-03 1.907e-03 -2.244e-03
229 1 -5.276e+00 1.560e-02 -1.768e+00 -2.906e-03 -1.803e-03 -8.951e-03
230 1 5.300e+00 -6.383e-03 1.749e+00 3.382e-03 -2.187e-04 -1.668e-03
231 1 5.301e+00 -4.800e-03 -1.773e+00 4.339e-03 1.144e-03 -1.754e-03
232 1 5.302e+00 -1.763e+00 -1.278e-02 1.971e-03 -2.430e-03 -6.024e-04
233 1 5.302e+00 1.753e+00 -1.075e-02 3.333e-03 9.874e-04 1.524e-05
234 1 1.397e-02 5.270e+00 -1.773e+00 3.454e-03 3.707e-03 -2.577e-03
235 1 1.215e-02 -5.277e+00 -1.771e+00 4.172e-03 -4.932e-03 -1.432e-03
236 1 1.774e+00 -5.277e+00 -1.022e-02 4.028e-03 -5.154e-03 -4.176e-03
237 1 1.776e+00 5.269e+00 -9.714e-03 1.523e-03 3.930e-03 -2.810e-03
238 1 -5.274e+00 -1.746e+00 -8.392e-03 -3.567e-05 -3.335e-03 -4.289e-03
239 1 -5.282e+00 1.773e+00 -1.059e-02 -1.458e-03 3.245e-03 -6.097e-03
240 1 -3.518e+00 8.610e-03 -3.531e+00 9.937e-03 -1.444e-03 4.255e-03
241 1 3.540e+00 -3.550e-03 3.508e+00 -5.054e-03 1.739e-03 -7.871e-03
242 1 3.535e+00 -4.351e-03 -3.531e+00 2.684e-04 1.445e-03 3.216e-03
243 1 3.537e+00 3.509e+00 -1.014e-02 -2.072e-03 -3.873e-03 -5.335e-04
244 1 3.535e+00 -3.521e+00 -1.119e-02 -6.890e-04 1.587e-03 -1.829e-03
245 1 1.025e-02 -3.516e+00 -3.532e+00 5.207e-03 2.581e-03 3.931e-03
246 1 1.130e-02 3.513e+00 -3.532e+00 3.295e-03 -1.954e-03 4.160e-03
247 1 -3.513e+00 3.519e+00 -8.551e-03 3.230e-03 -1.119e-03 -5.039e-03
248 1 -3.509e+00 -3.510e+00 -9.387e-03 2.881e-03 -1.993e-04 -5.777e-03
249 1 9.118e-03 -3.514e+00 3.506e+00 5.938e-03 2.392e-03 -5.032e-03
250 1 1.009e-02 3.512e+00 3.504e+00 4.859e-03 3.047e-04 -3.679e-03
251 1 -1.751e+00 1.749e+00 3.494e+00 4.985e-03 1.170e-02 8.583e-03
252 1 -1.753e+00 -1.742e+00 3.495e+00 3.391e-03 -1.156e-02 6.173e-03
253 1 -3.503e+00 -1.738e+00 1.749e+00 -7.639e-03 -1.127e-02 -5.132e-03
254 1 -3.509e+00 1.758e+00 1.748e+00 -1.907e-03 8.525e-03 -2.977e-03
255 1 -1.753e+00 1.762e+00 -3.533e+00 5.995e-03 -4.899e-03 2.705e-03
256 1 -1.754e+00 -1.755e+00 -3.533e+00 4.607e-03 4.887e-03 4.606e-03
257 1 1.772e+00 1.753e+00 3.505e+00 1.338e-03 -1.537e-03 -2.719e-03
258 1 1.772e+00 -1.758e+00 3.505e+00 1.773e-03 1.200e-03 -2.526e-03
259 1 1.773e+00 1.754e+00 -3.532e+00 6.179e-04 -1.930e-04 3.260e-03
260 1 1.771e+00 -1.760e+00 -3.532e+00 1.740e-03 9.748e-04 1.859e-03
261 1 -3.513e+00 -1.748e+00 -1.768e+00 2.188e-03 4.266e-04 -2.794e-03
262 1 -3.516e+00 1.766e+00 -1.766e+00 2.410e-03 -3.063e-04 -3.015e-03
263 1 3.540e+00 -1.763e+00 1.748e+00 -1.534e-03 3.811e-03 -5.455e-03
264 1 3.541e+00 1.755e+00 1.749e+00 -9.830e-04 -4.148e-03 -2.871e-03
265 1 3.537e+00 -1.763e+00 -1.771e+00 -1.149e-03 8.722e-04 4.481e-04
266 1 3.536e+00 1.754e+00 -1.770e+00 1.338e-03 -1.986e-03 7.485e-04
267 1 1.772e+00 -3.517e+00 -1.770e+00 2.041e-03 1.299e-03 8.821e-05
268 1 1.774e+00 3.511e+00 -1.771e+00 5.297e-04 8.586e-04 1.643e-03
269 1 -1.751e+00 3.513e+00 -1.765e+00 5.490e-03 4.383e-04 -3.814e-03
270 1 -1.752e+00 -3.510e+00 -1.765e+00 5.004e-03 -3.385e-03 -5.274e-03
271 1 1.771e+00 -3.518e+00 1.747e+00 3.313e-03 -3.356e-03 -3.567e-03
272 1 1.772e+00 3.509e+00 1.748e+00 4.714e-03 7.569e-04 -4.197e-03
273 1 -1.752e+00 -3.526e+00 1.750e+00 4.029e-03 1.084e-02 -6.961e-03
274 1 -1.752e+00 3.529e+00 1.746e+00 6.996e-03 -1.420e-02 -3.478e-03
275 1 -1.753e+00 5.706e-03 5.276e+00 1.353e-03 -1.273e-04 -9.695e-03
276 1 1.769e+00 -1.196e-03 5.265e+00 9.390e-03 -1.864e-03 3.518e-03
277 1 8.968e-03 1.755e+00 5.263e+00 6.831e-03 4.511e-03 2.025e-03
278 1 6.649e-03 -1.755e+00 5.266e+00 5.349e-03 -4.436e-03 3.886e-03
279 1 1.374e-04 9.234e-04 -1.743e-03 -1.740e+00 3.240e-03 1.735e+00
280 1 -6.255e-04 -6.523e-04 3.496e+00 1.325e-02 6.453e-04 1.992e-02
281 1 -3.507e+00 1.160e-02 -5.138e-04 -1.812e-02 -1.343e-03 -1.562e-02
282 1 -1.320e-03 1.745e+00 1.749e+00 1.393e-02 -1.029e-03 -1.660e-02
283 1 -3.319e-04 -1.747e+00 1.750e+00 1.350e-02 2.360e-03 -1.445e-02
284 1 -1.751e+00 -1.741e+00 3.162e-04 1.369e-02 -2.174e-03 -1.439e-02
285 1 -1.753e+00 1.747e+00 3.647e-03 1.375e-02 4.047e-03 -1.617e-02
286 1 9.029e-03 -3.513e+00 -8.196e-03 4.815e-03 -1.257e-02 -5.886e-03
287 1 1.117e-02 3.512e+00 -7.370e-03 5.389e-03 1.333e-02 -5.933e-03
288 1 1.108e-02 -3.451e-04 -3.530e+00 -3.505e-04 3.981e-04 -8.819e-03
289 1 3.539e+00 -3.837e-03 -1.287e-02 1.010e-02 -3.771e-04 4.356e-04
290 1 1.785e+00 -6.365e-04 1.750e+00 -2.041e-02 2.840e-04 -1.309e-02
291 1 -1.754e+00 4.150e-03 -1.780e+00 1.328e-02 3.263e-04 1.749e-02
292 1 1.770e+00 -4.569e-03 -1.767e+00 -4.196e-03 -1.150e-03 4.068e-03
293 1 1.062e-02 1.753e+00 -1.768e+00 3.558e-03 -1.386e-02 6.835e-03
294 1 8.380e-03 -1.756e+00 -1.767e+00 4.749e-03 1.199e-02 7.121e-03
295 1 1.770e+00 -1.761e+00 -8.658e-03 -7.039e-03 1.017e-02 -3.593e-03
296 1 1.772e+00 1.754e+00 -8.682e-03 -6.913e-03 -1.084e-02 -4.448e-03
ITEM: TIMESTEP
0
ITEM: NUMBER OF ATOMS
74
ITEM: BOX BOUNDS xy xz yz pp pp pp
                     0.00000000000000e+00 1.06200000000000e+01 0.00000000000000e+00
0.00000000000000e+00	1.06200000000000e+01	0.00000000000000e+00
0.00000000000000e+00	1.06200000000000e+01	0.00000000000000e+00
ITEM: ATOMS id type x y z DisplacementX DisplacementY DisplacementZ
297 1 1.752e+00 5.265e+00 -2.413e-04 -3.457e-03 -1.090e-02 7.021e-04
298 1 5.288e+00 1.736e+00 -7.518e-04 -1.260e-02 -3.956e-03 6.897e-04
299 1 3.500e+00 3.484e+00 1.923e-03 3.191e-03 5.843e-03 -1.334e-03
300 1 -5.283e+00 -1.779e+00 -2.830e-03 -5.539e-03 -1.961e-03 1.437e-03
301 1 -1.762e+00 -5.306e+00 -8.294e-04 -4.255e-03 -4.887e-03 5.596e-04
302 1 -5.289e+00 -1.276e-02 1.760e+00 -4.227e-03 -1.444e-03 1.090e-03
303 1 -5.290e+00 -1.304e-02 -1.761e+00 -5.473e-03 -1.965e-03 -1.054e-04
304 1 -2.228e-03 -5.304e+00 1.761e+00 -3.504e-03 -4.014e-03 2.211e-04
305 1 -2.160e-03 -5.304e+00 -1.760e+00 -1.810e-03 -3.067e-03 2.396e-04
306 1 1.758e+00 -5.303e+00 -8.959e-05 -2.137e-03 -4.031e-03 1.462e-03
307 1 -5.298e+00 1.755e+00 -2.839e-04 -2.704e-03 -4.450e-04 -1.837e-03
308 1 -1.777e+00 5.265e+00 -5.454e-04 -5.903e-03 3.204e-03 9.936e-04
309 1 5.273e+00 -1.779e+00 1.074e-03 4.280e-03 -6.300e-03 -2.262e-04
310 1 -1.330e-02 5.260e+00 1.756e+00 -5.252e-03 2.007e-03 4.679e-03
311 1 -1.074e-02 5.258e+00 -1.757e+00 -6.597e-03 3.185e-03 -4.134e-03
312 1 5.274e+00 -2.215e-02 -1.757e+00 1.625e-03 -5.763e-03 -2.749e-03
313 1 5.274e+00 -2.054e-02 1.758e+00 2.715e-03 -5.027e-03 4.037e-03
314 1 -3.518e+00 -3.539e+00 8.564e-04 -9.014e-04 6.777e-04 5.396e-04
315 1 -3.547e+00 3.519e+00 2.839e-03 4.545e-03 -6.509e-03 -1.937e-04
316 1 3.515e+00 -3.543e+00 1.044e-04 -5.370e-03 2.302e-03 1.341e-03
317 1 -3.531e+00 -1.013e-02 3.520e+00 2.786e-04 -5.252e-03 -3.948e-03
318 1 -3.531e+00 -9.822e-03 -3.520e+00 -1.334e-03 -4.218e-03 4.403e-03
319 1 -5.601e-03 -3.537e+00 3.518e+00 -3.655e-03 -8.458e-04 -3.913e-03
320 1 -4.110e-03 -3.537e+00 -3.520e+00 -2.275e-03 1.606e-04 4.253e-03
321 1 -1.284e-02 3.505e+00 3.516e+00 -6.866e-03 -7.546e-03 -3.198e-03
322 1 -1.271e-02 3.503e+00 -3.517e+00 -5.919e-03 -4.955e-03 2.979e-03
323 1 3.511e+00 -1.800e-02 3.517e+00 -4.495e-03 -8.470e-03 -1.346e-03
324 1 3.509e+00 -1.802e-02 -3.517e+00 -4.826e-03 -6.033e-03 1.789e-03
325 1 1.750e+00 3.487e+00 -1.746e+00 -8.627e-03 6.740e-03 -1.425e-02
326 1 1.749e+00 3.487e+00 1.745e+00 -7.310e-03 7.165e-03 1.117e-02
327 1 3.504e+00 1.738e+00 1.749e+00 4.599e-03 -5.605e-03 8.873e-03
328 1 3.502e+00 1.737e+00 -1.748e+00 3.995e-03 -5.434e-03 -9.116e-03
329 1 -3.526e+00 -1.775e+00 1.759e+00 -1.213e-03 -1.724e-03 -1.525e-03
330 1 -3.525e+00 -1.774e+00 -1.760e+00 -1.615e-03 -3.103e-04 3.104e-03
331 1 -1.763e+00 -3.538e+00 -1.760e+00 -1.469e-04 -2.026e-03 2.647e-03
332 1 -1.762e+00 -3.538e+00 1.760e+00 -2.751e-03 -3.118e-03 -2.697e-03
333 1 -3.541e+00 1.755e+00 1.760e+00 4.422e-03 -4.129e-03 -4.908e-03
334 1 -3.542e+00 1.755e+00 -1.761e+00 1.938e-03 -5.060e-03 3.564e-03
335 1 1.753e+00 -3.542e+00 -1.760e+00 -4.516e-03 1.731e-04 2.872e-03
336 1 1.754e+00 -3.541e+00 1.760e+00 -5.033e-03 1.724e-03 -2.493e-03
337 1 -1.779e+00 3.511e+00 -1.758e+00 -2.138e-03 -2.990e-03 -7.371e-04
338 1 -1.780e+00 3.510e+00 1.758e+00 -1.250e-03 -4.197e-03 -1.850e-03
339 1 3.511e+00 -1.777e+00 1.759e+00 -1.189e-03 -4.350e-03 6.302e-04
340 1 3.511e+00 -1.778e+00 -1.756e+00 -3.279e-03 -2.673e-03 1.279e-03
341 1 -1.764e+00 -1.774e+00 -3.518e+00 -3.181e-03 -3.713e-03 2.457e-03
342 1 -1.765e+00 -1.773e+00 3.519e+00 -2.500e-03 -3.488e-03 -2.083e-03
343 1 -1.773e+00 1.753e+00 -3.516e+00 -2.929e-03 -5.326e-03 -5.591e-04
344 1 -1.774e+00 1.752e+00 3.516e+00 -5.270e-03 -6.389e-03 -1.273e-04
345 1 1.752e+00 -1.773e+00 3.515e+00 -4.158e-03 -4.479e-03 1.047e-03
346 1 1.753e+00 -1.773e+00 -3.515e+00 -5.432e-03 -4.665e-03 -1.047e-03
347 1 1.750e+00 1.743e+00 -3.530e+00 -6.340e-03 -6.279e-03 1.208e-02
348 1 1.749e+00 1.745e+00 3.528e+00 -5.330e-03 -6.641e-03 -1.237e-02
349 1 -1.579e-02 1.747e+00 5.281e+00 -1.607e-03 -2.396e-03 1.012e-03
350 1 1.749e+00 -1.939e-02 5.281e+00 -1.604e-03 -3.018e-03 -9.474e-04
351 1 -1.768e+00 -9.528e-03 5.282e+00 -7.399e-03 -4.124e-03 -8.463e-06
352 1 -7.207e-03 -1.772e+00 -5.279e+00 -6.303e-03 -9.316e-03 -3.525e-04
353 1 -1.225e-03 1.636e-04 -1.392e-03 1.734e+00 1.726e+00 -1.788e-04
354 1 -6.769e-03 3.493e+00 -6.372e-04 -1.353e-02 1.665e-02 1.054e-03
355 1 3.504e+00 -9.148e-03 7.412e-04 1.653e-02 -1.366e-02 -3.642e-04
356 1 -5.005e-03 1.748e+00 1.750e+00 -1.604e-02 -1.545e-02 -4.085e-03
357 1 -4.075e-03 1.748e+00 -1.747e+00 -1.206e-02 -1.558e-02 4.676e-04
358 1 1.751e+00 -3.981e-03 -1.747e+00 -1.567e-02 -1.783e-02 -9.783e-04
359 1 1.751e+00 -3.511e-03 1.746e+00 -1.819e-02 -1.842e-02 -1.222e-04
360 1 -1.141e-02 -1.106e-02 3.517e+00 -5.775e-03 -5.725e-03 1.115e-02
361 1 -9.720e-03 -9.855e-03 -3.519e+00 -5.760e-03 -5.125e-03 -1.138e-02
362 1 -3.533e+00 -1.096e-02 -3.127e-05 -1.060e-02 -1.718e-03 -5.960e-04
363 1 -8.172e-03 -3.541e+00 1.666e-03 -1.282e-03 -1.138e-02 -4.910e-04
364 1 -1.764e+00 -1.771e+00 6.788e-04 3.213e-03 3.830e-03 2.164e-04
365 1 -1.771e+00 -7.134e-03 -1.755e+00 7.094e-03 -4.887e-03 1.081e-02
366 1 -1.773e+00 -9.495e-03 1.755e+00 5.905e-03 -5.083e-03 -1.269e-02
367 1 -7.868e-03 -1.773e+00 1.757e+00 -7.590e-03 6.549e-03 -1.023e-02
368 1 -6.965e-03 -1.774e+00 -1.757e+00 -6.601e-03 3.452e-03 8.451e-03
369 1 -1.787e+00 1.753e+00 -7.607e-04 1.694e-02 -1.314e-02 -2.141e-05
370 1 1.753e+00 -1.789e+00 7.542e-05 -1.232e-02 1.419e-02 -3.544e-04
ITEM: TIMESTEP
0
ITEM: NUMBER OF ATOMS
74
ITEM: BOX BOUNDS xy xz yz pp pp pp
                     0.00000000000000e+00 1.06200000000000e+01 0.00000000000000e+00
0.00000000000000e+00	1.06200000000000e+01	0.00000000000000e+00
0.00000000000000e+00	1.06200000000000e+01	0.00000000000000e+00
ITEM: ATOMS id type x y z DisplacementX DisplacementY DisplacementZ
371 1 1.921e-03 5.269e+00 -1.747e+00 1.736e-03 -9.598e-03 4.400e-04
372 1 -8.084e-05 3.489e+00 -3.491e+00 2.627e-04 6.188e-03 -8.668e-03
373 1 -5.284e+00 -7.834e-03 -1.746e+00 -3.889e-04 -1.534e-03 1.047e-03
374 1 5.293e+00 -2.236e-02 -1.747e+00 -1.861e-03 -1.398e-03 2.789e-03
375 1 -5.291e+00 1.759e+00 1.370e-02 -5.503e-04 -2.382e-03 9.532e-04
376 1 5.293e+00 1.736e+00 1.575e-02 1.057e-03 -1.758e-03 1.333e-03
377 1 2.825e-03 5.254e+00 1.769e+00 -5.380e-04 5.404e-03 9.971e-03
378 1 6.874e-03 -5.301e+00 -1.746e+00 1.666e-03 -7.503e-04 -2.033e-04
379 1 8.111e-03 -5.299e+00 1.774e+00 2.308e-04 -2.584e-03 1.972e-03
380 1 -1.752e+00 -5.299e+00 1.513e-02 -2.284e-03 -2.373e-03 4.875e-04
381 1 1.768e+00 -5.300e+00 1.188e-02 8.316e-04 -1.496e-03 2.827e-03
382 1 5.288e+00 -2.055e-02 1.774e+00 5.785e-03 -3.264e-03 3.928e-03
383 1 -5.280e+00 -6.434e-03 1.773e+00 -6.851e-03 -2.713e-03 3.293e-03
384 1 -5.274e+00 -1.772e+00 1.406e-02 -6.202e-03 -1.130e-03 2.631e-03
385 1 5.290e+00 -1.779e+00 1.293e-02 3.435e-03 -2.474e-03 3.535e-03
386 1 -1.759e+00 5.263e+00 1.235e-02 -4.454e-03 1.416e-03 4.230e-03
387 1 1.763e+00 5.255e+00 1.073e-02 3.509e-03 1.786e-03 3.929e-03
388 1 -3.247e-04 3.506e+00 3.533e+00 9.575e-04 -7.825e-03 -4.061e-03
389 1 7.109e-03 -3.540e+00 -3.506e+00 1.382e-03 5.105e-03 7.888e-03
390 1 4.447e-03 -3.532e+00 3.533e+00 -1.365e-03 7.960e-04 -1.601e-03
391 1 3.528e+00 -3.538e+00 1.240e-02 -3.110e-03 1.480e-03 -2.574e-04
392 1 -3.513e+00 -3.534e+00 1.437e-02 1.383e-03 1.733e-03 1.689e-03
393 1 -3.521e+00 -6.678e-03 3.532e+00 1.084e-03 -3.862e-03 -3.067e-03
394 1 3.525e+00 -1.947e-02 3.534e+00 -9.353e-04 -2.093e-03 -3.624e-03
395 1 3.523e+00 3.494e+00 1.080e-02 -1.716e-03 -5.301e-03 5.435e-03
396 1 -3.529e+00 3.512e+00 1.030e-02 8.990e-06 -4.653e-03 5.127e-03
397 1 -3.520e+00 -6.291e-03 -3.504e+00 2.637e-03 -5.532e-03 4.056e-03
398 1 3.525e+00 -1.912e-02 -3.504e+00 -2.863e-04 -4.751e-03 3.015e-03
399 1 1.753e+00 1.742e+00 -3.494e+00 9.022e-03 -5.198e-03 -6.924e-03
400 1 -1.755e+00 1.749e+00 -3.493e+00 -9.121e-03 -5.653e-03 -6.053e-03
401 1 -1.757e+00 3.499e+00 -1.746e+00 -6.117e-03 5.147e-03 3.212e-03
402 1 1.755e+00 3.487e+00 -1.746e+00 9.129e-03 5.561e-03 6.464e-03
403 1 1.765e+00 1.741e+00 3.533e+00 -4.348e-03 -5.994e-03 -2.907e-03