ITEM: TIMESTEP
0
ITEM: NUMBER OF ATOMS
61
ITEM: BOX BOUNDS xy xz yz pp pp pp
                     0.00000000000000e+00 1.06200000000000e+01 0.00000000000000e+00
0.00000000000000e+00	1.06200000000000e+01	0.00000000000000e+00
0.00000000000000e+00	1.06200000000000e+01	0.00000000000000e+00
ITEM: ATOMS id type x y z DisplacementX DisplacementY DisplacementZ
1 1 1.919e-02 5.263e+00 -1.761e+00 -1.895e-02 -1.529e-02 -1.286e-02
2 1 -5.285e+00 -2.236e-02 1.741e+00 -1.909e-03 2.107e-03 6.403e-03
3 1 5.280e+00 -1.177e-02 1.766e+00 2.134e-02 5.691e-03 2.463e-03
4 1 5.251e+00 -1.954e-02 -1.766e+00 7.491e-03 8.329e-03 -4.067e-03
5 1 -5.277e+00 -3.751e-02 -1.771e+00 -1.308e-02 3.261e-03 -1.173e-03
6 1 -1.604e-03 -5.294e+00 -1.750e+00 -6.781e-03 -1.230e-02 3.877e-03
7 1 -2.908e-03 -5.301e+00 1.751e+00 -1.249e-02 1.124e-02 3.597e-04
8 1 1.279e-02 5.274e+00 1.749e+00 3.289e-03 -8.657e-03 2.906e-04
9 1 -5.272e+00 1.746e+00 -1.280e-02 1.136e-02 -1.257e-02 -8.016e-04
10 1 5.292e+00 1.760e+00 -3.236e-03 -1.424e-03 7.836e-04 6.064e-03
11 1 -1.773e+00 -5.301e+00 -6.457e-03 -7.771e-03 -3.061e-03 -1.285e-02
12 1 1.742e+00 -5.299e+00 -2.216e-02 3.143e-02 2.799e-03 3.865e-03
13 1 -5.273e+00 -1.773e+00 -1.465e-03 -1.125e-02 -1.664e-02 6.222e-03
14 1 5.271e+00 -1.772e+00 -4.024e-02 1.041e-02 -1.485e-02 -1.456e-04
15 1 -1.723e+00 5.262e+00 -1.294e-02 -1.103e-02 1.503e-02 3.520e-03
16 1 1.774e+00 5.283e+00 -2.379e-02 1.690e-02 -1.513e-02 -8.652e-03
17 1 3.512e+00 -3.530e+00 -2.825e-02 2.051e-03 -1.120e-02 7.244e-03
18 1 -3.515e+00 -3.532e+00 -2.184e-02 -6.349e-03 -2.166e-03 -9.640e-03
19 1 3.526e+00 3.513e+00 -2.056e-02 -3.272e-03 -1.361e-02 -1.470e-02
20 1 -3.522e+00 3.491e+00 -3.881e-03 -1.382e-02 1.093e-02 -2.594e-02
21 1 -1.737e+00 3.505e+00 1.752e+00 -1.397e-02 -6.218e-03 1.513e-02
22 1 1.743e+00 3.512e+00 1.743e+00 -7.577e-03 1.453e-02 -3.980e-04
23 1 -3.356e-03 3.520e+00 3.484e+00 5.192e-03 -2.442e-03 5.816e-03
24 1 -1.747e+00 3.495e+00 -1.772e+00 2.265e-03 -1.287e-03 -1.223e-02
25 1 1.770e+00 3.490e+00 -1.775e+00 -5.468e-03 1.658e-02 -1.704e-02
26 1 -1.777e+00 -3.525e+00 -1.766e+00 4.525e-03 -5.650e-03 1.099e-02
27 1 1.757e+00 -3.538e+00 -1.756e+00 -7.709e-03 -1.179e-02 3.659e-03
28 1 -1.760e+00 -3.534e+00 1.740e+00 -8.646e-03 -5.781e-03 -4.218e-03
29 1 1.754e+00 -3.534e+00 1.739e+00 -2.374e-03 -5.888e-03 -4.818e-03
30 1 3.511e+00 -1.764e+00 -1.765e+00 3.678e-03 1.036e-02 8.049e-03
31 1 -3.538e+00 -1.768e+00 -1.789e+00 -4.358e-03 -1.937e-02 -5.327e-04
32 1 -3.516e+00 -1.793e+00 1.737e+00 6.139e-03 9.983e-03 -1.351e-02
33 1 3.487e+00 -1.770e+00 1.721e+00 -3.058e-03 -9.358e-03 -1.440e-02
34 1 3.511e+00 1.759e+00 -1.777e+00 1.836e-02 -5.227e-04 -1.292e-03
35 1 -3.526e+00 1.753e+00 -1.770e+00 -5.288e-03 -8.499e-03 -6.634e-03
36 1 -3.529e+00 1.750e+00 1.748e+00 -1.050e-02 -1.079e-02 -5.910e-03
37 1 3.535e+00 1.760e+00 1.762e+00 -6.049e-03 -1.196e-02 -6.024e-03
38 1 -3.513e+00 -4.497e-03 3.512e+00 3.370e-03 -4.118e-03 -2.001e-02
39 1 3.510e+00 -1.773e-02 3.503e+00 2.599e-03 -1.695e-03 -8.717e-03
40 1 -1.120e-02 -3.530e+00 3.510e+00 -3.024e-03 3.423e-03 -1.409e-02
41 1 1.744e+00 1.759e+00 3.484e+00 1.974e-03 -5.758e-03 1.055e-02
42 1 -1.743e+00 1.753e+00 3.493e+00 -6.893e-03 -2.089e-02 3.064e-02
43 1 4.417e-03 6.390e-03 7.402e-03 -8.565e-03 1.737e+00 1.727e+00
44 1 4.432e-03 -2.246e-02 3.490e+00 2.660e-03 -1.533e-02 1.449e-02
45 1 1.740e+00 -2.387e-03 1.751e+00 -2.614e-02 -1.445e-02 -2.377e-02
46 1 -1.742e+00 1.330e-02 1.747e+00 1.883e-03 -2.159e-02 -2.879e-02
47 1 1.765e+00 -1.751e+00 3.519e+00 -1.355e-03 4.720e-03 9.075e-03
48 1 -1.762e+00 -1.769e+00 3.512e+00 -1.086e-02 -6.535e-03 3.268e-03
49 1 1.210e-02 3.513e+00 -7.876e-03 -9.451e-03 1.574e-02 -1.048e-02
50 1 -1.738e+00 1.740e+00 -1.953e-03 -6.583e-03 -9.901e-03 -1.311e-02
51 1 1.759e+00 1.773e+00 1.695e-03 3.904e-03 -5.424e-03 -1.854e-02
52 1 1.728e-02 1.754e+00 -1.775e+00 1.249e-02 -1.544e-02 -1.454e-02
53 1 -1.760e+00 -9.477e-03 -1.768e+00 1.752e-02 -2.431e-02 2.236e-02
54 1 1.753e+00 -1.610e-03 -1.771e+00 8.397e-04 -1.404e-02 1.343e-02
55 1 -4.229e-03 -1.757e+00 -1.775e+00 -1.009e-02 -5.944e-03 2.608e-02
56 1 2.465e-03 -1.809e+00 1.749e+00 4.592e-03 2.900e-02 -2.399e-02
57 1 -3.510e+00 -1.218e-02 5.636e-03 -2.549e-02 -3.500e-02 -1.036e-02
58 1 3.498e+00 -1.630e-02 -2.815e-02 9.708e-03 -6.715e-03 -3.421e-03
59 1 -6.580e-03 -3.543e+00 -3.954e-04 1.632e-02 -1.375e-02 -5.964e-04
60 1 -1.754e+00 -1.777e+00 1.751e-03 -1.158e-03 2.040e-02 -5.785e-03
61 1 1.748e+00 -1.765e+00 -5.310e-03 -1.855e-02 3.044e-03 3.012e-03
ITEM: TIMESTEP
0
ITEM: NUMBER OF ATOMS
61
ITEM: BOX BOUNDS xy xz yz pp pp pp
                     0.00000000000000e+00 1.06200000000000e+01 0.00000000000000e+00
0.00000000000000e+00	1.06200000000000e+01	0.00000000000000e+00
0.00000000000000e+00	1.06200000000000e+01	0.00000000000000e+00
ITEM: ATOMS id type x y z DisplacementX DisplacementY DisplacementZ
62 1 4.401e-03 -5.282e+00 1.754e+00 -7.096e-03 2.999e-03 9.284e-03
63 1 5.285e+00 -5.415e-04 1.755e+00 -7.913e-03 1.033e-02 1.372e-02
64 1 5.270e+00 -9.832e-03 -1.766e+00 2.394e-03 -7.558e-03 -6.166e-03
65 1 1.880e-02 -5.300e+00 -1.768e+00 7.559e-03 4.645e-04 -3.379e-03
66 1 -5.264e+00 -8.044e-03 1.746e+00 1.406e-02 -6.909e-03 1.165e-03
67 1 -5.269e+00 -1.987e-02 -1.767e+00 -6.847e-03 4.056e-03 -6.341e-03
68 1 2.744e-02 5.296e+00 1.758e+00 8.579e-04 -9.091e-05 4.989e-03
69 1 2.742e-02 5.277e+00 -1.773e+00 1.742e-02 -1.499e-02 1.053e-02
70 1 -1.734e+00 5.292e+00 -3.002e-02 7.680e-03 -1.344e-02 1.091e-02
71 1 -5.277e+00 1.758e+00 -5.410e-03 1.127e-02 -5.626e-04 8.793e-03
72 1 -3.478e+00 3.500e+00 3.002e-03 2.954e-03 5.924e-03 1.081e-02
73 1 1.752e+00 -5.280e+00 7.168e-03 2.399e-03 -1.090e-02 1.604e-02
74 1 5.293e+00 -1.773e+00 -1.576e-02 -7.824e-03 -9.226e-03 -1.998e-03
75 1 -1.755e+00 -5.303e+00 5.513e-03 1.674e-03 -2.541e-02 -1.564e-02
76 1 5.290e+00 1.733e+00 2.760e-03 1.385e-02 7.402e-04 1.714e-03
77 1 -5.270e+00 -1.767e+00 1.124e-02 -1.861e-02 -1.777e-02 6.484e-03
78 1 1.805e+00 5.263e+00 -4.889e-03 1.608e-03 6.171e-03 -3.846e-03
79 1 3.511e+00 -3.530e+00 -6.968e-04 8.357e-03 4.949e-03 -1.085e-02
80 1 3.538e+00 3.529e+00 -2.963e-03 9.305e-04 -1.140e-02 -1.332e-02
81 1 -3.525e+00 -3.529e+00 -1.340e-02 1.288e-02 -5.229e-03 -1.363e-02
82 1 -1.748e+00 3.497e+00 -1.729e+00 1.579e-02 -2.913e-03 1.863e-04
83 1 -1.730e+00 3.512e+00 1.756e+00 1.442e-02 -2.344e-02 6.171e-03
84 1 -3.481e+00 1.762e+00 -1.744e+00 1.737e-02 -2.173e-02 -9.000e-03
85 1 -3.485e+00 1.751e+00 1.742e+00 -1.595e-02 8.083e-03 2.454e-02
86 1 -3.511e+00 -1.789e+00 -1.755e+00 -6.997e-03 -9.128e-03 9.860e-03
87 1 -3.513e+00 -1.772e+00 1.756e+00 1.625e-02 -3.055e-03 -8.970e-03
88 1 1.795e+00 3.518e+00 -1.765e+00 5.804e-03 -6.753e-03 -5.068e-03
89 1 1.763e+00 3.503e+00 1.774e+00 -3.058e-03 4.109e-03 -5.495e-03
90 1 1.763e+00 -3.530e+00 1.764e+00 1.105e-02 -3.092e-03 -3.571e-03
91 1 3.524e+00 -1.772e+00 -1.764e+00 4.217e-03 -1.061e-02 1.205e-03
92 1 3.533e+00 -1.775e+00 1.776e+00 -5.712e-03 -6.696e-03 5.393e-03
93 1 1.750e+00 -3.537e+00 -1.745e+00 4.213e-03 1.187e-03 -2.078e-03
94 1 -1.728e+00 -3.545e+00 1.763e+00 1.022e-02 4.734e-03 -7.024e-03
95 1 3.530e+00 1.748e+00 1.747e+00 1.053e-02 -5.118e-03 1.101e-02
96 1 3.525e+00 1.752e+00 -1.750e+00 4.168e-04 7.249e-03 -1.247e-03
97 1 -1.739e+00 -3.546e+00 -1.781e+00 5.294e-04 -3.363e-03 8.397e-03
98 1 -3.800e-03 -3.528e+00 3.508e+00 -9.155e-03 -2.216e-03 1.414e-03
99 1 3.529e+00 -2.403e-02 3.510e+00 -5.796e-03 1.470e-03 1.725e-02
100 1 -3.501e+00 1.645e-02 -3.512e+00 1.393e-02 -9.662e-03 -4.711e-03
101 1 3.117e-02 3.521e+00 -3.516e+00 4.695e-03 5.938e-03 3.616e-03
102 1 1.055e-02 3.735e-03 3.853e-03 -1.728e+00 1.748e+00 -1.990e-02
103 1 -1.731e+00 -1.756e+00 3.520e+00 8.989e-03 -5.161e-05 -1.394e-02
104 1 1.763e+00 1.763e+00 3.529e+00 1.920e-02 5.742e-03 9.288e-03
105 1 1.754e+00 -1.769e+00 -3.525e+00 -1.643e-02 -5.832e-03 1.807e-03
106 1 -1.748e+00 -6.214e-04 1.754e+00 2.340e-02 -3.701e-02 -1.606e-02
107 1 -1.733e+00 7.398e-04 -1.753e+00 1.387e-02 -6.232e-03 3.869e-03
108 1 1.120e-02 1.761e+00 1.748e+00 1.878e-02 -2.926e-02 6.015e-03
109 1 1.853e-02 1.748e+00 -1.744e+00 9.990e-03 -5.143e-03 -1.077e-02
110 1 -3.500e+00 8.915e-03 -8.149e-03 -2.036e-02 -1.173e-02 1.364e-02
111 1 2.093e-02 3.512e+00 1.846e-03 1.943e-02 8.041e-03 1.951e-02
112 1 -1.728e+00 1.740e+00 3.513e+00 4.550e-03 -1.307e-02 -2.353e-03
113 1 8.888e-03 -9.109e-03 3.516e+00 4.437e-03 -1.398e-02 -3.536e-03
114 1 1.955e-03 -1.788e+00 -1.771e+00 -1.708e-03 7.390e-03 1.987e-02
115 1 1.514e-03 -1.772e+00 1.767e+00 9.265e-03 4.597e-03 3.092e-03
116 1 1.763e+00 -1.002e-02 1.762e+00 3.095e-03 -1.867e-02 4.322e-03
117 1 1.767e+00 -1.083e-02 -1.759e+00 3.202e-02 -6.021e-03 2.881e-02
118 1 1.065e-02 -3.549e+00 -2.214e-02 -3.525e-03 -2.235e-02 1.298e-02
119 1 3.529e+00 -6.429e-03 1.571e-03 1.857e-02 8.809e-03 8.512e-03
120 1 1.755e+00 -1.774e+00 -3.980e-03 -4.081e-03 -2.613e-02 1.553e-02
121 1 -1.764e+00 -1.782e+00 -6.443e-03 7.887e-03 2.226e-02 -1.441e-02
122 1 1.787e+00 1.747e+00 2.616e-03 -6.112e-03 -2.069e-02 6.880e-03
ITEM: TIMESTEP
0
ITEM: NUMBER OF ATOMS
61
ITEM: BOX BOUNDS xy xz yz pp pp pp
                     0.00000000000000e+00 1.06200000000000e+01 0.00000000000000e+00
0.00000000000000e+00	1.06200000000000e+01	0.00000000000000e+00
0.00000000000000e+00	1.06200000000000e+01	0.00000000000000e+00
ITEM: ATOMS id type x y z DisplacementX DisplacementY DisplacementZ
123 1 5.251e+00 -7.142e-03 -1.773e+00 1.542e-02 -6.345e-03 -7.712e-03
124 1 -3.320e-02 -5.286e+00 1.754e+00 -9.877e-03 1.566e-02 -1.041e-02
125 1 3.179e-03 5.289e+00 1.742e+00 -5.605e-03 4.852e-03 -3.615e-03
126 1 1.851e-02 5.287e+00 -1.760e+00 -1.335e-02 -4.737e-03 -1.861e-02
127 1 -1.836e-02 -5.292e+00 -1.754e+00 -1.939e-02 -5.456e-03 -1.982e-02
128 1 -5.289e+00 -2.210e-03 -1.782e+00 2.195e-02 5.235e-03 -1.836e-02
129 1 -5.292e+00 2.451e-03 1.744e+00 2.887e-03 -5.498e-03 1.152e-02
130 1 5.292e+00 -1.311e-02 1.752e+00 -2.819e-02 1.457e-03 3.926e-04
131 1 1.745e+00 -5.297e+00 -9.061e-03 -2.630e-03 -3.803e-03 -1.845e-02
132 1 1.745e+00 5.288e+00 -8.116e-03 -1.654e-04 -2.688e-03 2.243e-04
133 1 -5.307e+00 -1.761e+00 -1.987e-02 -5.391e-03 7.552e-03 1.112e-03
134 1 -5.288e+00 1.761e+00 -2.090e-02 -2.029e-03 3.914e-03 2.897e-03
135 1 -1.792e+00 -5.294e+00 -2.412e-02 1.776e-02 -1.121e-02 7.208e-04
136 1 -1.759e+00 5.288e+00 -9.539e-03 -7.583e-03 1.759e-04 1.709e-02
137 1 5.233e+00 -1.759e+00 -6.123e-03 3.781e-03 -1.507e-04 1.084e-03
138 1 5.261e+00 1.764e+00 -2.036e-02 -1.342e-02 2.194e-03 -2.941e-03
139 1 -3.539e+00 3.507e+00 -1.938e-02 -2.489e-04 -1.175e-02 5.027e-03
140 1 -3.551e+00 -3.529e+00 -1.199e-02 -1.805e-02 3.435e-03 -1.178e-03
141 1 3.512e+00 3.523e+00 -1.138e-02 -2.014e-02 6.804e-04 9.594e-04
142 1 3.509e+00 -3.517e+00 -2.336e-02 -1.689e-02 9.016e-03 -1.666e-02
143 1 3.474e+00 -1.739e+00 1.751e+00 1.161e-02 -1.378e-02 1.304e-02
144 1 3.498e+00 1.760e+00 1.754e+00 9.182e-03 1.594e-02 7.602e-03
145 1 3.465e+00 -1.748e-02 3.498e+00 -1.095e-02 1.486e-02 2.862e-03
146 1 3.503e+00 -1.751e+00 -1.780e+00 -1.402e-02 2.848e-03 6.227e-03
147 1 3.507e+00 1.737e+00 -1.776e+00 -3.534e-03 1.170e-05 4.986e-03
148 1 -3.536e+00 -1.746e+00 -1.781e+00 4.385e-03 -6.964e-03 6.873e-03
149 1 -3.535e+00 1.761e+00 -1.783e+00 2.507e-03 2.494e-03 -6.867e-03
150 1 -3.533e+00 -1.760e+00 1.742e+00 -2.078e-03 4.173e-03 6.405e-03
151 1 -3.540e+00 1.759e+00 1.750e+00 -1.070e-02 6.533e-03 -6.904e-03
152 1 -1.771e+00 3.528e+00 -1.782e+00 -2.397e-02 2.615e-03 9.576e-03
153 1 -1.776e+00 -3.542e+00 -1.770e+00 1.929e-02 -2.591e-03 -1.990e-02
154 1 -1.774e+00 -3.538e+00 1.756e+00 3.696e-03 1.049e-02 -5.219e-03
155 1 -1.788e+00 3.501e+00 1.747e+00 -1.266e-02 9.897e-03 -8.589e-03
156 1 1.755e+00 3.539e+00 -1.785e+00 -1.733e-02 6.298e-03 -3.425e-03
157 1 1.755e+00 -3.515e+00 -1.770e+00 -5.951e-04 8.858e-03 1.547e-04
158 1 1.743e+00 -3.549e+00 1.764e+00 -1.773e-02 1.594e-02 1.051e-02
159 1 1.755e+00 3.541e+00 1.734e+00 -2.384e-02 -1.938e-02 -7.666e-03
160 1 -3.461e-02 -3.524e+00 3.510e+00 -1.232e-02 -8.840e-04 1.869e-02
161 1 -7.789e-03 3.524e+00 3.501e+00 3.948e-04 -7.858e-03 -9.370e-03
162 1 -3.535e+00 -8.494e-03 3.494e+00 1.683e-02 1.276e-03 -3.335e-02
163 1 1.748e+00 1.766e+00 3.507e+00 -7.431e-03 2.107e-02 -2.674e-03
164 1 1.758e+00 -1.748e+00 3.493e+00 -1.409e-02 1.405e-03 4.356e-03
165 1 -3.245e-04 -1.212e-02 6.724e-03 1.722e+00 -4.730e-03 1.720e+00
166 1 8.734e-03 5.045e-03 3.479e+00 -1.800e-02 1.978e-03 1.267e-02
167 1 8.265e-03 1.749e+00 1.745e+00 -1.242e-02 -1.611e-02 -2.221e-02
168 1 -1.615e-03 -1.760e+00 1.746e+00 -1.376e-02 1.396e-02 -4.054e-02
169 1 -1.765e+00 1.733e+00 3.511e+00 1.047e-02 6.183e-03 -1.216e-02
170 1 -1.784e+00 -1.770e+00 3.499e+00 -8.342e-03 1.503e-03 -4.325e-03
171 1 3.491e+00 1.307e-02 3.260e-03 2.863e-02 9.525e-03 -2.540e-02
172 1 1.738e+00 -1.750e+00 -7.042e-03 6.105e-03 -5.151e-03 -2.136e-02
173 1 1.765e+00 1.772e+00 1.429e-02 -3.041e-02 4.829e-04 -3.709e-02
174 1 1.735e+00 -7.859e-03 -1.775e+00 -1.672e-02 -2.149e-02 1.514e-02
175 1 -1.140e-02 -1.777e+00 -1.778e+00 -1.413e-03 2.017e-02 2.754e-02
176 1 -1.808e-02 1.753e+00 -1.782e+00 -1.179e-02 -3.807e-03 1.438e-02
177 1 -1.756e+00 1.552e-03 -1.758e+00 -1.122e-02 3.035e-02 1.929e-02
178 1 -1.803e+00 -5.661e-03 1.758e+00 2.741e-02 -1.489e-02 -1.821e-02
179 1 -1.077e-02 -3.521e+00 -2.859e-02 4.393e-04 -1.653e-02 2.644e-03
180 1 -1.417e-02 3.513e+00 -2.548e-02 9.341e-05 2.777e-03 -7.219e-03
181 1 -3.531e+00 1.784e-03 -1.442e-02 -1.974e-02 -4.998e-03 -1.704e-02
182 1 -1.771e+00 -1.777e+00 -1.222e-02 -7.310e-03 -4.139e-03 8.620e-04
183 1 -1.761e+00 1.750e+00 -1.462e-02 6.963e-03 1.364e-02 -1.227e-02
ITEM: TIMESTEP
0
ITEM: NUMBER OF ATOMS
61
ITEM: BOX BOUNDS xy xz yz pp pp pp
                     0.00000000000000e+00 1.06200000000000e+01 0.00000000000000e+00
0.00000000000000e+00	1.06200000000000e+01	0.00000000000000e+00
0.00000000000000e+00	1.06200000000000e+01	0.00000000000000e+00
ITEM: ATOMS id type x y z DisplacementX DisplacementY DisplacementZ
184 1 -5.252e+00 -1.186e-03 -1.766e+00 -1.337e-02 1.041e-02 -7.840e-03
185 1 7.697e-03 -5.294e+00 1.760e+00 1.715e-02 1.299e-02 -9.355e-03
186 1 3.256e-02 5.307e+00 1.744e+00 -3.932e-03 1.558e-02 9.076e-03
187 1 4.519e-02 5.290e+00 -1.781e+00 -1.036e-02 5.084e-03 9.962e-03
188 1 1.164e-02 -5.275e+00 -1.775e+00 -3.042e-03 -4.038e-03 1.676e-03
189 1 5.293e+00 -9.211e-03 -1.777e+00 -1.698e-02 -2.602e-03 7.477e-03
190 1 5.291e+00 -1.132e-02 1.751e+00 -4.754e-03 -1.120e-02 8.083e-03
191 1 -5.284e+00 1.799e-03 1.749e+00 -1.420e-03 1.959e-02 -1.103e-02
192 1 -1.755e+00 -5.269e+00 -2.136e-02 1.316e-03 -7.998e-03 7.396e-03
193 1 -1.731e+00 5.269e+00 -2.849e-02 1.387e-02 9.808e-03 1.594e-02
194 1 5.254e+00 -1.784e+00 -2.993e-02 3.060e-03 -1.485e-02 -1.950e-02
195 1 5.281e+00 1.756e+00 -1.886e-02 -1.187e-02 -6.423e-03 1.259e-02
196 1 1.775e+00 -5.273e+00 -1.524e-02 -2.272e-03 -7.671e-03 -1.642e-02
197 1 1.793e+00 5.275e+00 -1.295e-02 4.628e-03 8.806e-03 -7.105e-03
198 1 -5.259e+00 -1.776e+00 -2.419e-02 -1.688e-02 8.950e-03 1.298e-02
199 1 -5.236e+00 1.753e+00 -2.176e-02 9.183e-04 -7.009e-04 5.393e-03
200 1 3.512e+00 3.504e+00 -3.645e-02 8.602e-03 -3.651e-03 -1.006e-02
201 1 3.502e+00 -3.530e+00 -1.130e-02 1.006e-02 -2.756e-02 4.206e-03
202 1 -3.494e+00 3.508e+00 4.800e-03 2.614e-02 -6.874e-03 -1.943e-02
203 1 -3.511e+00 -3.521e+00 -1.826e-02 -3.495e-04 -1.569e-02 2.575e-03
204 1 -3.512e+00 -1.772e+00 1.739e+00 2.257e-03 -1.311e-02 -5.703e-03
205 1 -3.486e+00 1.738e+00 1.745e+00 -3.440e-03 1.370e-02 -4.319e-03
206 1 -3.477e+00 -1.124e-02 3.488e+00 3.002e-03 -5.658e-04 7.605e-03
207 1 -3.494e+00 -1.757e+00 -1.781e+00 -8.569e-03 5.655e-03 1.289e-02
208 1 -3.485e+00 1.777e+00 -1.785e+00 -4.714e-03 -5.121e-03 4.357e-03
209 1 3.516e+00 -1.801e+00 -1.769e+00 1.769e-02 -7.869e-03 -3.329e-03
210 1 3.513e+00 1.747e+00 -1.795e+00 1.061e-02 -1.444e-03 -1.134e-02
211 1 3.518e+00 -1.759e+00 1.756e+00 -3.066e-02 -1.160e-02 -1.988e-03
212 1 3.517e+00 1.742e+00 1.747e+00 -3.385e-03 -9.933e-03 2.192e-03
213 1 1.781e+00 3.509e+00 -1.783e+00 1.728e-02 -2.542e-03 -8.384e-03
214 1 1.753e+00 -3.535e+00 -1.781e+00 4.699e-03 -4.109e-03 -8.606e-03
215 1 1.743e+00 -3.522e+00 1.750e+00 1.202e-03 2.492e-03 -1.581e-02
216 1 1.771e+00 3.531e+00 1.727e+00 1.070e-03 6.910e-03 -1.198e-02
217 1 -1.727e+00 3.528e+00 -1.763e+00 2.157e-02 -5.729e-03 1.977e-03
218 1 -1.749e+00 -3.506e+00 -1.766e+00 1.921e-02 -2.254e-02 -4.795e-03
219 1 -1.748e+00 -3.546e+00 1.761e+00 5.112e-03 2.360e-02 -1.274e-02
220 1 -1.716e+00 3.526e+00 1.755e+00 5.806e-03 -4.752e-03 6.746e-03
221 1 -2.000e-02 -3.541e+00 3.513e+00 4.120e-03 -4.832e-03 1.188e-02
222 1 3.870e-02 3.503e+00 3.503e+00 2.343e-03 -1.288e-02 5.333e-03
223 1 3.524e+00 -1.333e-02 3.511e+00 -6.054e-03 4.741e-03 -1.455e-02
224 1 -1.745e+00 1.769e+00 3.495e+00 3.251e-03 -3.164e-03 1.126e-02
225 1 -1.751e+00 -1.746e+00 3.479e+00 -3.897e-04 6.890e-03 9.795e-04
226 1 3.472e-04 8.366e-03 1.010e-02 -1.727e+00 -8.624e-03 1.722e+00
227 1 4.674e-03 1.548e-02 3.501e+00 3.188e-02 -1.023e-02 -9.120e-04
228 1 1.712e-02 1.745e+00 1.743e+00 2.437e-02 -1.395e-02 -3.098e-02
229 1 4.859e-03 -1.743e+00 1.753e+00 1.462e-02 3.036e-03 -2.049e-02
230 1 1.766e+00 1.761e+00 3.492e+00 4.501e-03 9.457e-03 4.363e-03
231 1 1.757e+00 -1.762e+00 3.511e+00 3.731e-03 -6.330e-03 -5.568e-03
232 1 -3.489e+00 6.693e-03 -7.646e-03 -2.248e-02 9.048e-03 -1.347e-02
233 1 -1.741e+00 -1.756e+00 -1.616e-02 1.296e-02 9.337e-03 9.176e-04
234 1 -1.747e+00 1.754e+00 6.406e-03 2.554e-03 -1.395e-02 -1.748e-02
235 1 -1.733e+00 6.285e-03 -1.781e+00 1.820e-02 -8.194e-03 4.685e-03
236 1 8.138e-03 -1.766e+00 -1.779e+00 1.887e-02 2.164e-02 2.837e-03
237 1 9.947e-03 1.757e+00 -1.768e+00 -1.034e-02 6.832e-03 5.127e-04
238 1 1.761e+00 -2.318e-03 -1.771e+00 -6.737e-03 -4.512e-03 2.401e-02
239 1 1.775e+00 1.706e-03 1.737e+00 -1.795e-02 -1.445e-02 -2.077e-02
240 1 -1.978e-02 -3.520e+00 -1.016e-02 -5.654e-03 -2.276e-02 -1.564e-02
241 1 3.163e-02 3.521e+00 -7.725e-03 2.200e-02 3.249e-02 1.068e-02
242 1 3.528e+00 -8.154e-03 -7.682e-03 1.729e-02 -6.792e-03 -1.548e-03
243 1 1.761e+00 -1.768e+00 -8.200e-03 -8.196e-03 5.882e-03 -6.361e-03
244 1 1.765e+00 1.758e+00 -2.106e-02 4.142e-03 7.236e-03 -1.802e-03
ITEM: TIMESTEP
0
ITEM: NUMBER OF ATOMS
61
ITEM: BOX BOUNDS xy xz yz pp pp pp
                     0.00000000000000e+00 1.06200000000000e+01 0.00000000000000e+00
0.00000000000000e+00	1.06200000000000e+01	0.00000000000000e+00
0.00000000000000e+00	1.06200000000000e+01	0.00000000000000e+00
ITEM: ATOMS id type x y z DisplacementX DisplacementY DisplacementZ
245 1 -5.321e+00 4.833e-04 1.767e+00 9.307e-03 1.103e-02 1.464e-03
246 1 -2.196e-03 5.291e+00 1.760e+00 3.309e-03 8.591e-03 -5.072e-03
247 1 -2.823e-02 5.289e+00 -1.759e+00 -1.399e-03 3.648e-03 -1.150e-02
248 1 -5.319e+00 -4.445e-03 -1.763e+00 2.882e-03 8.608e-03 1.030e-02
249 1 -1.567e-02 -5.283e+00 1.765e+00 2.927e-03 3.803e-03 2.617e-03
250 1 -2.647e-02 -5.278e+00 -1.757e+00 -6.881e-03 6.025e-03 2.659e-03
251 1 5.260e+00 7.072e-03 1.749e+00 5.688e-03 8.395e-04 1.171e-02
252 1 5.272e+00 9.784e-03 -1.747e+00 -1.480e-02 1.461e-02 1.561e-02
253 1 5.290e+00 -1.751e+00 5.581e-03 -1.870e-02 -1.407e-02 2.012e-02
254 1 1.721e+00 -5.301e+00 -1.306e-03 -2.007e-02 1.699e-02 4.646e-04
255 1 3.484e+00 -3.494e+00 -2.303e-03 -9.294e-03 -8.334e-03 1.262e-02
256 1 -5.292e+00 1.764e+00 5.139e-04 -9.415e-04 7.557e-03 8.014e-03
257 1 -1.788e+00 5.278e+00 6.809e-03 1.327e-03 3.330e-03 -2.172e-02
258 1 -5.284e+00 -1.758e+00 -3.114e-03 -1.531e-02 9.834e-05 -8.705e-04
259 1 1.766e+00 5.288e+00 -8.466e-03 -1.365e-02 1.359e-02 1.775e-02
260 1 -1.784e+00 -5.274e+00 -1.811e-02 -4.986e-03 -3.414e-03 -9.399e-03
261 1 5.259e+00 1.785e+00 -1.836e-02 6.948e-03 -9.427e-03 -1.948e-02
262 1 -3.539e+00 3.525e+00 -1.243e-02 -3.646e-03 -6.037e-04 -1.465e-02
263 1 3.515e+00 3.542e+00 -6.522e-03 -8.271e-03 5.356e-03 2.253e-02
264 1 -3.547e+00 -3.516e+00 -1.847e-03 4.571e-03 4.290e-03 -8.445e-03
265 1 3.483e+00 -1.763e+00 -1.759e+00 4.845e-03 -6.337e-03 -2.331e-02
266 1 3.489e+00 -1.744e+00 1.740e+00 2.800e-03 1.692e-02 1.445e-02
267 1 1.724e+00 -3.492e+00 -1.738e+00 -9.065e-04 -1.207e-02 -3.602e-02
268 1 1.744e+00 -3.507e+00 1.740e+00 -4.072e-03 -5.065e-03 1.396e-02
269 1 -1.785e+00 -3.501e+00 -1.754e+00 -1.753e-02 8.405e-03 3.415e-03
270 1 -1.774e+00 -3.519e+00 1.759e+00 -1.238e-02 2.786e-04 5.916e-03
271 1 3.514e+00 1.786e+00 -1.758e+00 -3.227e-02 -4.209e-03 -2.843e-03
272 1 3.517e+00 1.766e+00 1.740e+00 -8.349e-03 -1.414e-03 -1.563e-02
273 1 -3.558e+00 1.757e+00 1.755e+00 2.314e-03 -1.604e-02 7.453e-03
274 1 -1.790e+00 3.536e+00 -1.748e+00 2.507e-03 -2.120e-04 -2.334e-03
275 1 -1.768e+00 3.534e+00 1.757e+00 5.056e-03 3.104e-02 6.830e-03
276 1 -3.524e+00 1.753e+00 -1.770e+00 -1.026e-03 -3.674e-03 1.435e-02
277 1 -3.529e+00 -1.758e+00 1.750e+00 -9.346e-04 1.619e-02 -9.036e-03
278 1 1.743e+00 3.542e+00 1.764e+00 -1.394e-02 -3.777e-03 -4.973e-03
279 1 1.762e+00 3.528e+00 -1.763e+00 -1.314e-02 -1.934e-02 1.568e-02
280 1 -3.536e+00 -1.762e+00 -1.762e+00 7.203e-03 3.392e-03 3.303e-03
281 1 -3.544e+00 1.620e-02 3.523e+00 7.916e-03 1.831e-02 9.706e-03
282 1 -1.247e-02 3.524e+00 -3.524e+00 -8.338e-03 4.510e-03 -8.024e-03
283 1 -1.263e-02 -3.520e+00 -3.526e+00 -3.625e-03 1.908e-02 -9.700e-04
284 1 3.493e+00 -9.419e-03 -3.524e+00 -3.440e-03 1.691e-02 6.879e-03
285 1 -6.639e-03 4.376e-03 -2.009e-03 1.710e+00 -1.748e+00 9.797e-03
286 1 -1.768e+00 -1.753e+00 3.509e+00 -2.669e-02 1.136e-02 -3.136e-03
287 1 1.743e+00 1.765e+00 -3.521e+00 -1.622e-02 1.534e-02 -9.025e-03
288 1 -1.774e+00 1.787e+00 3.516e+00 3.336e-03 2.472e-02 -1.049e-02
289 1 -1.090e-02 -1.756e+00 1.748e+00 -4.358e-03 1.116e-02 1.010e-02
290 1 -2.652e-03 -1.739e+00 -1.747e+00 -3.349e-02 1.077e-02 2.089e-03
291 1 1.739e+00 -8.306e-03 1.748e+00 -6.649e-03 1.595e-02 8.682e-03
292 1 1.741e+00 2.175e-03 -1.744e+00 -1.828e-02 9.057e-03 1.053e-02
293 1 -1.887e-02 -3.497e+00 1.189e-02 -1.511e-02 -2.073e-02 4.339e-03
294 1 3.512e+00 -5.226e-03 4.396e-03 -7.579e-03 1.441e-02 2.899e-03
295 1 1.744e+00 -1.750e+00 3.523e+00 7.809e-03 -6.946e-03 8.234e-03
296 1 -1.357e-02 1.039e-02 3.521e+00 -1.144e-02 4.923e-03 -3.890e-03
297 1 -1.769e+00 1.603e-02 -1.761e+00 1.129e-02 2.248e-02 2.051e-02
298 1 -1.776e+00 1.161e-02 1.745e+00 -2.405e-03 -3.249e-03 -4.314e-03
299 1 -5.502e-03 1.756e+00 1.771e+00 -1.799e-02 -1.535e-04 -3.108e-02
300 1 -1.736e-02 1.759e+00 -1.734e+00 -5.843e-03 7.080e-04 7.381e-04
301 1 -3.528e+00 -2.300e-03 -1.856e-03 -1.829e-02 -1.080e-02 2.334e-03
302 1 -3.610e-03 3.536e+00 7.529e-03 1.310e-02 6.781e-03 -2.756e-03
303 1 -1.773e+00 1.772e+00 2.903e-03 1.005e-02 1.682e-03 -2.528e-03
304 1 -1.785e+00 -1.746e+00 5.169e-03 1.735e-03 1.827e-02 9.028e-03
305 1 1.756e+00 1.792e+00 1.937e-04 -2.164e-02 -1.134e-02 -6.447e-04
ITEM: TIMESTEP
0
ITEM: NUMBER OF ATOMS
61
ITEM: BOX BOUNDS xy xz yz pp pp pp
                     0.00000000000000e+00 1.06200000000000e+01 0.00000000000000e+00
0.00000000000000e+00	1.06200000000000e+01	0.00000000000000e+00
0.00000000000000e+00	1.06200000000000e+01	0.00000000000000e+00
ITEM: ATOMS id type x y z DisplacementX DisplacementY DisplacementZ
306 1 -1.463e-02 -5.265e+00 -1.765e+00 1.204e-02 -3.306e-03 -8.623e-03
307 1 -5.299e+00 -8.974e-03 1.731e+00 -3.105e-03 2.552e-02 9.014e-03
308 1 5.261e+00 -1.314e-03 1.747e+00 8.911e-03 8.776e-03 -1.349e-02
309 1 5.261e+00 1.175e-02 -1.766e+00 9.799e-03 1.050e-02 -1.075e-02
310 1 -5.272e+00 1.796e-02 -1.772e+00 -5.511e-04 -7.071e-03 -8.081e-03
311 1 -3.079e-03 5.305e+00 -1.794e+00 -2.710e-04 -2.109e-03 4.371e-03
312 1 1.170e-02 5.292e+00 1.746e+00 1.339e-02 9.200e-03 -5.853e-03
313 1 -8.017e-03 -5.288e+00 1.738e+00 -5.622e-03 1.889e-02 -1.238e-02
314 1 -5.288e+00 -1.760e+00 -2.556e-02 -1.321e-02 -2.408e-03 -1.401e-03
315 1 5.250e+00 -1.764e+00 -7.163e-03 9.844e-03 3.100e-03 -5.811e-03
316 1 -1.764e+00 5.287e+00 -2.293e-02 -3.439e-04 8.270e-03 3.122e-03
317 1 1.759e+00 5.300e+00 -1.081e-02 -6.551e-03 2.562e-02 5.941e-03
318 1 -5.272e+00 1.754e+00 2.234e-03 2.343e-03 1.101e-02 -2.753e-02
319 1 5.271e+00 1.750e+00 -1.216e-03 1.689e-02 1.383e-03 -9.481e-03
320 1 -1.763e+00 -5.270e+00 -1.922e-03 -1.794e-02 9.662e-04 5.548e-04
321 1 1.749e+00 -5.271e+00 -2.032e-02 1.468e-02 3.294e-03 -3.120e-03
322 1 3.519e+00 3.549e+00 -2.319e-02 -1.396e-02 -1.198e-02 1.116e-02
323 1 -3.546e+00 3.512e+00 -1.330e-02 1.610e-02 4.274e-03 -2.183e-02
324 1 3.491e+00 -3.501e+00 -8.423e-03 -2.276e-03 -5.487e-03 -7.183e-03
325 1 -3.508e+00 -3.515e+00 -7.268e-03 4.872e-03 1.482e-03 -1.191e-02
326 1 -1.771e+00 -3.510e+00 1.754e+00 -1.510e-02 1.341e-03 -1.507e-02
327 1 1.734e+00 -3.503e+00 1.731e+00 1.982e-02 1.697e-03 -8.599e-03
328 1 -7.574e-03 -3.515e+00 3.497e+00 1.564e-03 6.871e-04 7.847e-03
329 1 -1.748e+00 -3.518e+00 -1.765e+00 1.330e-02 7.379e-03 6.212e-03
330 1 1.751e+00 -3.496e+00 -1.779e+00 4.718e-03 4.876e-03 -7.919e-03
331 1 -1.746e+00 3.521e+00 -1.770e+00 6.354e-03 8.719e-03 -5.421e-03
332 1 1.784e+00 3.535e+00 -1.790e+00 -1.813e-02 -7.223e-04 8.527e-04
333 1 -1.740e+00 3.527e+00 1.744e+00 -1.769e-02 -9.588e-03 7.279e-03
334 1 1.767e+00 3.542e+00 1.736e+00 -4.382e-03 1.284e-02 8.182e-03
335 1 3.529e+00 1.777e+00 -1.754e+00 5.675e-04 5.024e-03 1.222e-02
336 1 -3.522e+00 1.755e+00 -1.773e+00 1.256e-02 -1.229e-02 -2.272e-02
337 1 -3.512e+00 1.763e+00 1.758e+00 2.710e-03 -5.431e-03 7.257e-03
338 1 3.517e+00 1.774e+00 1.738e+00 1.905e-02 -1.627e-02 2.931e-03
339 1 3.483e+00 -1.738e+00 -1.766e+00 6.181e-03 -1.369e-02 -1.182e-02
340 1 -3.508e+00 -1.770e+00 -1.770e+00 2.643e-03 1.128e-03 -2.429e-03
341 1 -3.538e+00 -1.760e+00 1.759e+00 1.020e-02 5.982e-03 -3.323e-03
342 1 3.526e+00 -1.753e+00 1.744e+00 -1.037e-02 1.423e-03 -4.462e-04
343 1 -3.516e+00 1.427e-03 3.496e+00 -7.566e-03 1.106e-02 8.378e-03
344 1 3.499e+00 3.821e-03 3.495e+00 -2.101e-02 2.035e-02 8.571e-03
345 1 9.964e-03 3.525e+00 3.521e+00 -8.454e-03 -7.430e-03 -1.004e-02
346 1 1.743e+00 -1.732e+00 3.495e+00 2.675e-02 9.032e-03 5.010e-03
347 1 -1.748e+00 -1.760e+00 3.495e+00 -1.713e-02 1.095e-02 1.135e-02
348 1 7.883e-04 -3.859e-03 -9.477e-03 -6.584e-03 -1.752e+00 1.724e+00
349 1 9.037e-03 -1.746e-02 3.497e+00 1.077e-02 9.551e-03 2.536e-02
350 1 1.751e+00 -4.904e-03 1.753e+00 -1.816e-02 1.523e-02 -8.719e-04
351 1 -1.743e+00 -3.901e-04 1.747e+00 -9.011e-03 1.792e-02 -1.730e-02
352 1 1.764e+00 1.777e+00 3.501e+00 -1.357e-03 3.974e-03 -1.265e-03
353 1 -1.760e+00 1.754e+00 3.510e+00 -9.955e-03 -1.760e-02 1.426e-03
354 1 -2.928e-02 -3.523e+00 2.535e-03 9.676e-03 -8.087e-03 9.733e-03
355 1 -1.752e+00 -1.750e+00 1.484e-03 -6.919e-03 1.721e-02 -1.719e-02
356 1 1.740e+00 -1.757e+00 9.461e-03 2.740e-03 1.398e-02 -7.978e-03
357 1 -8.048e-03 -1.761e+00 -1.762e+00 -1.095e-02 1.551e-02 5.201e-03
358 1 -1.761e+00 9.819e-03 -1.774e+00 1.492e-02 1.324e-02 1.312e-02
359 1 1.743e+00 1.003e-02 -1.789e+00 -7.710e-03 2.713e-02 9.006e-03
360 1 1.563e-02 1.739e+00 -1.769e+00 2.934e-03 -1.065e-02 2.629e-02
361 1 3.370e-03 1.793e+00 1.762e+00 -2.432e-03 -2.467e-02 -1.209e-02
362 1 -3.516e+00 -1.296e-02 -4.477e-02 -1.435e-02 3.334e-03 9.119e-03
363 1 3.522e+00 2.908e-04 -4.071e-03 1.200e-02 1.537e-02 3.237e-03
364 1 4.166e-03 3.531e+00 -1.227e-02 1.229e-03 8.310e-03 8.155e-03
365 1 -1.748e+00 1.759e+00 -2.251e-02 1.365e-02 -1.516e-02 -6.228e-03
366 1 1.770e+00 1.765e+00 -1.208e-02 -1.659e-03 1.685e-02 5.351e-03
ITEM: TIMESTEP
0
ITEM: NUMBER OF ATOMS
61
ITEM: BOX BOUNDS xy xz yz pp pp pp
                     0.00000000000000e+00 1.06200000000000e+01 0.00000000000000e+00
0.00000000000000e+00	1.06200000000000e+01	0.00000000000000e+00
0.00000000000000e+00	1.06200000000000e+01	0.00000000000000e+00
ITEM: ATOMS id type x y z DisplacementX DisplacementY DisplacementZ
367 1 4.596e-03 5.268e+00 1.809e+00 2.196e-03 -9.615e-03 5.972e-03
368 1 -5.272e+00 -2.968e-02 -1.748e+00 8.335e-04 6.944e-03 -1.092e-02
369 1 5.273e+00 9.691e-03 -1.747e+00 1.179e-02 -6.385e-03 -1.167e-02
370 1 5.266e+00 -1.089e-02 1.767e+00 -5.167e-03 5.310e-03 -1.413e-02
371 1 -5.291e+00 -2.155e-02 1.765e+00 -2.039e-02 -1.704e-02 7.462e-03
372 1 6.081e-03 -5.316e+00 1.763e+00 1.678e-02 7.074e-03 -1.133e-02
373 1 -7.784e-03 -5.294e+00 -1.748e+00 2.094e-04 -1.372e-02 -6.312e-03
374 1 8.991e-03 5.294e+00 -1.739e+00 -8.387e-03 -1.772e-02 -1.052e-02
375 1 -5.270e+00 1.744e+00 3.117e-02 6.756e-03 5.623e-03 -7.593e-03
376 1 5.262e+00 1.768e+00 1.374e-02 2.858e-03 1.273e-02 1.052e-02
377 1 -1.771e+00 -5.305e+00 3.550e-02 -2.553e-03 -1.135e-02 -1.307e-02
378 1 1.753e+00 -5.293e+00 -2.174e-03 -1.041e-02 5.443e-03 2.316e-03
379 1 -5.297e+00 -1.785e+00 7.266e-03 -7.582e-04 -1.147e-02 8.013e-03
380 1 5.265e+00 -1.774e+00 -3.039e-03 -1.302e-03 1.584e-02 4.117e-03
381 1 -1.743e+00 5.282e+00 1.313e-02 -1.469e-02 -5.057e-03 1.271e-02
382 1 1.788e+00 5.289e+00 1.400e-02 6.991e-03 -4.137e-03 4.869e-03
383 1 3.513e+00 -3.527e+00 -3.610e-05 -3.735e-02 -5.446e-03 1.781e-02
384 1 -3.521e+00 -3.536e+00 2.961e-02 -4.688e-03 1.117e-03 -5.749e-03
385 1 3.533e+00 3.512e+00 7.935e-03 3.740e-03 -3.172e-03 -6.235e-03
386 1 -3.515e+00 3.536e+00 1.539e-02 -3.209e-03 -3.189e-03 -3.962e-03
387 1 -1.747e+00 3.505e+00 -1.739e+00 -1.867e-02 -5.991e-03 -2.166e-02
388 1 1.754e+00 3.497e+00 -1.748e+00 6.427e-03 -1.112e-02 3.447e-03
389 1 -7.171e-03 3.501e+00 -3.492e+00 -3.814e-03 7.239e-03 8.953e-03
390 1 -1.734e+00 3.509e+00 1.782e+00 -1.423e-02 -3.024e-03 5.520e-03
391 1 1.778e+00 3.507e+00 1.773e+00 1.332e-03 -1.636e-03 1.005e-02
392 1 -1.774e+00 -3.545e+00 1.783e+00 1.495e-03 -3.806e-03 -3.797e-03
393 1 1.746e+00 -3.530e+00 1.771e+00 1.665e-03 -9.984e-03 -1.622e-02
394 1 -1.778e+00 -3.544e+00 -1.734e+00 -1.443e-02 1.040e-02 1.795e-02
395 1 1.730e+00 -3.537e+00 -1.736e+00 -2.136e-02 9.052e-03 -6.848e-03
396 1 3.513e+00 -1.766e+00 1.778e+00 -6.601e-03 -3.074e-03 -4.739e-04
397 1 -3.523e+00 -1.769e+00 1.774e+00 -3.247e-03 1.675e-02 1.676e-02
398 1 -3.510e+00 -1.763e+00 -1.754e+00 -1.049e-02 -3.484e-03 1.591e-03
399 1 3.495e+00 -1.769e+00 -1.748e+00 1.052e-02 -4.616e-03 6.092e-03
400 1 3.510e+00 1.751e+00 1.758e+00 5.040e-03 -1.348e-02 -9.929e-03