ITEM: TIMESTEP
0
ITEM: NUMBER OF ATOMS
61
ITEM: BOX BOUNDS xy xz yz pp pp pp
                     0.00000000000000e+00 1.06200000000000e+01 0.00000000000000e+00
0.00000000000000e+00	1.06200000000000e+01	0.00000000000000e+00
0.00000000000000e+00	1.06200000000000e+01	0.00000000000000e+00
ITEM: ATOMS id type x y z DisplacementX DisplacementY DisplacementZ
1 1 -1.599e-02 5.275e+00 -1.771e+00 6.083e-03 1.515e-03 -1.771e-02
2 1 -5.287e+00 -1.632e-02 1.758e+00 -5.197e-03 -4.291e-03 -3.351e-03
3 1 5.265e+00 -1.133e-02 1.741e+00 9.803e-03 5.101e-03 -7.283e-03
4 1 5.262e+00 -8.623e-03 -1.766e+00 1.698e-02 1.857e-03 -4.924e-03
5 1 -5.279e+00 -9.178e-03 -1.756e+00 -1.172e-02 -2.461e-03 -2.308e-02
6 1 -2.119e-02 -5.309e+00 -1.755e+00 9.869e-03 1.020e-02 -8.844e-03
7 1 -2.741e-03 -5.299e+00 1.751e+00 7.784e-03 1.097e-03 7.198e-03
8 1 8.666e-03 5.309e+00 1.760e+00 -7.146e-03 -1.798e-02 -8.638e-03
9 1 -5.301e+00 1.744e+00 -1.432e-02 -2.464e-02 2.394e-03 -5.487e-03
10 1 5.275e+00 1.762e+00 -1.485e-02 1.966e-03 -4.094e-03 -1.183e-02
11 1 -1.746e+00 -5.292e+00 -2.936e-02 -9.540e-04 -5.528e-03 7.507e-03
12 1 1.756e+00 -5.302e+00 -2.591e-03 -6.998e-03 1.798e-03 -6.794e-03
13 1 -5.288e+00 -1.761e+00 -1.379e-02 -8.688e-03 -7.158e-03 1.082e-02
14 1 5.260e+00 -1.756e+00 1.186e-03 -1.915e-03 -5.903e-03 -8.266e-03
15 1 -1.737e+00 5.285e+00 1.890e-03 2.424e-04 1.076e-02 2.828e-03
16 1 1.766e+00 5.273e+00 -4.671e-03 -9.680e-03 -8.308e-03 4.380e-03
17 1 3.514e+00 -3.532e+00 -3.770e-02 -9.903e-03 -7.203e-03 8.936e-03
18 1 -3.510e+00 -3.550e+00 -1.378e-02 1.369e-02 7.740e-03 9.362e-03
19 1 3.496e+00 3.503e+00 -9.836e-03 -3.161e-03 -7.844e-03 -2.090e-02
20 1 -3.529e+00 3.495e+00 -1.870e-02 -1.872e-02 1.826e-03 1.439e-02
21 1 -1.742e+00 3.498e+00 1.743e+00 -1.909e-02 6.222e-03 -8.159e-03
22 1 1.765e+00 3.505e+00 1.747e+00 -1.852e-05 3.558e-03 -2.475e-03
23 1 7.579e-03 3.495e+00 3.498e+00 -5.631e-03 1.320e-02 2.798e-02
24 1 -1.744e+00 3.497e+00 -1.770e+00 -2.044e-04 4.269e-04 -4.639e-03
25 1 1.765e+00 3.515e+00 -1.778e+00 -1.173e-02 3.430e-03 2.485e-04
26 1 -1.736e+00 -3.547e+00 -1.781e+00 2.015e-02 -6.352e-03 1.826e-02
27 1 1.762e+00 -3.548e+00 -1.775e+00 -2.690e-02 1.080e-03 4.343e-03
28 1 -1.774e+00 -3.542e+00 1.748e+00 -1.088e-03 -3.029e-03 -1.242e-03
29 1 1.746e+00 -3.534e+00 1.744e+00 -2.215e-02 6.942e-03 -2.083e-03
30 1 3.513e+00 -1.764e+00 -1.773e+00 1.412e-02 -1.963e-02 9.892e-03
31 1 -3.515e+00 -1.776e+00 -1.771e+00 -3.714e-03 -2.307e-05 -2.219e-05
32 1 -3.536e+00 -1.755e+00 1.734e+00 -6.170e-03 3.352e-03 1.693e-03
33 1 3.511e+00 -1.773e+00 1.748e+00 6.221e-03 -6.672e-03 -8.118e-03
34 1 3.510e+00 1.749e+00 -1.790e+00 2.510e-02 1.319e-04 -5.595e-03
35 1 -3.524e+00 1.764e+00 -1.768e+00 -5.375e-03 -9.830e-03 -1.017e-03
36 1 -3.529e+00 1.744e+00 1.735e+00 1.131e-02 -5.777e-03 -2.896e-04
37 1 3.545e+00 1.745e+00 1.764e+00 -3.087e-02 -1.948e-02 -1.487e-02
38 1 -3.513e+00 2.430e-03 3.508e+00 -3.732e-03 -1.472e-02 9.284e-03
39 1 3.516e+00 -9.724e-03 3.510e+00 -1.146e-02 -1.513e-02 1.072e-02
40 1 1.332e-02 -3.537e+00 3.529e+00 5.050e-03 -1.793e-05 -6.196e-03
41 1 1.744e+00 1.749e+00 3.482e+00 -9.255e-03 -1.419e-02 2.029e-02
42 1 -1.739e+00 1.756e+00 3.487e+00 -7.455e-03 -1.544e-02 2.172e-02
43 1 7.526e-03 -9.731e-03 -9.679e-03 1.474e-02 1.743e+00 1.738e+00
44 1 3.645e-03 1.930e-02 3.494e+00 -4.905e-03 -1.012e-02 -5.996e-03
45 1 1.746e+00 6.486e-04 1.742e+00 -2.092e-03 -3.006e-02 -1.670e-03
46 1 -1.734e+00 2.648e-03 1.745e+00 -8.075e-03 -1.753e-02 -1.737e-02
47 1 1.749e+00 -1.758e+00 3.517e+00 1.609e-02 -2.771e-03 1.923e-02
48 1 -1.758e+00 -1.774e+00 3.507e+00 -3.214e-03 6.147e-03 3.779e-03
49 1 1.210e-02 3.498e+00 -3.110e-03 1.041e-02 1.325e-03 -4.996e-03
50 1 -1.738e+00 1.744e+00 6.257e-03 -8.664e-03 -2.068e-02 -2.927e-02
51 1 1.738e+00 1.752e+00 4.925e-03 1.732e-02 -1.163e-02 -2.935e-03
52 1 -3.252e-03 1.766e+00 -1.754e+00 -1.258e-02 -1.449e-02 1.240e-02
53 1 -1.730e+00 -1.788e-02 -1.776e+00 -1.768e-02 -8.314e-04 -2.231e-04
54 1 1.771e+00 3.693e-03 -1.769e+00 -2.818e-03 -9.371e-03 -2.395e-03
55 1 8.553e-03 -1.759e+00 -1.764e+00 1.799e-02 -1.145e-02 1.104e-02
56 1 3.205e-03 -1.775e+00 1.741e+00 2.152e-03 1.092e-02 -7.951e-04
57 1 -3.531e+00 1.742e-02 -4.267e-03 -1.380e-02 -8.907e-03 -1.894e-02
58 1 3.519e+00 5.640e-03 -6.788e-04 -1.505e-03 -7.896e-03 -1.950e-02
59 1 -2.757e-02 -3.539e+00 -2.235e-02 1.151e-03 -2.067e-03 -3.959e-03
60 1 -1.750e+00 -1.780e+00 -2.431e-02 1.232e-02 8.548e-03 -1.387e-02
61 1 1.753e+00 -1.762e+00 -1.128e-02 -1.848e-02 -1.066e-02 -1.292e-02
ITEM: TIMESTEP
0
ITEM: NUMBER OF ATOMS
61
ITEM: BOX BOUNDS xy xz yz pp pp pp
                     0.00000000000000e+00 1.06200000000000e+01 0.00000000000000e+00
0.00000000000000e+00	1.06200000000000e+01	0.00000000000000e+00
0.00000000000000e+00	1.06200000000000e+01	0.00000000000000e+00
ITEM: ATOMS id type x y z DisplacementX DisplacementY DisplacementZ
62 1 7.382e-03 -5.295e+00 1.746e+00 -5.862e-03 -1.352e-02 1.229e-02
63 1 5.275e+00 -1.303e-02 1.761e+00 1.408e-02 1.876e-03 7.070e-03
64 1 5.276e+00 -2.053e-02 -1.756e+00 -9.569e-03 -5.456e-03 -4.020e-03
65 1 1.548e-03 -5.303e+00 -1.758e+00 -7.212e-03 -2.647e-02 6.083e-03
66 1 -5.256e+00 -3.715e-03 1.747e+00 -1.503e-03 -1.950e-02 3.285e-03
67 1 -5.252e+00 -1.849e-03 -1.756e+00 4.405e-03 2.247e-03 -9.741e-03
68 1 3.135e-02 5.263e+00 1.742e+00 1.038e-02 1.844e-02 6.914e-03
69 1 1.965e-02 5.294e+00 -1.755e+00 1.060e-02 -1.005e-02 -2.484e-02
70 1 -1.729e+00 5.283e+00 -1.205e-02 5.807e-03 -9.094e-03 -7.358e-03
71 1 -5.274e+00 1.753e+00 1.033e-02 2.225e-02 4.487e-03 4.468e-03
72 1 -3.473e+00 3.495e+00 3.457e-03 -1.222e-02 4.189e-03 6.504e-04
73 1 1.756e+00 -5.307e+00 1.456e-03 4.332e-03 3.135e-03 1.406e-02
74 1 5.283e+00 -1.766e+00 5.352e-03 2.923e-02 -2.944e-03 1.211e-02
75 1 -1.743e+00 -5.297e+00 -2.488e-03 -1.329e-03 7.537e-03 1.834e-03
76 1 5.290e+00 1.751e+00 1.870e-02 2.661e-02 7.940e-03 -6.186e-03
77 1 -5.256e+00 -1.772e+00 -2.198e-03 -6.322e-03 -2.201e-03 6.909e-03
78 1 1.778e+00 5.271e+00 2.534e-02 1.566e-02 -1.055e-02 7.517e-03
79 1 3.509e+00 -3.541e+00 3.388e-03 -5.735e-03 -7.749e-03 -1.041e-02
80 1 3.544e+00 3.506e+00 8.327e-03 -3.860e-04 -3.314e-02 -7.495e-03
81 1 -3.501e+00 -3.538e+00 4.901e-03 1.063e-03 8.389e-03 -2.667e-03
82 1 -1.724e+00 3.492e+00 -1.745e+00 1.513e-02 4.450e-03 -3.623e-03
83 1 -1.728e+00 3.503e+00 1.735e+00 1.338e-02 4.926e-03 2.740e-03
84 1 -3.492e+00 1.733e+00 -1.753e+00 -5.895e-03 -4.108e-03 -7.884e-03
85 1 -3.474e+00 1.755e+00 1.747e+00 -1.428e-02 6.125e-04 3.370e-02
86 1 -3.497e+00 -1.773e+00 -1.777e+00 1.484e-02 -1.595e-02 -2.123e-03
87 1 -3.483e+00 -1.768e+00 1.746e+00 8.691e-03 -1.655e-02 -1.287e-02
88 1 1.766e+00 3.519e+00 -1.756e+00 8.644e-03 -4.122e-03 -4.141e-04
89 1 1.784e+00 3.504e+00 1.754e+00 1.808e-03 1.259e-02 -1.128e-02
90 1 1.763e+00 -3.541e+00 1.760e+00 3.443e-03 2.388e-03 1.060e-02
91 1 3.512e+00 -1.781e+00 -1.747e+00 5.965e-03 -9.778e-03 -3.259e-04
92 1 3.530e+00 -1.783e+00 1.744e+00 1.447e-02 5.650e-03 -1.682e-02
93 1 1.759e+00 -3.536e+00 -1.758e+00 1.028e-02 -1.511e-02 -7.638e-03
94 1 -1.733e+00 -3.518e+00 1.763e+00 1.253e-02 1.606e-03 -4.943e-04
95 1 3.530e+00 1.765e+00 1.740e+00 7.265e-03 -3.829e-03 1.049e-04
96 1 3.523e+00 1.739e+00 -1.754e+00 -1.372e-02 -1.216e-02 2.776e-02
97 1 -1.752e+00 -3.544e+00 -1.776e+00 4.770e-03 5.592e-03 -1.868e-03
98 1 1.598e-02 -3.522e+00 3.517e+00 1.263e-02 -1.146e-03 -7.602e-03
99 1 3.537e+00 -1.987e-02 3.515e+00 -4.239e-03 -1.389e-02 8.316e-03
100 1 -3.498e+00 4.425e-03 -3.515e+00 5.625e-03 -1.106e-02 -5.117e-03
101 1 1.807e-02 3.500e+00 -3.507e+00 -3.122e-04 -3.156e-02 -3.749e-03
102 1 -2.001e-02 4.537e-03 -1.432e-02 -1.724e+00 1.745e+00 -1.940e-03
103 1 -1.737e+00 -1.748e+00 3.521e+00 1.257e-02 2.494e-03 3.493e-03
104 1 1.767e+00 1.743e+00 3.512e+00 8.791e-03 -2.129e-02 1.978e-02
105 1 1.771e+00 -1.772e+00 -3.534e+00 -4.106e-03 2.616e-03 1.456e-02
106 1 -1.748e+00 -1.252e-02 1.767e+00 2.422e-02 -1.269e-02 1.518e-02
107 1 -1.757e+00 -1.561e-02 -1.746e+00 3.544e-02 -1.258e-02 5.427e-03
108 1 2.438e-03 1.763e+00 1.756e+00 2.451e-02 -1.783e-02 1.444e-02
109 1 4.638e-03 1.753e+00 -1.749e+00 3.206e-02 1.050e-03 -2.095e-02
110 1 -3.494e+00 -6.289e-03 5.389e-03 -2.992e-02 -9.566e-03 1.107e-02
111 1 9.200e-03 3.510e+00 2.569e-03 7.161e-03 1.031e-02 -1.022e-03
112 1 -1.728e+00 1.735e+00 3.509e+00 1.129e-02 -1.459e-02 1.236e-02
113 1 -1.095e-03 9.883e-03 3.531e+00 1.958e-03 -2.059e-02 -8.306e-04
114 1 7.782e-03 -1.792e+00 -1.763e+00 -2.470e-02 1.707e-02 6.950e-03
115 1 2.345e-02 -1.786e+00 1.768e+00 -1.770e-03 1.297e-03 -1.714e-02
116 1 1.770e+00 -2.723e-03 1.745e+00 3.717e-04 -1.041e-02 -1.433e-02
117 1 1.775e+00 -1.997e-02 -1.755e+00 -1.709e-02 -5.791e-03 2.432e-02
118 1 6.180e-05 -3.531e+00 1.501e-02 -1.033e-02 -2.781e-02 2.325e-02
119 1 3.532e+00 -1.261e-02 2.722e-04 2.578e-02 -1.931e-02 -7.460e-06
120 1 1.764e+00 -1.754e+00 -1.192e-02 1.426e-02 8.318e-03 -7.106e-03
121 1 -1.753e+00 -1.782e+00 -9.482e-03 2.153e-02 9.554e-03 -3.564e-03
122 1 1.800e+00 1.739e+00 -2.098e-03 -1.885e-02 -2.293e-02 -1.131e-02
ITEM: TIMESTEP
0
ITEM: NUMBER OF ATOMS
61
ITEM: BOX BOUNDS xy xz yz pp pp pp
                     0.00000000000000e+00 1.06200000000000e+01 0.00000000000000e+00
0.00000000000000e+00	1.06200000000000e+01	0.00000000000000e+00
0.00000000000000e+00	1.06200000000000e+01	0.00000000000000e+00
ITEM: ATOMS id type x y z DisplacementX DisplacementY DisplacementZ
123 1 5.250e+00 1.537e-02 -1.772e+00 1.110e-02 -8.723e-03 -1.866e-02
124 1 -3.400e-02 -5.289e+00 1.740e+00 1.238e-03 -3.272e-03 1.005e-03
125 1 -1.749e-04 5.267e+00 1.771e+00 -4.574e-03 -3.193e-03 7.224e-03
126 1 1.291e-02 5.272e+00 -1.787e+00 -2.175e-02 2.516e-02 -1.102e-02
127 1 -1.839e-02 -5.288e+00 -1.789e+00 -2.116e-02 -1.717e-03 7.793e-03
128 1 -5.314e+00 -1.553e-02 -1.779e+00 6.862e-03 1.167e-02 -1.126e-02
129 1 -5.302e+00 3.250e-03 1.745e+00 9.680e-03 1.130e-02 -5.926e-03
130 1 5.267e+00 2.833e-03 1.759e+00 -1.018e-02 -2.664e-03 -2.347e-03
131 1 1.733e+00 -5.307e+00 -3.551e-02 -1.106e-02 -1.969e-02 -1.117e-03
132 1 1.750e+00 5.295e+00 1.550e-02 -1.193e-02 -6.691e-03 -2.365e-02
133 1 -5.312e+00 -1.771e+00 -1.411e-02 2.105e-03 -1.113e-02 3.405e-03
134 1 -5.293e+00 1.748e+00 -1.436e-02 -1.696e-03 1.770e-02 1.109e-02
135 1 -1.766e+00 -5.267e+00 -8.685e-03 1.517e-03 -6.998e-03 5.129e-03
136 1 -1.772e+00 5.261e+00 -6.911e-03 -1.001e-02 1.226e-02 6.567e-03
137 1 5.250e+00 -1.775e+00 -1.188e-02 5.984e-03 -1.335e-02 -1.620e-02
138 1 5.260e+00 1.761e+00 -1.535e-02 3.656e-03 9.568e-03 -1.004e-02
139 1 -3.522e+00 3.489e+00 -5.720e-03 -1.183e-02 -2.845e-04 -4.307e-03
140 1 -3.534e+00 -3.544e+00 -2.364e-02 1.293e-02 1.530e-03 1.404e-02
141 1 3.508e+00 3.540e+00 -1.443e-02 2.621e-03 -5.386e-03 -5.425e-03
142 1 3.491e+00 -3.528e+00 -2.134e-02 1.238e-02 4.284e-03 -2.031e-03
143 1 3.493e+00 -1.745e+00 1.747e+00 -3.855e-03 -2.537e-02 -1.223e-02
144 1 3.503e+00 1.758e+00 1.756e+00 -9.730e-03 6.284e-03 6.231e-03
145 1 3.498e+00 1.823e-02 3.505e+00 -7.271e-03 2.484e-03 1.191e-02
146 1 3.494e+00 -1.737e+00 -1.774e+00 -6.041e-03 -9.241e-03 -1.329e-02
147 1 3.510e+00 1.780e+00 -1.774e+00 3.062e-03 -1.772e-02 -5.975e-03
148 1 -3.527e+00 -1.758e+00 -1.771e+00 -2.355e-02 6.383e-03 -1.012e-02
149 1 -3.536e+00 1.758e+00 -1.782e+00 -1.061e-02 1.097e-02 1.788e-03
150 1 -3.539e+00 -1.775e+00 1.739e+00 -1.184e-03 3.320e-03 7.072e-03
151 1 -3.549e+00 1.750e+00 1.757e+00 3.951e-03 -1.658e-02 -1.375e-02
152 1 -1.761e+00 3.523e+00 -1.806e+00 -8.117e-03 -8.951e-03 -3.817e-03
153 1 -1.779e+00 -3.519e+00 -1.762e+00 -4.637e-03 9.587e-03 -6.857e-03
154 1 -1.766e+00 -3.532e+00 1.735e+00 -1.262e-02 -6.235e-03 2.567e-03
155 1 -1.766e+00 3.506e+00 1.747e+00 -9.872e-03 -1.347e-03 -1.380e-02
156 1 1.750e+00 3.487e+00 -1.775e+00 -1.280e-02 1.702e-02 3.761e-03
157 1 1.730e+00 -3.517e+00 -1.776e+00 -2.070e-02 -8.979e-04 8.173e-04
158 1 1.729e+00 -3.530e+00 1.747e+00 -1.390e-02 1.698e-02 -1.022e-03
159 1 1.747e+00 3.540e+00 1.741e+00 -1.492e-02 -3.369e-02 3.641e-03
160 1 -2.157e-02 -3.530e+00 3.499e+00 -5.065e-03 2.533e-03 -2.201e-04
161 1 -1.051e-02 3.499e+00 3.504e+00 -1.009e-02 -9.836e-03 1.502e-02
162 1 -3.526e+00 1.656e-02 3.489e+00 6.673e-03 4.335e-03 -7.136e-03
163 1 1.749e+00 1.754e+00 3.478e+00 -1.677e-02 1.116e-03 -4.664e-03
164 1 1.750e+00 -1.757e+00 3.485e+00 -2.431e-02 -6.479e-03 2.852e-02
165 1 -1.468e-02 1.394e-02 -9.397e-03 1.739e+00 -7.981e-03 1.737e+00
166 1 8.671e-03 3.975e-03 3.492e+00 -2.304e-02 7.999e-03 1.642e-02
167 1 -1.351e-03 1.758e+00 1.745e+00 2.389e-03 2.123e-03 -1.828e-02
168 1 -4.065e-03 -1.751e+00 1.728e+00 -1.665e-02 -1.035e-02 -2.076e-02
169 1 -1.755e+00 1.770e+00 3.510e+00 -1.096e-02 6.889e-03 -7.559e-03
170 1 -1.797e+00 -1.772e+00 3.496e+00 7.363e-04 -4.518e-03 -8.298e-04
171 1 3.513e+00 -1.167e-03 -6.535e-03 9.655e-03 6.644e-03 -2.733e-02
172 1 1.748e+00 -1.768e+00 -2.341e-03 -1.684e-02 -1.954e-02 -1.476e-02
173 1 1.747e+00 1.766e+00 -1.958e-02 -2.392e-02 -8.737e-03 -2.263e-02
174 1 1.730e+00 5.958e-03 -1.790e+00 -2.044e-02 7.748e-03 3.192e-02
175 1 -7.773e-03 -1.758e+00 -1.773e+00 -1.278e-02 7.593e-03 1.248e-02
176 1 5.427e-03 1.766e+00 -1.775e+00 -1.365e-02 -1.656e-02 9.833e-03
177 1 -1.771e+00 6.770e-03 -1.767e+00 1.344e-03 -9.510e-03 -4.467e-03
178 1 -1.796e+00 -1.040e-02 1.742e+00 1.639e-02 -1.602e-03 -4.209e-02
179 1 -1.497e-02 -3.521e+00 -1.888e-02 -1.539e-02 -1.232e-02 -2.066e-02
180 1 -8.616e-03 3.511e+00 -2.219e-02 -1.432e-02 2.543e-02 4.943e-03
181 1 -3.536e+00 2.049e-04 -1.659e-02 -1.751e-02 2.524e-02 6.006e-03
182 1 -1.758e+00 -1.757e+00 -5.853e-03 -8.743e-03 -2.217e-03 -5.944e-03
183 1 -1.788e+00 1.764e+00 -1.605e-02 -8.723e-03 -1.642e-02 1.675e-03
ITEM: TIMESTEP
0
ITEM: NUMBER OF ATOMS
61
ITEM: BOX BOUNDS xy xz yz pp pp pp
                     0.00000000000000e+00 1.06200000000000e+01 0.00000000000000e+00
0.00000000000000e+00	1.06200000000000e+01	0.00000000000000e+00
0.00000000000000e+00	1.06200000000000e+01	0.00000000000000e+00
ITEM: ATOMS id type x y z DisplacementX DisplacementY DisplacementZ
184 1 -5.260e+00 -7.195e-03 -1.795e+00 -2.141e-02 5.432e-03 -6.400e-03
185 1 1.767e-02 -5.282e+00 1.735e+00 -7.589e-03 1.275e-02 -6.191e-03
186 1 3.652e-02 5.299e+00 1.759e+00 7.588e-03 -5.852e-03 -1.848e-03
187 1 2.908e-02 5.280e+00 -1.784e+00 4.534e-03 1.502e-02 2.098e-03
188 1 1.576e-02 -5.307e+00 -1.777e+00 -1.090e-03 2.203e-03 -5.500e-03
189 1 5.270e+00 -1.505e-03 -1.790e+00 -2.365e-02 8.910e-05 -4.093e-03
190 1 5.302e+00 -2.449e-02 1.750e+00 -8.295e-03 1.619e-02 -3.701e-03
191 1 -5.275e+00 1.103e-02 1.753e+00 1.119e-02 -1.320e-02 -4.920e-03
192 1 -1.761e+00 -5.304e+00 -2.099e-02 1.643e-02 -9.770e-04 1.167e-02
193 1 -1.728e+00 5.263e+00 -8.151e-03 1.589e-03 -2.610e-07 -8.792e-03
194 1 5.287e+00 -1.774e+00 -5.092e-03 1.137e-02 -1.443e-02 -1.980e-02
195 1 5.273e+00 1.761e+00 -1.504e-02 6.510e-04 1.345e-02 -2.080e-03
196 1 1.782e+00 -5.318e+00 -2.491e-02 1.863e-03 1.172e-04 -1.853e-02
197 1 1.777e+00 5.299e+00 -3.586e-02 -1.172e-02 3.853e-03 2.728e-03
198 1 -5.266e+00 -1.753e+00 -1.060e-02 4.132e-05 2.341e-02 5.781e-03
199 1 -5.252e+00 1.769e+00 -1.259e-02 3.037e-03 -6.220e-03 6.210e-03
200 1 3.544e+00 3.523e+00 -1.472e-02 1.029e-02 2.990e-03 -6.749e-04
201 1 3.517e+00 -3.531e+00 -9.331e-03 -1.500e-02 1.281e-02 4.745e-03
202 1 -3.489e+00 3.515e+00 -1.993e-02 4.507e-03 9.985e-03 2.012e-03
203 1 -3.503e+00 -3.523e+00 -1.898e-02 1.412e-02 2.358e-03 4.318e-03
204 1 -3.495e+00 -1.751e+00 1.732e+00 3.249e-03 1.222e-02 1.969e-02
205 1 -3.490e+00 1.757e+00 1.733e+00 -9.622e-03 3.180e-03 -2.641e-03
206 1 -3.474e+00 -6.654e-03 3.489e+00 8.595e-03 2.022e-02 2.398e-03
207 1 -3.483e+00 -1.762e+00 -1.777e+00 -1.325e-02 5.279e-03 8.109e-03
208 1 -3.492e+00 1.767e+00 -1.781e+00 3.351e-03 -1.405e-02 4.396e-03
209 1 3.522e+00 -1.772e+00 -1.786e+00 2.337e-03 6.972e-03 1.202e-02
210 1 3.523e+00 1.750e+00 -1.777e+00 -5.809e-03 -2.333e-02 1.803e-02
211 1 3.528e+00 -1.770e+00 1.732e+00 6.141e-03 9.515e-03 -2.019e-02
212 1 3.517e+00 1.753e+00 1.748e+00 -7.113e-04 -5.416e-03 3.804e-03
213 1 1.782e+00 3.539e+00 -1.774e+00 2.505e-04 3.721e-03 -6.422e-03
214 1 1.770e+00 -3.496e+00 -1.797e+00 1.828e-02 -9.303e-03 3.765e-04
215 1 1.766e+00 -3.535e+00 1.744e+00 -1.520e-02 5.094e-03 1.001e-02
216 1 1.779e+00 3.517e+00 1.742e+00 2.424e-02 3.483e-03 -1.508e-02
217 1 -1.745e+00 3.525e+00 -1.764e+00 -1.323e-02 -6.267e-03 -6.308e-03
218 1 -1.748e+00 -3.524e+00 -1.787e+00 5.812e-03 3.262e-03 1.459e-03
219 1 -1.744e+00 -3.530e+00 1.741e+00 1.542e-02 3.252e-02 7.670e-03
220 1 -1.739e+00 3.530e+00 1.740e+00 3.980e-03 -1.770e-02 2.549e-03
221 1 -1.721e-03 -3.520e+00 3.494e+00 2.057e-02 3.954e-03 -7.682e-03
222 1 1.795e-02 3.520e+00 3.527e+00 1.858e-03 8.955e-03 1.010e-02
223 1 3.531e+00 1.627e-03 3.514e+00 -2.983e-03 -4.689e-03 -8.368e-03
224 1 -1.736e+00 1.761e+00 3.483e+00 2.644e-02 1.218e-02 1.678e-02
225 1 -1.758e+00 -1.743e+00 3.502e+00 1.894e-02 6.219e-03 -1.721e-03
226 1 -1.141e-02 -1.391e-02 -1.637e-02 -1.727e+00 1.498e-02 1.731e+00
227 1 6.089e-03 2.577e-03 3.476e+00 3.647e-03 -1.529e-03 2.288e-02
228 1 1.040e-02 1.748e+00 1.750e+00 3.540e-02 -4.291e-03 -1.979e-02
229 1 1.096e-02 -1.751e+00 1.730e+00 3.033e-03 -7.031e-03 -3.236e-02
230 1 1.774e+00 1.758e+00 3.492e+00 1.700e-02 2.430e-04 4.658e-03
231 1 1.773e+00 -1.764e+00 3.499e+00 1.530e-02 -1.813e-02 -9.594e-03
232 1 -3.488e+00 1.974e-02 -3.869e-03 -1.702e-02 1.391e-02 -3.759e-02
233 1 -1.754e+00 -1.743e+00 2.603e-03 2.049e-02 5.445e-03 -2.009e-02
234 1 -1.744e+00 1.744e+00 -1.047e-02 9.910e-03 -1.389e-02 -2.329e-02
235 1 -1.744e+00 1.203e-02 -1.786e+00 1.958e-02 6.808e-04 -2.385e-03
236 1 7.833e-03 -1.756e+00 -1.776e+00 1.696e-02 2.713e-02 9.597e-03
237 1 7.566e-03 1.750e+00 -1.781e+00 -8.862e-03 -1.007e-02 1.062e-02
238 1 1.745e+00 7.243e-03 -1.737e+00 5.203e-03 -9.476e-03 8.163e-03
239 1 1.776e+00 -1.294e-02 1.748e+00 -2.288e-02 -2.579e-03 -1.652e-03
240 1 -1.719e-02 -3.538e+00 -8.839e-03 8.505e-03 -3.352e-02 3.568e-03
241 1 3.560e-02 3.537e+00 -1.410e-02 -1.761e-02 1.408e-02 2.474e-03
242 1 3.528e+00 -1.261e-02 -1.324e-02 1.208e-02 1.429e-03 1.347e-02
243 1 1.764e+00 -1.771e+00 -1.430e-02 -9.391e-03 1.232e-02 3.493e-03
244 1 1.762e+00 1.757e+00 -2.679e-03 -1.650e-02 4.861e-03 -4.866e-03
ITEM: TIMESTEP
0
ITEM: NUMBER OF ATOMS
61
ITEM: BOX BOUNDS xy xz yz pp pp pp
                     0.00000000000000e+00 1.06200000000000e+01 0.00000000000000e+00
0.00000000000000e+00	1.06200000000000e+01	0.00000000000000e+00
0.00000000000000e+00	1.06200000000000e+01	0.00000000000000e+00
ITEM: ATOMS id type x y z DisplacementX DisplacementY DisplacementZ
245 1 -5.298e+00 1.120e-02 1.761e+00 1.256e-02 5.090e-03 -7.400e-03
246 1 3.899e-04 5.295e+00 1.754e+00 -2.849e-03 6.607e-03 2.057e-02
247 1 -7.094e-03 5.292e+00 -1.777e+00 -2.343e-03 -1.198e-02 1.045e-02
248 1 -5.298e+00 2.379e-03 -1.762e+00 5.450e-03 6.386e-03 -8.547e-03
249 1 -1.554e-02 -5.266e+00 1.759e+00 -5.158e-03 1.524e-02 2.717e-03
250 1 -1.020e-02 -5.284e+00 -1.774e+00 -6.939e-03 6.168e-03 -1.278e-02
251 1 5.265e+00 -6.146e-03 1.746e+00 -3.302e-03 1.422e-02 -3.696e-03
252 1 5.250e+00 1.140e-02 -1.777e+00 7.693e-03 2.436e-02 5.988e-03
253 1 5.261e+00 -1.746e+00 -9.093e-03 4.587e-03 -2.244e-03 1.552e-02
254 1 1.744e+00 -5.307e+00 -1.319e-02 -8.234e-03 9.991e-03 -2.119e-03
255 1 3.477e+00 -3.486e+00 -1.462e-02 1.313e-02 -8.094e-04 6.391e-04
256 1 -5.294e+00 1.760e+00 4.773e-03 -5.722e-03 1.572e-02 2.153e-03
257 1 -1.771e+00 5.291e+00 -4.618e-03 -8.855e-03 1.371e-02 -3.659e-03
258 1 -5.282e+00 -1.770e+00 1.789e-03 -1.295e-02 3.485e-04 4.116e-03
259 1 1.760e+00 5.319e+00 -1.134e-02 1.625e-02 3.836e-03 2.168e-03
260 1 -1.782e+00 -5.266e+00 9.852e-04 -1.371e-02 1.453e-03 -1.082e-03
261 1 5.265e+00 1.759e+00 6.350e-03 -9.126e-03 1.311e-02 -4.112e-03
262 1 -3.539e+00 3.525e+00 1.049e-02 2.004e-02 -1.759e-02 -1.248e-02
263 1 3.522e+00 3.534e+00 1.462e-02 -2.476e-02 -6.013e-03 1.944e-03
264 1 -3.539e+00 -3.523e+00 3.091e-03 -1.765e-03 7.412e-03 6.900e-03
265 1 3.480e+00 -1.746e+00 -1.740e+00 -1.815e-03 1.984e-02 -1.804e-02
266 1 3.489e+00 -1.747e+00 1.731e+00 1.936e-02 1.239e-02 9.886e-03
267 1 1.735e+00 -3.517e+00 -1.736e+00 -2.035e-02 4.082e-03 -2.204e-02
268 1 1.731e+00 -3.498e+00 1.731e+00 -2.207e-02 -5.135e-03 6.694e-03
269 1 -1.765e+00 -3.510e+00 -1.770e+00 -3.455e-03 -6.783e-04 -1.325e-02
270 1 -1.768e+00 -3.518e+00 1.768e+00 1.331e-03 1.166e-02 -3.983e-03
271 1 3.502e+00 1.778e+00 -1.749e+00 -9.450e-03 1.267e-02 -2.577e-03
272 1 3.517e+00 1.783e+00 1.759e+00 1.212e-03 5.231e-03 -3.596e-03
273 1 -3.539e+00 1.762e+00 1.742e+00 -1.318e-03 9.050e-03 8.201e-03
274 1 -1.750e+00 3.524e+00 -1.765e+00 -6.136e-03 -7.121e-03 -2.736e-03
275 1 -1.782e+00 3.518e+00 1.756e+00 -6.088e-03 1.562e-02 2.661e-03
276 1 -3.514e+00 1.767e+00 -1.759e+00 4.003e-04 1.166e-02 -5.630e-03
277 1 -3.539e+00 -1.751e+00 1.763e+00 -4.141e-03 1.514e-02 -2.580e-03
278 1 1.774e+00 3.520e+00 1.757e+00 -1.131e-02 1.769e-02 -1.743e-02
279 1 1.745e+00 3.547e+00 -1.753e+00 6.405e-03 -2.511e-02 -3.798e-03
280 1 -3.543e+00 -1.732e+00 -1.762e+00 -1.599e-02 1.911e-02 4.848e-03
281 1 -3.533e+00 4.659e-03 3.522e+00 -7.841e-03 3.497e-03 1.456e-02
282 1 -6.655e-03 3.524e+00 -3.532e+00 -3.842e-03 -3.080e-03 -2.268e-03
283 1 -2.555e-02 -3.513e+00 -3.528e+00 -9.459e-03 1.396e-02 7.172e-03
284 1 3.502e+00 -1.441e-03 -3.526e+00 1.689e-03 1.585e-02 1.053e-02
285 1 1.412e-02 -5.404e-03 -1.889e-03 1.713e+00 -1.723e+00 -2.295e-02
286 1 -1.763e+00 -1.759e+00 3.514e+00 -1.323e-02 1.627e-02 -1.333e-02
287 1 1.756e+00 1.776e+00 -3.509e+00 -1.143e-02 -2.953e-03 2.062e-03
288 1 -1.776e+00 1.743e+00 3.537e+00 1.041e-02 -7.493e-03 1.346e-02
289 1 -1.668e-02 -1.764e+00 1.726e+00 -4.866e-03 1.695e-02 1.175e-03
290 1 7.113e-03 -1.774e+00 -1.745e+00 -2.562e-02 3.116e-02 -8.028e-03
291 1 1.752e+00 -9.273e-03 1.724e+00 1.740e-03 1.724e-02 -1.302e-02
292 1 1.733e+00 6.725e-03 -1.760e+00 -9.760e-03 7.447e-03 1.815e-02
293 1 7.752e-03 -3.489e+00 -5.187e-03 -5.420e-03 -2.731e-03 1.372e-02
294 1 3.512e+00 7.587e-03 1.058e-02 4.170e-03 3.130e-02 -1.388e-03
295 1 1.743e+00 -1.734e+00 3.514e+00 -3.039e-04 -1.327e-02 -6.879e-03
296 1 -2.181e-02 1.242e-03 3.502e+00 -1.029e-02 2.292e-02 -8.073e-03
297 1 -1.781e+00 -1.389e-03 -1.783e+00 8.430e-03 2.335e-02 2.495e-02
298 1 -1.793e+00 -8.787e-04 1.766e+00 -6.047e-03 -4.250e-03 -4.678e-03
299 1 -9.332e-03 1.765e+00 1.754e+00 6.845e-03 -4.343e-03 1.736e-03
300 1 2.668e-03 1.773e+00 -1.751e+00 -5.543e-03 9.696e-03 1.809e-02
301 1 -3.537e+00 -9.965e-03 -2.438e-03 -1.836e-02 6.419e-03 -9.149e-04
302 1 -1.026e-02 3.522e+00 8.187e-03 -6.248e-03 7.229e-03 -2.148e-03
303 1 -1.769e+00 1.760e+00 -1.524e-02 4.075e-03 -3.321e-04 -1.889e-02
304 1 -1.784e+00 -1.732e+00 8.053e-03 5.021e-03 1.220e-02 -2.780e-03
305 1 1.723e+00 1.767e+00 -3.276e-03 -1.689e-02 -5.970e-03 8.581e-03
ITEM: TIMESTEP
0
ITEM: NUMBER OF ATOMS
61
ITEM: BOX BOUNDS xy xz yz pp pp pp
                     0.00000000000000e+00 1.06200000000000e+01 0.00000000000000e+00
0.00000000000000e+00	1.06200000000000e+01	0.00000000000000e+00
0.00000000000000e+00	1.06200000000000e+01	0.00000000000000e+00
ITEM: ATOMS id type x y z DisplacementX DisplacementY DisplacementZ
306 1 5.244e-03 -5.262e+00 -1.783e+00 -2.028e-03 8.835e-03 1.232e-02
307 1 -5.269e+00 -2.453e-02 1.753e+00 -7.109e-03 -1.769e-03 -1.518e-02
308 1 5.267e+00 1.771e-02 1.749e+00 5.705e-03 3.245e-03 -2.350e-03
309 1 5.285e+00 -4.404e-03 -1.781e+00 5.509e-03 2.415e-03 -1.521e-02
310 1 -5.265e+00 3.662e-03 -1.784e+00 -6.422e-03 1.685e-02 -2.834e-02
311 1 6.012e-03 5.287e+00 -1.764e+00 -5.411e-03 -1.186e-02 -6.157e-03
312 1 2.044e-02 5.295e+00 1.754e+00 1.036e-02 1.891e-03 2.545e-03
313 1 -1.629e-02 -5.282e+00 1.747e+00 -4.983e-03 2.767e-02 7.116e-03
314 1 -5.276e+00 -1.742e+00 -2.093e-02 6.235e-03 1.298e-02 1.250e-02
315 1 5.268e+00 -1.771e+00 -1.011e-02 3.066e-04 1.477e-02 -1.590e-02
316 1 -1.758e+00 5.280e+00 -1.144e-02 2.178e-03 1.553e-03 -4.243e-03
317 1 1.792e+00 5.303e+00 -1.132e-02 1.166e-02 -4.824e-03 1.276e-02
318 1 -5.286e+00 1.765e+00 -1.399e-02 -8.701e-03 2.363e-03 -9.664e-05
319 1 5.259e+00 1.758e+00 2.353e-04 2.515e-02 1.492e-02 9.990e-03
320 1 -1.765e+00 -5.274e+00 -1.873e-02 -1.360e-02 1.204e-02 -1.085e-02
321 1 1.729e+00 -5.279e+00 9.502e-03 4.091e-03 1.283e-03 -1.496e-02
322 1 3.523e+00 3.538e+00 -1.859e-02 -3.340e-03 -2.459e-03 7.130e-03
323 1 -3.536e+00 3.527e+00 -7.057e-03 7.653e-04 1.524e-02 -5.641e-03
324 1 3.516e+00 -3.518e+00 -1.271e-02 1.007e-02 -2.340e-03 1.221e-02
325 1 -3.509e+00 -3.513e+00 -1.147e-02 5.118e-03 1.751e-02 5.776e-03
326 1 -1.746e+00 -3.502e+00 1.720e+00 3.644e-03 -1.014e-02 -4.723e-03
327 1 1.737e+00 -3.512e+00 1.740e+00 1.788e-02 -8.463e-03 -2.116e-02
328 1 -2.254e-02 -3.501e+00 3.494e+00 -2.486e-03 -9.093e-04 2.763e-02
329 1 -1.762e+00 -3.517e+00 -1.780e+00 3.132e-03 -6.240e-04 -3.267e-03
330 1 1.737e+00 -3.516e+00 -1.773e+00 6.858e-03 4.327e-03 5.086e-03
331 1 -1.769e+00 3.515e+00 -1.770e+00 6.915e-03 -3.578e-03 1.041e-02
332 1 1.776e+00 3.553e+00 -1.771e+00 -3.199e-03 -6.913e-03 8.571e-03
333 1 -1.756e+00 3.517e+00 1.749e+00 -1.192e-02 -1.551e-02 -2.274e-03
334 1 1.775e+00 3.540e+00 1.741e+00 -1.310e-02 -1.137e-02 -7.091e-03
335 1 3.528e+00 1.763e+00 -1.772e+00 -9.774e-03 -5.502e-03 7.197e-04
336 1 -3.512e+00 1.748e+00 -1.768e+00 -9.932e-03 -4.844e-05 -3.923e-03
337 1 -3.519e+00 1.742e+00 1.758e+00 -1.045e-02 -1.648e-02 -8.910e-03
338 1 3.493e+00 1.769e+00 1.741e+00 9.398e-03 -9.995e-03 -1.733e-02
339 1 3.501e+00 -1.763e+00 -1.777e+00 2.066e-02 -5.222e-03 -1.284e-02
340 1 -3.498e+00 -1.760e+00 -1.765e+00 -2.007e-02 5.856e-03 1.392e-04
341 1 -3.532e+00 -1.761e+00 1.738e+00 2.345e-02 -3.720e-03 1.262e-02
342 1 3.504e+00 -1.769e+00 1.748e+00 -1.908e-02 1.796e-02 1.051e-02
343 1 -3.513e+00 9.349e-05 3.493e+00 1.470e-02 5.485e-03 -3.954e-03
344 1 3.512e+00 6.978e-03 3.495e+00 -4.595e-03 1.217e-02 -1.827e-02
345 1 -2.070e-03 3.543e+00 3.517e+00 5.992e-03 -9.687e-03 -1.266e-02
346 1 1.746e+00 -1.751e+00 3.478e+00 9.632e-03 -2.727e-03 1.937e-02
347 1 -1.757e+00 -1.757e+00 3.488e+00 -1.226e-02 1.811e-02 1.605e-02
348 1 -1.177e-02 -7.097e-04 1.924e-03 -2.218e-02 -1.745e+00 1.726e+00
349 1 -4.526e-03 -2.887e-03 3.497e+00 8.696e-03 5.443e-03 1.618e-02
350 1 1.743e+00 9.560e-03 1.766e+00 -1.771e-03 1.617e-02 -1.309e-02
351 1 -1.731e+00 -6.470e-03 1.751e+00 -1.290e-02 2.817e-02 -1.618e-02
352 1 1.777e+00 1.770e+00 3.510e+00 3.342e-03 8.929e-04 5.981e-03
353 1 -1.741e+00 1.769e+00 3.497e+00 7.428e-03 8.078e-03 1.388e-03
354 1 -5.356e-03 -3.512e+00 -5.175e-03 9.615e-03 -3.339e-03 -1.867e-02
355 1 -1.741e+00 -1.761e+00 6.920e-03 -1.914e-02 2.181e-02 -1.281e-02
356 1 1.747e+00 -1.745e+00 4.158e-03 -1.260e-02 1.926e-03 -3.429e-02
357 1 -1.636e-02 -1.758e+00 -1.779e+00 -1.353e-02 1.559e-02 8.505e-03
358 1 -1.769e+00 -5.495e-03 -1.757e+00 -4.189e-03 -3.435e-03 9.405e-03
359 1 1.747e+00 2.502e-02 -1.767e+00 1.982e-02 1.210e-02 2.537e-02
360 1 -4.507e-03 1.752e+00 -1.777e+00 -6.545e-03 -3.437e-02 5.902e-03
361 1 2.368e-02 1.765e+00 1.757e+00 -6.659e-03 -2.679e-02 -1.121e-02
362 1 -3.527e+00 1.004e-03 -2.172e-02 -1.348e-02 1.678e-02 -9.036e-03
363 1 3.499e+00 -7.284e-03 -2.695e-02 -9.831e-03 2.331e-02 -6.397e-03
364 1 7.924e-03 3.540e+00 -2.636e-02 2.455e-02 5.429e-04 -4.136e-03
365 1 -1.753e+00 1.778e+00 -2.791e-02 1.732e-02 1.561e-02 -1.686e-03
366 1 1.765e+00 1.778e+00 -1.311e-02 1.937e-03 -1.914e-02 -1.781e-02
ITEM: TIMESTEP
0
ITEM: NUMBER OF ATOMS
61
ITEM: BOX BOUNDS xy xz yz pp pp pp
                     0.00000000000000e+00 1.06200000000000e+01 0.00000000000000e+00
0.00000000000000e+00	1.06200000000000e+01	0.00000000000000e+00
0.00000000000000e+00	1.06200000000000e+01	0.00000000000000e+00
ITEM: ATOMS id type x y z DisplacementX DisplacementY DisplacementZ
367 1 1.625e-02 5.272e+00 1.775e+00 -7.646e-03 6.953e-03 -4.337e-03
368 1 -5.293e+00 -4.898e-03 -1.753e+00 6.950e-03 -2.024e-02 -1.807e-03
369 1 5.255e+00 -1.416e-02 -1.745e+00 -2.830e-03 -1.106e-02 1.526e-02
370 1 5.284e+00 -2.030e-02 1.794e+00 8.830e-03 8.508e-04 -1.298e-02
371 1 -5.279e+00 -1.087e-02 1.780e+00 -1.027e-02 4.147e-03 1.418e-03
372 1 3.282e-03 -5.314e+00 1.778e+00 -1.465e-02 2.182e-03 1.184e-02
373 1 -1.443e-02 -5.291e+00 -1.730e+00 4.930e-03 -1.177e-02 -5.826e-04
374 1 7.666e-03 5.289e+00 -1.745e+00 -1.483e-02 -3.040e-02 -6.666e-03
375 1 -5.262e+00 1.739e+00 1.209e-02 -4.523e-03 -2.137e-02 -1.041e-02
376 1 5.283e+00 1.762e+00 1.099e-02 -2.115e-03 -6.694e-03 -3.030e-03
377 1 -1.746e+00 -5.297e+00 2.126e-02 6.311e-04 8.375e-03 9.352e-03
378 1 1.771e+00 -5.278e+00 3.649e-03 -4.858e-04 8.473e-03 1.305e-02
379 1 -5.281e+00 -1.763e+00 1.474e-02 -1.150e-02 -2.817e-02 1.079e-03
380 1 5.256e+00 -1.785e+00 6.257e-03 -1.334e-02 -1.662e-02 3.011e-03
381 1 -1.740e+00 5.285e+00 7.871e-03 -1.036e-02 1.309e-02 -7.276e-03
382 1 1.768e+00 5.272e+00 2.005e-02 -6.324e-03 -1.246e-02 4.531e-03
383 1 3.506e+00 -3.529e+00 4.976e-03 -1.251e-02 2.647e-04 1.219e-02
384 1 -3.523e+00 -3.533e+00 1.769e-02 -2.167e-03 -8.577e-03 -2.352e-03
385 1 3.503e+00 3.516e+00 4.039e-03 -2.550e-04 -8.345e-03 -4.109e-05
386 1 -3.518e+00 3.492e+00 2.827e-03 -4.778e-03 -2.144e-02 1.324e-02
387 1 -1.731e+00 3.496e+00 -1.757e+00 -7.601e-03 6.382e-03 -9.442e-03
388 1 1.770e+00 3.491e+00 -1.749e+00 1.196e-02 -1.496e-03 4.448e-03
389 1 5.441e-03 3.524e+00 -3.491e+00 -6.939e-03 9.097e-03 -5.909e-03
390 1 -1.751e+00 3.510e+00 1.770e+00 -1.332e-04 5.055e-03 -1.543e-03
391 1 1.766e+00 3.511e+00 1.754e+00 -1.723e-02 -1.843e-03 5.564e-03
392 1 -1.752e+00 -3.538e+00 1.770e+00 -1.601e-02 -5.820e-03 3.291e-03
393 1 1.768e+00 -3.543e+00 1.774e+00 -8.650e-03 5.114e-03 4.286e-03
394 1 -1.763e+00 -3.520e+00 -1.755e+00 1.882e-02 -7.266e-04 6.492e-04
395 1 1.754e+00 -3.550e+00 -1.738e+00 5.002e-03 8.433e-03 -8.476e-03
396 1 3.500e+00 -1.764e+00 1.772e+00 3.835e-03 -1.332e-02 -7.592e-03
397 1 -3.522e+00 -1.777e+00 1.786e+00 -3.893e-03 -3.184e-03 -5.306e-03
398 1 -3.502e+00 -1.766e+00 -1.745e+00 -5.599e-03 -8.042e-03 2.885e-03
399 1 3.498e+00 -1.761e+00 -1.743e+00 1.599e-02 -2.036e-03 -3.398e-03