ITEM: TIMESTEP
0
ITEM: NUMBER OF ATOMS
49
ITEM: BOX BOUNDS xy xz yz pp pp pp
                     0.00000000000000e+00 1.06200000000000e+01 0.00000000000000e+00
0.00000000000000e+00	1.06200000000000e+01	0.00000000000000e+00
0.00000000000000e+00	1.06200000000000e+01	0.00000000000000e+00
ITEM: ATOMS id type x y z DisplacementX DisplacementY DisplacementZ
1 1 -3.521e+00 -3.505e+00 -4.961e-02 8.995e-03 1.477e-02 -1.895e-03
2 1 -3.514e+00 3.441e+00 -4.641e-02 6.617e-04 -1.464e-02 -5.986e-03
3 1 -1.752e+00 1.698e+00 3.460e+00 -7.136e-03 -2.985e-02 9.929e-03
4 1 -8.860e-04 5.218e+00 1.709e+00 -4.802e-03 -2.287e-02 1.106e-03
5 1 -2.631e-03 5.196e+00 -1.809e+00 -1.662e-03 -5.089e-04 -5.418e-03
6 1 -4.907e-03 -5.267e+00 -1.808e+00 1.173e-03 8.688e-03 -5.104e-03
7 1 -5.042e-03 -5.262e+00 1.711e+00 1.281e-03 5.531e-03 3.035e-03
8 1 1.757e+00 5.211e+00 -4.783e-02 -8.895e-04 -6.148e-03 -2.825e-03
9 1 1.759e+00 -5.273e+00 -4.932e-02 -6.098e-05 3.585e-03 -5.993e-04
10 1 5.306e+00 -3.243e-02 1.710e+00 5.504e-03 -4.651e-03 2.203e-03
11 1 5.306e+00 -2.901e-02 -1.809e+00 4.863e-03 -3.854e-03 -5.657e-03
12 1 5.306e+00 1.728e+00 -5.213e-02 2.767e-03 -2.840e-03 -3.692e-04
13 1 5.304e+00 -1.783e+00 -4.897e-02 9.438e-03 -6.679e-03 -9.035e-04
14 1 -1.751e+00 1.700e+00 -3.632e-02 3.589e-03 -2.889e-02 -1.617e-02
15 1 -1.760e+00 -1.738e+00 3.468e+00 2.282e-03 6.264e-03 3.054e-03
16 1 -1.758e+00 5.198e+00 -4.846e-02 -6.836e-03 -5.146e-03 -2.698e-03
17 1 -1.765e+00 -5.260e+00 -4.966e-02 -6.323e-05 5.714e-03 -1.114e-03
18 1 3.533e+00 3.473e+00 -4.883e-02 -3.831e-03 -1.106e-02 -2.013e-03
19 1 3.526e+00 -3.528e+00 -5.012e-02 2.630e-04 1.084e-03 -8.497e-04
20 1 -1.756e+00 -1.739e+00 -4.516e-02 1.519e-02 5.821e-03 -7.037e-03
21 1 -1.752e+00 3.427e+00 1.711e+00 -1.241e-02 -1.036e-02 -4.370e-03
22 1 1.755e+00 3.454e+00 1.711e+00 -2.030e-03 -9.638e-03 -5.509e-03
23 1 -1.773e+00 -3.499e+00 1.712e+00 5.186e-03 1.662e-02 -1.835e-03
24 1 -1.770e+00 -3.489e+00 -1.809e+00 5.524e-03 6.801e-03 -9.611e-04
25 1 -1.766e+00 3.430e+00 -1.810e+00 -1.221e-04 -1.418e-02 -8.326e-04
26 1 1.755e+00 3.453e+00 -1.810e+00 -1.869e-03 -1.071e-02 -1.265e-03
27 1 1.761e+00 -3.519e+00 1.709e+00 -6.869e-03 1.050e-02 -3.024e-03
28 1 1.753e+00 -3.510e+00 -1.807e+00 -2.152e-04 3.721e-03 -2.398e-04
29 1 3.553e+00 1.728e+00 1.711e+00 -9.252e-03 -5.380e-03 -2.947e-03
30 1 3.536e+00 1.727e+00 -1.810e+00 8.144e-03 -6.263e-03 -2.827e-03
31 1 3.533e+00 -1.776e+00 1.712e+00 1.072e-02 -6.653e-03 -1.249e-03
32 1 3.537e+00 -1.779e+00 -1.808e+00 9.631e-03 -8.027e-03 -9.870e-04
33 1 1.767e+00 1.718e+00 3.461e+00 -2.513e-04 -1.370e-02 5.582e-03
34 1 -1.592e-03 -1.837e-03 -2.111e-03 -1.123e-02 1.650e+00 1.681e+00
35 1 -1.266e-04 -2.493e-04 3.422e+00 1.137e-02 -3.280e-02 4.956e-02
36 1 3.544e+00 -2.563e-02 3.470e+00 4.570e-03 -6.145e-03 -2.485e-03
37 1 -5.602e-03 3.431e+00 3.458e+00 -5.012e-03 -1.438e-02 1.225e-02
38 1 1.762e+00 -1.763e+00 3.472e+00 7.782e-03 -5.925e-03 -1.382e-03
39 1 1.767e+00 1.717e+00 -3.921e-02 -3.373e-03 -2.358e-02 -1.054e-02
40 1 -8.517e-03 -3.504e+00 3.479e+00 3.380e-04 2.287e-02 -1.086e-02
41 1 1.784e+00 -1.515e-02 1.709e+00 1.022e-02 -1.758e-02 -6.312e-03
42 1 1.760e+00 -1.764e+00 -4.964e-02 2.110e-03 5.578e-03 -1.955e-03
43 1 -1.734e-03 -1.770e+00 1.711e+00 -8.920e-03 5.503e-02 -2.969e-02
44 1 -1.697e-02 -1.717e+00 -1.809e+00 5.311e-03 -5.973e-04 2.783e-02
45 1 -1.557e-02 1.679e+00 -1.809e+00 2.951e-03 -2.937e-02 2.503e-02
46 1 -8.009e-03 3.428e+00 -3.652e-02 -2.743e-03 1.238e-02 -1.453e-02
47 1 3.542e+00 -2.597e-02 -4.960e-02 1.913e-02 -8.620e-03 -6.747e-04
48 1 1.774e+00 -1.914e-02 -1.809e+00 1.929e-02 -1.273e-02 2.363e-03
49 1 -1.088e-02 -3.503e+00 -5.753e-02 1.839e-03 -5.438e-03 5.691e-03
ITEM: TIMESTEP
0
ITEM: NUMBER OF ATOMS
49
ITEM: BOX BOUNDS xy xz yz pp pp pp
                     0.00000000000000e+00 1.06200000000000e+01 0.00000000000000e+00
0.00000000000000e+00	1.06200000000000e+01	0.00000000000000e+00
0.00000000000000e+00	1.06200000000000e+01	0.00000000000000e+00
ITEM: ATOMS id type x y z DisplacementX DisplacementY DisplacementZ
50 1 -3.520e+00 -3.505e+00 4.924e-02 9.673e-03 1.227e-02 2.137e-03
51 1 -3.512e+00 3.442e+00 4.485e-02 1.641e-04 -1.353e-02 7.776e-03
52 1 -1.749e+00 1.697e+00 -3.457e+00 -8.324e-03 -2.958e-02 -8.647e-03
53 1 -2.415e-03 5.218e+00 -1.709e+00 -4.886e-03 -1.993e-02 -9.245e-04
54 1 -2.940e-03 5.196e+00 1.810e+00 -3.489e-03 -1.582e-03 4.840e-03
55 1 -4.429e-03 -5.269e+00 1.810e+00 7.725e-04 9.342e-03 5.611e-03
56 1 -4.730e-03 -5.263e+00 -1.712e+00 -9.538e-05 2.239e-03 -2.394e-03
57 1 1.759e+00 5.213e+00 5.161e-02 7.955e-04 -6.758e-03 1.321e-03
58 1 1.758e+00 -5.274e+00 5.176e-02 5.755e-04 3.970e-03 1.392e-04
59 1 5.308e+00 -2.933e-02 -1.712e+00 6.164e-03 -4.002e-03 2.887e-04
60 1 5.308e+00 -2.961e-02 1.809e+00 7.634e-03 -5.183e-03 5.002e-03
61 1 5.309e+00 1.726e+00 5.264e-02 3.983e-03 -2.628e-03 9.320e-04
62 1 5.301e+00 -1.784e+00 4.790e-02 7.898e-03 -7.190e-03 1.619e-03
63 1 -1.749e+00 1.698e+00 3.803e-02 2.896e-03 -2.966e-02 1.768e-02
64 1 -1.758e+00 -1.740e+00 -3.464e+00 1.466e-03 4.636e-03 -1.339e-03
65 1 -1.757e+00 5.196e+00 4.924e-02 -5.654e-03 -7.011e-03 4.247e-03
66 1 -1.764e+00 -5.258e+00 4.984e-02 1.348e-03 5.486e-03 6.945e-04
67 1 3.531e+00 3.472e+00 4.911e-02 -4.701e-03 -9.978e-03 3.295e-03
68 1 3.529e+00 -3.529e+00 4.836e-02 8.532e-04 2.288e-03 2.472e-03
69 1 -1.759e+00 -1.740e+00 4.375e-02 1.385e-02 3.540e-03 8.010e-03
70 1 -1.753e+00 3.427e+00 -1.710e+00 -1.358e-02 -1.134e-02 2.648e-03
71 1 1.754e+00 3.452e+00 -1.710e+00 -4.486e-04 -9.690e-03 2.659e-03
72 1 -1.774e+00 -3.497e+00 -1.711e+00 6.066e-03 1.551e-02 4.100e-03
73 1 -1.774e+00 -3.490e+00 1.810e+00 4.204e-03 7.208e-03 -9.908e-04
74 1 -1.767e+00 3.430e+00 1.807e+00 2.828e-04 -1.303e-02 9.531e-05
75 1 1.755e+00 3.453e+00 1.808e+00 -7.781e-04 -9.887e-03 -4.236e-04
76 1 1.761e+00 -3.522e+00 -1.710e+00 -7.270e-03 1.209e-02 5.628e-03
77 1 1.754e+00 -3.510e+00 1.811e+00 -1.774e-03 1.742e-03 -1.029e-03
78 1 3.554e+00 1.728e+00 -1.712e+00 -8.999e-03 -8.429e-03 2.477e-04
79 1 3.535e+00 1.727e+00 1.810e+00 8.170e-03 -5.653e-03 1.287e-03
80 1 3.537e+00 -1.778e+00 -1.712e+00 9.741e-03 -6.218e-03 3.456e-03
81 1 3.535e+00 -1.776e+00 1.810e+00 8.976e-03 -5.208e-03 -1.796e-06
82 1 1.767e+00 1.718e+00 -3.462e+00 1.586e-03 -1.416e-02 -6.021e-03
83 1 -8.336e-04 8.600e-04 -6.923e-04 -1.288e-02 1.650e+00 -1.679e+00
84 1 4.970e-04 -4.734e-04 -3.422e+00 1.406e-02 -3.277e-02 -4.717e-02
85 1 3.542e+00 -2.657e-02 -3.472e+00 6.050e-03 -6.167e-03 3.285e-03
86 1 -4.985e-03 3.429e+00 -3.457e+00 -4.471e-03 -1.417e-02 -1.166e-02
87 1 1.761e+00 -1.765e+00 -3.472e+00 5.651e-03 -5.581e-03 3.190e-03
88 1 1.765e+00 1.717e+00 4.132e-02 -3.547e-03 -2.245e-02 1.030e-02
89 1 -9.021e-03 -3.504e+00 -3.480e+00 -1.047e-03 2.171e-02 8.888e-03
90 1 1.782e+00 -1.531e-02 -1.711e+00 9.573e-03 -1.667e-02 5.703e-03
91 1 1.761e+00 -1.764e+00 5.038e-02 -3.174e-04 6.984e-03 6.113e-04
92 1 -1.518e-03 -1.769e+00 -1.712e+00 -7.681e-03 5.494e-02 2.911e-02
93 1 -1.555e-02 -1.715e+00 1.808e+00 6.312e-03 -4.345e-04 -2.701e-02
94 1 -1.680e-02 1.681e+00 1.809e+00 5.487e-03 -2.894e-02 -2.537e-02
95 1 -5.913e-03 3.431e+00 3.487e-02 -2.569e-03 1.087e-02 1.420e-02
96 1 3.542e+00 -2.536e-02 4.861e-02 2.038e-02 -7.351e-03 1.570e-03
97 1 1.774e+00 -1.950e-02 1.810e+00 1.738e-02 -1.237e-02 -3.112e-03
98 1 -9.969e-03 -3.504e+00 5.590e-02 -6.944e-05 -5.295e-03 -6.968e-03
ITEM: TIMESTEP
0
ITEM: NUMBER OF ATOMS
53
ITEM: BOX BOUNDS xy xz yz pp pp pp
                     0.00000000000000e+00 1.06200000000000e+01 0.00000000000000e+00
0.00000000000000e+00	1.06200000000000e+01	0.00000000000000e+00
0.00000000000000e+00	1.06200000000000e+01	0.00000000000000e+00
ITEM: ATOMS id type x y z DisplacementX DisplacementY DisplacementZ
99 1 -1.753e+00 -5.170e+00 -8.112e-03 -6.838e-03 -1.348e-02 -5.232e-03
100 1 -5.232e+00 1.779e+00 -1.272e-02 -4.689e-03 7.192e-03 -3.072e-03
101 1 -1.732e+00 5.316e+00 -1.219e-02 1.089e-03 5.434e-03 -8.834e-04
102 1 4.531e-03 -5.200e+00 1.748e+00 -6.194e-03 2.029e-02 9.133e-04
103 1 -1.061e-02 -5.146e+00 -1.774e+00 9.450e-03 -3.437e-02 -3.097e-03
104 1 5.312e+00 5.406e-02 1.747e+00 -7.172e-04 6.438e-04 -1.143e-03
105 1 5.309e+00 5.205e-02 -1.774e+00 2.666e-03 4.371e-03 -2.981e-03
106 1 2.032e-02 5.311e+00 -1.773e+00 8.218e-04 2.917e-03 -4.021e-03
107 1 2.203e-02 5.310e+00 1.745e+00 7.936e-04 4.027e-03 3.485e-04
108 1 1.768e+00 -5.191e+00 -1.470e-02 7.556e-03 -7.426e-03 -1.530e-04
109 1 5.312e+00 -1.703e+00 -1.577e-02 -1.792e-06 2.006e-03 -5.068e-05
110 1 5.303e+00 1.804e+00 -1.449e-02 3.577e-03 5.797e-03 -5.761e-04
111 1 1.778e+00 5.310e+00 -1.378e-02 2.380e-03 4.938e-03 -1.555e-04
112 1 -3.488e+00 3.545e+00 -1.482e-02 4.211e-03 3.130e-03 -2.741e-03
113 1 -1.744e+00 -1.732e+00 -3.208e-03 2.334e-02 3.759e-02 -1.360e-02
114 1 -1.745e+00 -1.733e+00 3.495e+00 2.267e-04 7.675e-03 8.352e-03
115 1 -3.509e+00 1.078e-02 3.501e+00 8.047e-03 1.284e-02 1.178e-04
116 1 3.550e+00 -3.456e+00 -1.451e-02 -6.280e-03 6.359e-03 -2.102e-03
117 1 3.535e+00 3.552e+00 -1.614e-02 8.404e-04 4.784e-03 -3.242e-03
118 1 -3.508e+00 1.124e-02 -1.037e-02 -1.915e-02 6.752e-03 -4.857e-03
119 1 6.354e-03 -3.430e+00 3.456e+00 1.682e-03 -1.429e-02 4.810e-02
120 1 -3.503e+00 1.768e+00 1.746e+00 -3.035e-03 8.468e-03 -4.952e-03
121 1 -3.507e+00 1.766e+00 -1.774e+00 6.487e-04 6.277e-03 2.097e-03
122 1 -1.742e+00 3.541e+00 1.747e+00 5.294e-03 -2.418e-04 -2.235e-03
123 1 -1.740e+00 3.539e+00 -1.774e+00 4.291e-03 2.936e-03 2.138e-03
124 1 1.789e+00 -3.446e+00 1.745e+00 -3.184e-03 -3.451e-03 -3.994e-03
125 1 3.561e+00 -1.701e+00 1.747e+00 -1.686e-02 4.858e-03 -2.487e-03
126 1 3.543e+00 -1.706e+00 -1.777e+00 -1.469e-04 7.582e-03 1.058e-03
127 1 3.530e+00 1.791e+00 1.745e+00 5.122e-03 6.818e-03 -1.982e-03
128 1 3.532e+00 1.793e+00 -1.773e+00 1.982e-03 6.367e-03 -1.084e-03
129 1 1.773e+00 3.548e+00 1.747e+00 6.944e-04 2.393e-03 -2.799e-03
130 1 1.770e+00 3.544e+00 -1.775e+00 2.133e-03 2.769e-03 1.005e-03
131 1 1.771e+00 -1.714e+00 3.498e+00 1.632e-03 1.015e-02 6.155e-03
132 1 3.539e+00 4.444e-02 3.506e+00 -6.840e-03 8.321e-03 -2.182e-03
133 1 1.062e-02 3.542e+00 3.509e+00 2.951e-03 -4.717e-03 -3.758e-03
134 1 1.780e+00 -3.449e+00 -1.775e+00 5.296e-03 1.727e-04 2.248e-03
135 1 6.129e-03 -3.430e+00 3.514e-02 -3.286e-03 -3.253e-02 -4.889e-02
136 1 1.761e+00 2.072e-02 1.746e+00 1.725e-03 1.637e-02 -1.221e-02
137 1 1.765e+00 1.782e+00 3.506e+00 3.776e-03 6.806e-03 -1.472e-03
138 1 1.773e+00 -1.713e+00 -5.043e-03 -9.007e-03 1.964e-02 -9.707e-03
139 1 -1.747e+00 -3.704e-03 1.747e+00 -4.455e-03 2.574e-02 -1.171e-02
140 1 1.760e+00 2.328e-02 -1.774e+00 2.545e-03 1.605e-02 9.980e-03
141 1 6.453e-03 1.787e+00 1.747e+00 4.129e-03 -1.424e-02 -1.584e-02
142 1 3.626e-03 1.767e+00 -1.773e+00 3.280e-03 5.727e-03 1.470e-02
143 1 1.765e+00 1.780e+00 -1.369e-02 -9.776e-04 3.398e-03 -1.652e-03
144 1 3.754e-04 2.974e-03 -5.938e-05 6.763e-03 -1.711e+00 1.733e+00
145 1 -5.503e-04 1.263e-03 3.493e+00 4.360e-03 2.922e-02 1.291e-02
146 1 -1.751e+00 1.765e+00 3.505e+00 2.432e-03 1.013e-02 -7.213e-04
147 1 -9.289e-03 -1.751e+00 -1.774e+00 1.306e-02 3.716e-02 9.903e-03
148 1 -1.760e+00 2.456e-03 -1.773e+00 7.479e-03 1.809e-02 8.148e-03
149 1 3.540e+00 4.422e-02 -1.472e-02 1.374e-02 5.989e-03 -2.739e-03
150 1 1.186e-02 3.543e+00 -1.512e-02 1.547e-03 1.612e-02 1.187e-03
151 1 -1.753e+00 1.767e+00 -1.380e-02 9.326e-03 -4.055e-03 -2.148e-03
