ITEM: TIMESTEP
0
ITEM: NUMBER OF ATOMS
49
ITEM: BOX BOUNDS xy xz yz pp pp pp
                     0.00000000000000e+00 1.06200000000000e+01 0.00000000000000e+00
0.00000000000000e+00	1.06200000000000e+01	0.00000000000000e+00
0.00000000000000e+00	1.06200000000000e+01	0.00000000000000e+00
ITEM: ATOMS id type x y z DisplacementX DisplacementY DisplacementZ
1 1 -3.519e+00 -3.504e+00 -4.900e-02 8.052e-03 1.233e-02 -1.493e-03
2 1 -3.513e+00 3.442e+00 -4.455e-02 1.546e-03 -1.398e-02 -6.641e-03
3 1 -1.752e+00 1.700e+00 3.458e+00 -6.006e-03 -3.006e-02 1.034e-02
4 1 -1.555e-03 5.215e+00 1.710e+00 -2.347e-03 -2.024e-02 3.091e-03
5 1 -5.245e-03 5.196e+00 -1.810e+00 -4.397e-03 -1.167e-03 -4.951e-03
6 1 -2.998e-03 -5.266e+00 -1.809e+00 2.997e-04 7.245e-03 -5.865e-03
7 1 -2.280e-03 -5.262e+00 1.711e+00 -6.703e-04 2.604e-03 1.791e-03
8 1 1.760e+00 5.212e+00 -4.875e-02 -3.090e-04 -5.550e-03 -1.058e-03
9 1 1.760e+00 -5.274e+00 -4.997e-02 3.126e-04 2.323e-03 -1.833e-03
10 1 5.309e+00 -2.892e-02 1.711e+00 4.920e-03 -3.940e-03 5.875e-04
11 1 5.306e+00 -2.987e-02 -1.808e+00 6.291e-03 -5.213e-03 -4.567e-03
12 1 5.307e+00 1.729e+00 -5.142e-02 2.483e-03 -3.614e-03 -1.910e-05
13 1 5.304e+00 -1.785e+00 -4.957e-02 8.817e-03 -5.615e-03 -2.813e-03
14 1 -1.751e+00 1.699e+00 -3.752e-02 2.655e-03 -2.919e-02 -1.649e-02
15 1 -1.758e+00 -1.739e+00 3.465e+00 1.650e-03 6.502e-03 4.088e-03
16 1 -1.757e+00 5.195e+00 -4.815e-02 -6.785e-03 -6.477e-03 -1.207e-03
17 1 -1.765e+00 -5.260e+00 -4.961e-02 1.073e-03 5.274e-03 -1.075e-03
18 1 3.532e+00 3.473e+00 -4.966e-02 -4.419e-03 -1.050e-02 -2.092e-03
19 1 3.528e+00 -3.528e+00 -5.053e-02 -7.524e-04 7.996e-04 -1.137e-03
20 1 -1.757e+00 -1.738e+00 -4.372e-02 1.434e-02 4.529e-03 -6.178e-03
21 1 -1.750e+00 3.427e+00 1.712e+00 -1.298e-02 -1.112e-02 -4.775e-03
22 1 1.756e+00 3.453e+00 1.711e+00 -5.398e-05 -9.148e-03 -4.749e-03
23 1 -1.774e+00 -3.497e+00 1.711e+00 5.391e-03 1.421e-02 -4.147e-03
24 1 -1.770e+00 -3.488e+00 -1.811e+00 5.370e-03 5.689e-03 2.223e-04
25 1 -1.768e+00 3.431e+00 -1.810e+00 -1.699e-03 -1.131e-02 -7.690e-04
26 1 1.755e+00 3.454e+00 -1.808e+00 -2.167e-03 -1.017e-02 -3.209e-05
27 1 1.760e+00 -3.516e+00 1.710e+00 -6.778e-03 1.168e-02 -3.728e-03
28 1 1.753e+00 -3.511e+00 -1.810e+00 -1.781e-03 4.059e-03 1.463e-03
29 1 3.553e+00 1.727e+00 1.712e+00 -9.086e-03 -8.248e-03 -1.896e-03
30 1 3.537e+00 1.724e+00 -1.809e+00 7.848e-03 -3.968e-03 -2.872e-03
31 1 3.535e+00 -1.778e+00 1.712e+00 1.000e-02 -5.422e-03 -3.173e-03
32 1 3.536e+00 -1.777e+00 -1.809e+00 7.500e-03 -7.447e-03 -7.389e-04
33 1 1.767e+00 1.718e+00 3.463e+00 1.331e-03 -1.330e-02 5.434e-03
34 1 9.036e-05 -5.777e-04 5.742e-04 -1.189e-02 1.651e+00 1.679e+00
35 1 4.964e-04 -4.411e-04 3.423e+00 1.380e-02 -3.264e-02 4.629e-02
36 1 3.545e+00 -2.631e-02 3.472e+00 6.010e-03 -8.649e-03 -1.958e-03
37 1 -5.102e-03 3.430e+00 3.456e+00 -4.444e-03 -1.549e-02 1.152e-02
38 1 1.764e+00 -1.764e+00 3.472e+00 6.697e-03 -5.343e-03 -1.844e-03
39 1 1.769e+00 1.718e+00 -4.118e-02 -3.818e-03 -2.465e-02 -9.669e-03
40 1 -1.006e-02 -3.503e+00 3.477e+00 7.404e-04 2.155e-02 -9.786e-03
41 1 1.783e+00 -1.316e-02 1.712e+00 1.114e-02 -1.600e-02 -6.851e-03
42 1 1.762e+00 -1.764e+00 -5.116e-02 9.090e-04 7.017e-03 6.607e-04
43 1 -2.075e-03 -1.771e+00 1.710e+00 -9.212e-03 5.316e-02 -2.788e-02
44 1 -1.737e-02 -1.714e+00 -1.809e+00 8.085e-03 -4.207e-04 2.698e-02
45 1 -1.391e-02 1.680e+00 -1.810e+00 2.147e-03 -2.990e-02 2.477e-02
46 1 -5.095e-03 3.431e+00 -3.558e-02 -4.384e-03 1.240e-02 -1.375e-02
47 1 3.544e+00 -2.565e-02 -5.004e-02 2.039e-02 -6.868e-03 -9.662e-04
48 1 1.774e+00 -2.076e-02 -1.810e+00 1.957e-02 -1.177e-02 2.856e-03
49 1 -1.037e-02 -3.503e+00 -5.850e-02 1.585e-03 -4.792e-03 6.987e-03
ITEM: TIMESTEP
0
ITEM: NUMBER OF ATOMS
49
ITEM: BOX BOUNDS xy xz yz pp pp pp
                     0.00000000000000e+00 1.06200000000000e+01 0.00000000000000e+00
0.00000000000000e+00	1.06200000000000e+01	0.00000000000000e+00
0.00000000000000e+00	1.06200000000000e+01	0.00000000000000e+00
ITEM: ATOMS id type x y z DisplacementX DisplacementY DisplacementZ
50 1 -3.521e+00 -3.503e+00 4.892e-02 8.162e-03 1.461e-02 2.131e-03
51 1 -3.513e+00 3.442e+00 4.578e-02 -2.310e-04 -1.554e-02 6.384e-03
52 1 -1.750e+00 1.698e+00 -3.459e+00 -5.083e-03 -2.969e-02 -1.010e-02
53 1 -2.269e-03 5.216e+00 -1.714e+00 -3.730e-03 -2.406e-02 -1.783e-03
54 1 -3.307e-03 5.194e+00 1.809e+00 -1.067e-03 -1.682e-03 5.880e-03
55 1 -4.035e-03 -5.267e+00 1.810e+00 -1.410e-03 9.746e-03 4.056e-03
56 1 -3.829e-03 -5.264e+00 -1.710e+00 4.052e-04 3.652e-03 4.184e-05
57 1 1.758e+00 5.211e+00 4.987e-02 -1.985e-03 -5.550e-03 4.506e-04
58 1 1.759e+00 -5.275e+00 5.150e-02 -5.734e-04 2.060e-03 -2.425e-04
59 1 5.307e+00 -3.102e-02 -1.711e+00 6.290e-03 -3.363e-03 -6.691e-04
60 1 5.306e+00 -2.679e-02 1.809e+00 8.483e-03 -4.858e-03 5.326e-03
61 1 5.307e+00 1.727e+00 5.126e-02 4.198e-03 -3.282e-03 1.122e-03
62 1 5.302e+00 -1.785e+00 4.648e-02 1.127e-02 -6.561e-03 2.449e-03
63 1 -1.751e+00 1.697e+00 3.673e-02 3.026e-03 -3.019e-02 1.527e-02
64 1 -1.760e+00 -1.739e+00 -3.466e+00 2.184e-03 7.796e-03 -3.411e-03
65 1 -1.756e+00 5.196e+00 4.924e-02 -6.587e-03 -5.543e-03 8.864e-04
66 1 -1.763e+00 -5.261e+00 5.149e-02 1.074e-03 6.542e-03 8.466e-04
67 1 3.532e+00 3.475e+00 4.844e-02 -4.590e-03 -1.028e-02 5.495e-04
68 1 3.527e+00 -3.530e+00 5.083e-02 -5.978e-04 4.803e-05 2.391e-04
69 1 -1.759e+00 -1.737e+00 4.281e-02 1.421e-02 5.365e-03 7.425e-03
70 1 -1.753e+00 3.429e+00 -1.711e+00 -1.322e-02 -9.787e-03 4.602e-03
71 1 1.754e+00 3.451e+00 -1.711e+00 -1.054e-03 -8.499e-03 5.749e-03
72 1 -1.773e+00 -3.499e+00 -1.713e+00 7.748e-03 1.804e-02 5.028e-03
73 1 -1.769e+00 -3.488e+00 1.810e+00 4.399e-03 8.018e-03 -2.084e-03
74 1 -1.768e+00 3.428e+00 1.808e+00 -2.660e-05 -1.265e-02 3.463e-04
75 1 1.755e+00 3.453e+00 1.810e+00 -9.456e-04 -1.097e-02 8.451e-04
76 1 1.762e+00 -3.521e+00 -1.712e+00 -4.819e-03 1.089e-02 4.931e-03
77 1 1.752e+00 -3.511e+00 1.811e+00 1.540e-03 2.778e-03 2.126e-04
78 1 3.554e+00 1.728e+00 -1.710e+00 -8.465e-03 -9.797e-03 3.600e-03
79 1 3.537e+00 1.725e+00 1.807e+00 5.811e-03 -6.927e-03 3.997e-03
80 1 3.535e+00 -1.778e+00 -1.713e+00 9.504e-03 -6.139e-03 2.267e-03
81 1 3.533e+00 -1.778e+00 1.809e+00 8.096e-03 -6.220e-03 1.716e-03
82 1 1.766e+00 1.718e+00 -3.461e+00 -7.168e-04 -1.456e-02 -4.847e-03
83 1 5.000e-05 -2.522e-04 3.198e-04 -1.043e-02 1.650e+00 -1.681e+00
84 1 -3.776e-04 -6.452e-04 -3.423e+00 1.198e-02 -3.162e-02 -4.719e-02
85 1 3.542e+00 -2.587e-02 -3.471e+00 6.034e-03 -6.722e-03 3.506e-03
86 1 -6.406e-03 3.431e+00 -3.457e+00 -5.890e-03 -1.489e-02 -1.308e-02
87 1 1.762e+00 -1.764e+00 -3.472e+00 6.208e-03 -6.276e-03 3.293e-03
88 1 1.767e+00 1.717e+00 4.014e-02 -4.891e-03 -2.555e-02 1.031e-02
89 1 -9.104e-03 -3.503e+00 -3.478e+00 2.151e-03 2.204e-02 8.404e-03
90 1 1.783e+00 -1.542e-02 -1.710e+00 9.980e-03 -1.827e-02 6.103e-03
91 1 1.762e+00 -1.764e+00 4.869e-02 5.256e-04 5.295e-03 -6.306e-04
92 1 -2.050e-03 -1.770e+00 -1.710e+00 -1.054e-02 5.430e-02 2.892e-02
93 1 -1.606e-02 -1.716e+00 1.808e+00 5.469e-03 -2.331e-03 -2.510e-02
94 1 -1.673e-02 1.681e+00 1.809e+00 4.140e-03 -2.892e-02 -2.533e-02
95 1 -4.426e-03 3.430e+00 3.414e-02 -5.411e-03 1.199e-02 1.621e-02
96 1 3.544e+00 -2.683e-02 4.853e-02 2.064e-02 -7.729e-03 -3.251e-04
97 1 1.773e+00 -1.895e-02 1.810e+00 1.947e-02 -1.168e-02 -1.846e-03
98 1 -1.093e-02 -3.503e+00 5.756e-02 1.664e-03 -6.054e-03 -6.577e-03
ITEM: TIMESTEP
0
ITEM: NUMBER OF ATOMS
53
ITEM: BOX BOUNDS xy xz yz pp pp pp
                     0.00000000000000e+00 1.06200000000000e+01 0.00000000000000e+00
0.00000000000000e+00	1.06200000000000e+01	0.00000000000000e+00
0.00000000000000e+00	1.06200000000000e+01	0.00000000000000e+00
ITEM: ATOMS id type x y z DisplacementX DisplacementY DisplacementZ
99 1 -1.753e+00 -5.169e+00 -1.022e-02 -7.749e-03 -1.415e-02 -9.413e-03
100 1 -5.232e+00 1.778e+00 -1.204e-02 -3.702e-03 9.123e-03 -2.566e-03
101 1 -1.733e+00 5.312e+00 -1.626e-02 1.037e-04 3.106e-03 3.057e-04
102 1 4.302e-03 -5.202e+00 1.747e+00 -7.004e-03 1.970e-02 5.006e-04
103 1 -1.141e-02 -5.144e+00 -1.772e+00 8.137e-03 -3.531e-02 -4.797e-03
104 1 5.308e+00 5.270e-02 1.748e+00 -1.527e-03 2.225e-03 1.795e-03
105 1 5.307e+00 5.196e-02 -1.773e+00 7.236e-04 4.793e-03 -4.464e-03
106 1 2.032e-02 5.311e+00 -1.774e+00 1.996e-03 6.000e-03 -3.937e-03
107 1 2.273e-02 5.311e+00 1.746e+00 2.166e-03 5.682e-03 -8.129e-05
108 1 1.769e+00 -5.195e+00 -1.464e-02 3.525e-03 -7.566e-03 2.803e-04
109 1 5.314e+00 -1.705e+00 -1.703e-02 5.479e-04 2.151e-04 -5.214e-04
110 1 5.303e+00 1.805e+00 -1.294e-02 3.563e-03 6.390e-03 -2.342e-03
111 1 1.780e+00 5.311e+00 -1.537e-02 1.738e-03 4.758e-03 1.043e-03
112 1 -3.486e+00 3.544e+00 -1.418e-02 2.452e-03 1.801e-03 -5.001e-04
113 1 -1.743e+00 -1.731e+00 -6.032e-04 2.460e-02 3.665e-02 -1.182e-02
114 1 -1.745e+00 -1.731e+00 3.494e+00 -1.048e-03 7.677e-03 8.618e-03
115 1 -3.507e+00 1.165e-02 3.502e+00 7.512e-03 1.465e-02 5.286e-04
116 1 3.548e+00 -3.457e+00 -1.476e-02 -6.386e-03 7.261e-03 -7.227e-04
117 1 3.532e+00 3.553e+00 -1.415e-02 -2.735e-04 3.766e-03 -1.539e-04
118 1 -3.508e+00 1.046e-02 -1.083e-02 -1.978e-02 5.623e-03 -7.034e-03
119 1 8.009e-03 -3.429e+00 3.456e+00 5.313e-04 -1.357e-02 4.819e-02
120 1 -3.503e+00 1.765e+00 1.748e+00 -1.266e-03 7.532e-03 -5.108e-03
121 1 -3.508e+00 1.765e+00 -1.773e+00 3.105e-04 7.140e-03 8.279e-04
122 1 -1.742e+00 3.543e+00 1.746e+00 4.074e-03 -2.231e-03 -5.343e-03
123 1 -1.743e+00 3.537e+00 -1.774e+00 2.068e-03 3.274e-03 8.854e-05
124 1 1.788e+00 -3.447e+00 1.746e+00 -4.515e-03 -5.164e-03 -2.593e-03
125 1 3.560e+00 -1.703e+00 1.745e+00 -1.542e-02 5.208e-03 -4.450e-03
126 1 3.544e+00 -1.704e+00 -1.774e+00 8.504e-04 7.947e-03 -2.372e-06
127 1 3.531e+00 1.794e+00 1.746e+00 4.839e-03 9.050e-03 -2.373e-03
128 1 3.531e+00 1.795e+00 -1.774e+00 3.422e-03 5.944e-03 1.461e-03
129 1 1.772e+00 3.548e+00 1.746e+00 -8.048e-05 -8.710e-04 -2.532e-03
130 1 1.772e+00 3.545e+00 -1.771e+00 2.885e-03 5.421e-03 -1.476e-03
131 1 1.773e+00 -1.713e+00 3.497e+00 1.364e-03 1.029e-02 8.054e-03
132 1 3.539e+00 4.342e-02 3.507e+00 -4.513e-03 6.182e-03 -1.828e-03
133 1 1.158e-02 3.543e+00 3.509e+00 1.469e-03 -5.105e-03 -5.174e-03
134 1 1.780e+00 -3.451e+00 -1.773e+00 4.456e-03 9.021e-05 2.719e-03
135 1 4.273e-03 -3.429e+00 3.517e-02 -5.322e-03 -3.231e-02 -5.188e-02
136 1 1.759e+00 2.106e-02 1.747e+00 2.582e-03 1.769e-02 -1.413e-02
137 1 1.764e+00 1.781e+00 3.507e+00 3.078e-03 7.613e-03 -2.790e-03
138 1 1.772e+00 -1.714e+00 -5.414e-03 -1.260e-02 1.914e-02 -1.034e-02
139 1 -1.747e+00 -2.555e-03 1.747e+00 -2.650e-03 2.471e-02 -1.189e-02
140 1 1.761e+00 2.314e-02 -1.773e+00 7.373e-04 1.601e-02 1.099e-02
141 1 4.895e-03 1.787e+00 1.745e+00 2.085e-03 -1.455e-02 -1.925e-02
142 1 3.223e-03 1.765e+00 -1.775e+00 5.750e-03 5.525e-03 1.719e-02
143 1 1.764e+00 1.783e+00 -1.387e-02 -6.235e-05 2.907e-03 -1.452e-03
144 1 3.886e-04 -1.769e-03 2.026e-04 6.145e-03 -1.712e+00 1.733e+00
145 1 -1.499e-04 7.086e-05 3.493e+00 2.842e-03 2.713e-02 1.207e-02
146 1 -1.751e+00 1.764e+00 3.506e+00 2.681e-03 8.234e-03 3.463e-04
147 1 -7.957e-03 -1.750e+00 -1.775e+00 1.112e-02 3.900e-02 1.001e-02
148 1 -1.760e+00 1.227e-03 -1.773e+00 8.039e-03 2.049e-02 6.264e-03
149 1 3.537e+00 4.289e-02 -1.581e-02 1.117e-02 5.718e-03 -6.021e-04
150 1 1.248e-02 3.542e+00 -1.534e-02 1.011e-03 1.374e-02 -2.388e-04
151 1 -1.752e+00 1.764e+00 -1.249e-02 7.269e-03 -4.613e-03 -1.933e-03
