ITEM: TIMESTEP
0
ITEM: NUMBER OF ATOMS
49
ITEM: BOX BOUNDS xy xz yz pp pp pp
                     0.00000000000000e+00 1.06200000000000e+01 0.00000000000000e+00
0.00000000000000e+00	1.06200000000000e+01	0.00000000000000e+00
0.00000000000000e+00	1.06200000000000e+01	0.00000000000000e+00
ITEM: ATOMS id type x y z DisplacementX DisplacementY DisplacementZ
1 1 -3.531e+00 -3.500e+00 -5.134e-02 9.821e-03 2.230e-03 4.003e-03
2 1 -3.513e+00 3.433e+00 -4.302e-02 2.479e-02 -1.678e-02 -4.866e-03
3 1 -1.761e+00 1.705e+00 3.449e+00 -1.927e-02 -1.518e-02 5.103e-03
4 1 -1.260e-02 5.199e+00 1.696e+00 -1.231e-03 -1.691e-03 2.673e-03
5 1 -7.058e-03 5.195e+00 -1.797e+00 -2.086e-02 -2.571e-04 -2.408e-04
6 1 -6.981e-03 -5.270e+00 -1.810e+00 -2.356e-02 6.987e-03 -6.479e-03
7 1 -1.335e-03 -5.262e+00 1.707e+00 3.786e-03 9.025e-04 5.524e-03
8 1 1.753e+00 5.220e+00 -6.425e-02 1.931e-02 1.190e-02 -5.590e-03
9 1 1.772e+00 -5.273e+00 -4.929e-02 -1.818e-03 6.699e-03 9.756e-03
10 1 5.284e+00 -2.209e-02 1.698e+00 2.207e-02 -2.510e-03 -4.771e-03
11 1 5.302e+00 -3.687e-02 -1.815e+00 -2.854e-03 -3.446e-03 -5.180e-03
12 1 5.296e+00 1.731e+00 -3.419e-02 2.797e-03 2.365e-02 -2.922e-03
13 1 5.304e+00 -1.775e+00 -5.793e-02 1.226e-02 -6.462e-03 2.225e-03
14 1 -1.752e+00 1.688e+00 -3.777e-02 2.671e-02 -2.690e-02 -1.918e-02
15 1 -1.750e+00 -1.754e+00 3.457e+00 -2.446e-02 -4.808e-04 -7.564e-05
16 1 -1.750e+00 5.189e+00 -4.802e-02 -2.416e-03 -1.967e-03 2.896e-03
17 1 -1.766e+00 -5.255e+00 -3.489e-02 2.679e-02 2.464e-02 -8.214e-03
18 1 3.526e+00 3.469e+00 -4.788e-02 -1.429e-02 -1.143e-02 2.669e-05
19 1 3.523e+00 -3.530e+00 -5.181e-02 -1.610e-02 8.976e-03 5.578e-03
20 1 -1.753e+00 -1.740e+00 -4.588e-02 -5.875e-04 8.672e-03 -1.152e-02
21 1 -1.734e+00 3.429e+00 1.718e+00 -1.446e-02 -1.386e-02 -1.111e-02
22 1 1.760e+00 3.441e+00 1.722e+00 2.721e-03 5.419e-03 -5.086e-03
23 1 -1.783e+00 -3.498e+00 1.703e+00 7.237e-03 3.224e-02 -2.240e-04
24 1 -1.756e+00 -3.488e+00 -1.800e+00 -5.315e-03 2.691e-02 1.098e-02
25 1 -1.775e+00 3.432e+00 -1.807e+00 -1.119e-03 -1.666e-04 1.370e-02
26 1 1.755e+00 3.461e+00 -1.791e+00 -1.945e-02 8.377e-04 5.959e-03
27 1 1.756e+00 -3.494e+00 1.724e+00 -5.673e-03 2.042e-02 -4.075e-03
28 1 1.747e+00 -3.508e+00 -1.818e+00 2.078e-02 2.664e-02 4.174e-03
29 1 3.559e+00 1.715e+00 1.708e+00 -1.362e-02 -1.226e-02 8.559e-03
30 1 3.535e+00 1.721e+00 -1.791e+00 1.598e-02 -8.391e-03 -3.007e-02
31 1 3.518e+00 -1.797e+00 1.709e+00 3.553e-03 -2.837e-03 7.745e-03
32 1 3.529e+00 -1.765e+00 -1.803e+00 2.815e-03 3.140e-04 9.343e-03
33 1 1.773e+00 1.721e+00 3.459e+00 6.501e-03 -1.137e-03 2.190e-02
34 1 -1.944e-02 -9.447e-03 -1.063e-03 -5.491e-03 1.638e+00 1.679e+00
35 1 3.516e-03 1.670e-02 3.430e+00 9.018e-03 -2.894e-02 5.570e-02
36 1 3.550e+00 -3.222e-02 3.482e+00 -3.548e-03 1.748e-03 -2.866e-03
37 1 -2.816e-02 3.419e+00 3.468e+00 -1.712e-02 -1.408e-02 -1.837e-03
38 1 1.758e+00 -1.763e+00 3.477e+00 1.355e-02 -2.932e-03 -3.655e-03
39 1 1.751e+00 1.710e+00 -3.475e-02 2.064e-02 -2.530e-02 1.676e-03
40 1 -5.693e-03 -3.493e+00 3.499e+00 2.795e-03 3.408e-02 -1.497e-02
41 1 1.781e+00 -7.043e-03 1.712e+00 2.273e-02 -1.365e-02 -1.466e-02
42 1 1.767e+00 -1.761e+00 -4.635e-02 2.104e-03 8.286e-03 5.102e-03
43 1 -8.174e-03 -1.763e+00 1.716e+00 -1.953e-03 6.350e-02 -3.770e-02
44 1 -2.476e-02 -1.725e+00 -1.807e+00 1.434e-02 7.861e-03 1.739e-02
45 1 -1.376e-02 1.681e+00 -1.816e+00 -7.395e-03 -4.615e-02 3.302e-02
46 1 6.812e-03 3.421e+00 -4.172e-02 -1.025e-02 9.972e-03 -1.947e-02
47 1 3.547e+00 -4.726e-02 -5.301e-02 1.224e-02 3.704e-03 3.748e-03
48 1 1.774e+00 -1.739e-02 -1.815e+00 1.009e-03 -1.536e-02 8.594e-03
49 1 -2.030e-02 -3.488e+00 -5.051e-02 -7.800e-03 -1.834e-02 2.357e-02
ITEM: TIMESTEP
0
ITEM: NUMBER OF ATOMS
49
ITEM: BOX BOUNDS xy xz yz pp pp pp
                     0.00000000000000e+00 1.06200000000000e+01 0.00000000000000e+00
0.00000000000000e+00	1.06200000000000e+01	0.00000000000000e+00
0.00000000000000e+00	1.06200000000000e+01	0.00000000000000e+00
ITEM: ATOMS id type x y z DisplacementX DisplacementY DisplacementZ
50 1 -3.515e+00 -3.515e+00 6.228e-02 -2.732e-03 -5.337e-04 -1.469e-03
51 1 -3.527e+00 3.440e+00 4.756e-02 9.018e-03 -1.088e-02 1.196e-02
52 1 -1.736e+00 1.710e+00 -3.467e+00 -7.409e-03 -5.228e-02 -8.124e-03
53 1 -1.233e-02 5.208e+00 -1.720e+00 8.098e-03 -8.253e-03 -1.423e-02
54 1 -1.752e-02 5.199e+00 1.811e+00 -1.272e-02 1.004e-02 7.028e-03
55 1 -3.909e-03 -5.267e+00 1.804e+00 8.627e-03 6.622e-03 -7.477e-04
56 1 -4.654e-03 -5.262e+00 -1.707e+00 -5.251e-03 1.402e-02 -1.062e-02
57 1 1.753e+00 5.213e+00 7.152e-02 1.903e-03 -1.352e-02 2.235e-02
58 1 1.751e+00 -5.254e+00 4.736e-02 -6.273e-03 -1.951e-03 -1.363e-02
59 1 5.305e+00 -3.082e-02 -1.705e+00 1.949e-03 5.967e-04 3.701e-03
60 1 5.310e+00 -3.126e-02 1.801e+00 1.109e-02 1.687e-02 -2.579e-03
61 1 5.287e+00 1.730e+00 4.473e-02 1.100e-02 -2.201e-03 -8.092e-03
62 1 5.309e+00 -1.787e+00 5.010e-02 1.651e-02 -1.571e-02 -5.137e-03
63 1 -1.739e+00 1.709e+00 2.570e-02 -3.811e-03 -2.575e-02 2.190e-02
64 1 -1.754e+00 -1.743e+00 -3.467e+00 -4.028e-03 4.676e-03 1.086e-03
65 1 -1.748e+00 5.189e+00 5.561e-02 -8.755e-04 -1.398e-02 1.863e-02
66 1 -1.769e+00 -5.242e+00 7.618e-02 1.772e-03 4.106e-03 4.759e-03
67 1 3.532e+00 3.470e+00 5.319e-02 -9.644e-03 -1.363e-02 6.247e-03
68 1 3.523e+00 -3.542e+00 4.211e-02 1.046e-02 -2.236e-02 8.670e-04
69 1 -1.743e+00 -1.729e+00 5.164e-02 2.798e-02 3.195e-03 1.639e-02
70 1 -1.774e+00 3.428e+00 -1.700e+00 -1.538e-02 -5.160e-03 1.994e-03
71 1 1.759e+00 3.446e+00 -1.713e+00 1.044e-02 3.588e-03 1.206e-02
72 1 -1.767e+00 -3.492e+00 -1.714e+00 2.937e-02 2.521e-02 -4.973e-03
73 1 -1.767e+00 -3.516e+00 1.813e+00 5.799e-03 -4.632e-03 -5.603e-03
74 1 -1.777e+00 3.429e+00 1.795e+00 -6.734e-04 -1.366e-02 5.508e-03
75 1 1.744e+00 3.448e+00 1.794e+00 1.620e-02 -2.677e-02 2.302e-03
76 1 1.756e+00 -3.508e+00 -1.725e+00 -3.789e-03 1.681e-02 3.720e-03
77 1 1.748e+00 -3.513e+00 1.802e+00 -7.314e-03 -9.226e-03 -2.251e-03
78 1 3.560e+00 1.734e+00 -1.707e+00 -1.928e-02 -1.769e-02 -7.127e-03
79 1 3.562e+00 1.719e+00 1.797e+00 4.831e-03 1.179e-02 -1.016e-02
80 1 3.516e+00 -1.767e+00 -1.715e+00 2.212e-02 -8.249e-03 1.236e-02
81 1 3.551e+00 -1.773e+00 1.798e+00 1.016e-02 9.857e-03 -3.433e-03
82 1 1.768e+00 1.742e+00 -3.448e+00 5.007e-03 -2.152e-02 -2.734e-03
83 1 -1.141e-02 -6.183e-03 -5.586e-03 -1.746e-02 1.638e+00 -1.685e+00
84 1 2.154e-03 -1.376e-02 -3.427e+00 1.009e-02 -2.142e-02 -5.107e-02
85 1 3.548e+00 -2.487e-02 -3.472e+00 3.050e-02 -6.616e-03 -9.056e-03
86 1 -1.021e-02 3.443e+00 -3.445e+00 -1.119e-02 9.259e-03 -2.503e-03
87 1 1.759e+00 -1.770e+00 -3.464e+00 6.426e-03 1.064e-03 2.989e-03
88 1 1.770e+00 1.711e+00 4.590e-02 -2.419e-02 -1.733e-02 9.802e-03
89 1 -2.033e-02 -3.492e+00 -3.475e+00 -1.420e-03 1.783e-02 9.421e-03
90 1 1.781e+00 -1.197e-02 -1.711e+00 1.664e-02 -1.393e-02 1.708e-02
91 1 1.756e+00 -1.764e+00 4.856e-02 1.497e-02 2.276e-03 -5.306e-04
92 1 -2.466e-03 -1.762e+00 -1.705e+00 -2.153e-02 5.973e-02 1.789e-02
93 1 -2.707e-02 -1.714e+00 1.805e+00 -5.782e-04 1.701e-02 -2.219e-02
94 1 -3.377e-02 1.694e+00 1.806e+00 -5.289e-03 -3.217e-02 -2.796e-02
95 1 6.832e-03 3.430e+00 4.641e-02 -1.920e-03 1.487e-02 3.684e-02
96 1 3.524e+00 -1.009e-02 5.003e-02 3.031e-02 6.037e-04 -9.170e-03
97 1 1.757e+00 -1.072e-03 1.808e+00 3.534e-02 -1.735e-02 3.182e-02
98 1 -1.144e-02 -3.502e+00 6.161e-02 2.401e-03 4.019e-03 -1.461e-02
ITEM: TIMESTEP
0
ITEM: NUMBER OF ATOMS
53
ITEM: BOX BOUNDS xy xz yz pp pp pp
                     0.00000000000000e+00 1.06200000000000e+01 0.00000000000000e+00
0.00000000000000e+00	1.06200000000000e+01	0.00000000000000e+00
0.00000000000000e+00	1.06200000000000e+01	0.00000000000000e+00
ITEM: ATOMS id type x y z DisplacementX DisplacementY DisplacementZ
99 1 -1.761e+00 -5.190e+00 -1.869e-02 -1.464e-02 -4.363e-03 -3.360e-02
100 1 -5.225e+00 1.792e+00 -1.895e-02 -1.049e-03 5.718e-04 1.139e-02
101 1 -1.724e+00 5.322e+00 -1.964e-02 -8.531e-03 2.217e-02 -8.328e-03
102 1 5.068e-03 -5.213e+00 1.756e+00 -4.852e-03 3.352e-02 -7.187e-03
103 1 -2.155e-02 -5.149e+00 -1.773e+00 2.657e-02 -2.186e-02 -6.270e-03
104 1 5.310e+00 6.203e-02 1.740e+00 -9.283e-03 -2.002e-03 5.804e-03
105 1 5.328e+00 5.536e-02 -1.774e+00 7.549e-03 1.232e-02 -1.885e-02
106 1 1.222e-02 5.330e+00 -1.789e+00 -1.136e-02 3.792e-03 -7.105e-03
107 1 1.238e-02 5.314e+00 1.747e+00 -9.354e-03 6.249e-03 -4.300e-03
108 1 1.766e+00 -5.197e+00 -1.619e-02 1.917e-02 -5.181e-03 8.865e-03
109 1 5.310e+00 -1.704e+00 -2.069e-02 8.743e-03 1.726e-04 -8.642e-03
110 1 5.324e+00 1.811e+00 -1.996e-02 3.454e-03 2.360e-03 5.434e-03
111 1 1.770e+00 5.301e+00 -4.338e-03 2.186e-03 -8.481e-03 -3.386e-03
112 1 -3.494e+00 3.549e+00 -2.685e-02 6.602e-03 9.161e-03 7.383e-03
113 1 -1.738e+00 -1.739e+00 -1.869e-02 2.379e-02 3.234e-02 -2.486e-03
114 1 -1.718e+00 -1.727e+00 3.502e+00 -8.016e-03 -5.771e-03 1.648e-02
115 1 -3.500e+00 -4.841e-03 3.515e+00 2.097e-02 2.458e-02 -1.179e-04
116 1 3.548e+00 -3.462e+00 3.241e-04 -2.520e-02 1.414e-02 1.650e-02
117 1 3.531e+00 3.572e+00 -1.747e-02 8.279e-04 -1.419e-02 -6.496e-03
118 1 -3.498e+00 9.495e-03 -2.372e-02 -1.291e-02 7.179e-03 -1.295e-02
119 1 1.010e-02 -3.444e+00 3.445e+00 8.802e-03 -6.756e-03 4.709e-02
120 1 -3.487e+00 1.763e+00 1.745e+00 -1.258e-02 1.401e-02 -8.173e-03
121 1 -3.494e+00 1.772e+00 -1.766e+00 1.550e-02 9.459e-03 -9.866e-04
122 1 -1.760e+00 3.527e+00 1.741e+00 2.668e-02 2.564e-03 9.397e-03
123 1 -1.741e+00 3.534e+00 -1.768e+00 2.295e-03 -6.166e-03 8.777e-03
124 1 1.773e+00 -3.442e+00 1.730e+00 -8.036e-03 -2.245e-02 -3.344e-03
125 1 3.546e+00 -1.682e+00 1.754e+00 -1.234e-02 -3.564e-03 -1.674e-02
126 1 3.553e+00 -1.707e+00 -1.776e+00 -1.896e-02 1.121e-03 -7.789e-03
127 1 3.540e+00 1.792e+00 1.751e+00 6.230e-03 1.430e-02 -8.911e-04
128 1 3.536e+00 1.782e+00 -1.783e+00 1.384e-02 3.916e-03 9.507e-03
129 1 1.765e+00 3.528e+00 1.742e+00 -5.962e-03 6.423e-03 6.920e-03
130 1 1.752e+00 3.549e+00 -1.783e+00 1.243e-02 -8.792e-04 -3.927e-03
131 1 1.773e+00 -1.739e+00 3.498e+00 4.265e-03 1.949e-02 3.838e-02
132 1 3.529e+00 4.594e-02 3.516e+00 -1.736e-02 -1.086e-03 -5.501e-04
133 1 5.578e-03 3.542e+00 3.517e+00 -1.275e-02 1.448e-02 -2.598e-03
134 1 1.778e+00 -3.461e+00 -1.752e+00 4.329e-03 1.348e-03 -1.168e-02
135 1 5.802e-03 -3.433e+00 2.476e-02 -2.289e-03 -3.855e-02 -5.055e-02
136 1 1.748e+00 1.614e-02 1.739e+00 5.686e-03 1.765e-02 5.020e-03
137 1 1.751e+00 1.788e+00 3.517e+00 -1.027e-02 2.840e-03 1.152e-02
138 1 1.789e+00 -1.715e+00 -1.770e-03 -1.476e-02 2.522e-02 -2.322e-03
139 1 -1.763e+00 8.634e-03 1.741e+00 1.198e-02 4.207e-02 5.978e-03
140 1 1.770e+00 2.058e-02 -1.778e+00 5.502e-03 1.354e-02 -1.256e-02
141 1 1.554e-02 1.789e+00 1.752e+00 5.530e-03 -9.742e-03 -3.304e-02
142 1 -4.797e-03 1.768e+00 -1.775e+00 1.860e-02 1.270e-02 -2.020e-04
143 1 1.763e+00 1.772e+00 -1.851e-02 -2.805e-02 2.033e-02 -7.093e-03
144 1 1.923e-02 -1.259e-02 3.286e-04 7.824e-03 -1.696e+00 1.745e+00
145 1 1.064e-02 -2.076e-03 3.490e+00 2.734e-02 1.647e-02 1.789e-02
146 1 -1.752e+00 1.771e+00 3.511e+00 -8.458e-03 2.113e-02 1.123e-02
147 1 -8.912e-03 -1.764e+00 -1.767e+00 2.500e-03 2.802e-02 1.101e-02
148 1 -1.751e+00 -6.388e-03 -1.762e+00 2.518e-02 1.300e-02 1.408e-02
149 1 3.552e+00 4.519e-02 -3.943e-02 7.440e-03 2.328e-02 -3.545e-03
150 1 2.138e-02 3.539e+00 -2.015e-02 -1.421e-02 5.540e-03 -7.920e-03
151 1 -1.759e+00 1.766e+00 -2.715e-02 1.368e-02 -9.516e-03 -5.059e-03
ITEM: TIMESTEP
0
ITEM: NUMBER OF ATOMS
53
ITEM: BOX BOUNDS xy xz yz pp pp pp
                     0.00000000000000e+00 1.06200000000000e+01 0.00000000000000e+00
0.00000000000000e+00	1.06200000000000e+01	0.00000000000000e+00
0.00000000000000e+00	1.06200000000000e+01	0.00000000000000e+00
ITEM: ATOMS id type x y z DisplacementX DisplacementY DisplacementZ
152 1 -1.771e+00 -5.156e+00 5.191e-03 -1.231e-02 -1.823e-02 1.072e-04
153 1 -5.233e+00 1.792e+00 1.144e-02 7.529e-03 8.328e-03 2.370e-03
154 1 -1.733e+00 5.316e+00 1.205e-02 3.872e-03 -1.188e-02 2.789e-03
155 1 -6.003e-03 -5.184e+00 -1.744e+00 3.090e-03 1.892e-02 1.022e-03
156 1 -1.719e-02 -5.153e+00 1.766e+00 -1.397e-03 -3.395e-02 -1.146e-02
157 1 5.307e+00 4.925e-02 -1.749e+00 -2.600e-02 1.171e-02 1.600e-03
158 1 5.306e+00 5.503e-02 1.769e+00 2.320e-02 2.072e-03 -4.496e-03
159 1 1.524e-02 5.311e+00 1.769e+00 9.207e-03 -4.552e-03 4.105e-03
160 1 2.233e-02 5.299e+00 -1.759e+00 1.728e-02 4.443e-03 2.137e-03
161 1 1.776e+00 -5.185e+00 1.632e-02 -5.149e-03 4.362e-03 -6.129e-03
162 1 5.314e+00 -1.691e+00 6.396e-03 -2.087e-02 -1.166e-02 -8.132e-03
163 1 5.293e+00 1.813e+00 1.440e-02 -7.266e-03 -4.128e-04 -6.244e-03
164 1 1.771e+00 5.302e+00 4.669e-03 3.726e-03 9.638e-03 1.155e-02
165 1 -3.487e+00 3.538e+00 -8.010e-03 5.079e-03 -4.182e-03 -1.011e-02
166 1 -1.739e+00 -1.742e+00 -6.018e-03 1.602e-02 3.355e-02 1.304e-02
167 1 -1.753e+00 -1.729e+00 -3.495e+00 -3.971e-03 1.014e-02 -1.275e-02
168 1 -3.500e+00 2.871e-02 -3.497e+00 4.805e-03 2.634e-02 -1.818e-02
169 1 3.546e+00 -3.456e+00 1.382e-02 -1.320e-02 4.835e-03 -2.675e-03
170 1 3.539e+00 3.545e+00 9.616e-03 3.269e-03 2.170e-03 -1.060e-02
171 1 -3.523e+00 -1.903e-03 1.799e-02 -2.832e-02 -5.172e-03 4.514e-03
172 1 1.640e-02 -3.419e+00 -3.450e+00 8.473e-03 -8.769e-04 -2.657e-02
173 1 -3.486e+00 1.777e+00 -1.751e+00 -1.200e-02 1.511e-02 3.542e-03
174 1 -3.516e+00 1.748e+00 1.772e+00 6.795e-03 1.037e-02 -4.720e-03
175 1 -1.739e+00 3.565e+00 -1.755e+00 -7.613e-03 -4.284e-03 2.842e-03
176 1 -1.742e+00 3.535e+00 1.761e+00 1.438e-02 -9.752e-03 -5.375e-03
177 1 1.767e+00 -3.440e+00 -1.738e+00 -1.389e-02 -1.899e-02 -9.996e-03
178 1 3.563e+00 -1.690e+00 -1.754e+00 -1.821e-02 4.504e-03 -1.468e-02
179 1 3.541e+00 -1.710e+00 1.777e+00 5.346e-05 5.304e-03 1.124e-02
180 1 3.522e+00 1.800e+00 -1.754e+00 -6.778e-03 2.310e-02 -5.693e-03
181 1 3.550e+00 1.790e+00 1.753e+00 7.015e-03 2.378e-02 3.001e-02
182 1 1.781e+00 3.556e+00 -1.755e+00 1.077e-02 4.499e-03 3.440e-03
183 1 1.763e+00 3.545e+00 1.777e+00 3.656e-04 8.294e-03 1.860e-02
184 1 1.772e+00 -1.710e+00 -3.501e+00 1.063e-02 8.003e-03 1.133e-02
185 1 3.559e+00 2.750e-02 -3.504e+00 -1.232e-03 -9.079e-03 9.694e-03
186 1 5.408e-03 3.547e+00 -3.516e+00 -1.601e-03 8.403e-03 4.529e-03
187 1 1.783e+00 -3.466e+00 1.795e+00 -7.656e-03 -4.344e-03 1.106e-02
188 1 6.274e-03 -3.433e+00 -4.339e-02 2.970e-03 -1.686e-02 7.175e-02
189 1 1.751e+00 1.544e-02 -1.758e+00 1.225e-02 1.532e-02 1.852e-02
190 1 1.739e+00 1.763e+00 -3.520e+00 5.905e-03 3.444e-02 -9.103e-03
191 1 1.763e+00 -1.699e+00 8.280e-03 -1.077e-02 5.527e-03 3.048e-04
192 1 -1.751e+00 -1.145e-02 -1.742e+00 -6.794e-03 2.706e-02 1.987e-02
193 1 1.768e+00 3.550e-02 1.761e+00 5.896e-03 3.001e-02 -6.005e-03
194 1 -1.200e-02 1.801e+00 -1.747e+00 9.085e-04 -1.645e-02 1.854e-02
195 1 1.291e-02 1.751e+00 1.782e+00 1.176e-02 5.110e-03 -1.769e-02
196 1 1.760e+00 1.778e+00 3.292e-03 -1.484e-03 1.241e-02 -1.239e-02
197 1 -6.363e-03 5.969e-03 -6.278e-03 2.045e-03 -1.703e+00 -1.742e+00
198 1 6.359e-03 8.167e-03 -3.483e+00 2.391e-02 6.706e-03 -4.747e-03
199 1 -1.728e+00 1.753e+00 -3.498e+00 1.258e-02 1.661e-02 4.763e-03
200 1 -1.093e-03 -1.733e+00 1.776e+00 9.098e-03 2.423e-02 -1.979e-02
201 1 -1.757e+00 1.260e-04 1.782e+00 2.820e-02 1.813e-02 -1.691e-02
202 1 3.530e+00 4.860e-02 2.355e-02 -8.826e-04 4.099e-03 -1.430e-02
203 1 1.703e-02 3.556e+00 1.164e-02 -2.617e-03 1.153e-02 7.571e-03
204 1 -1.744e+00 1.770e+00 1.364e-02 1.196e-02 7.370e-03 -8.603e-03
ITEM: TIMESTEP
0
ITEM: NUMBER OF ATOMS
61
ITEM: BOX BOUNDS xy xz yz pp pp pp
                     0.00000000000000e+00 1.06200000000000e+01 0.00000000000000e+00
0.00000000000000e+00	1.06200000000000e+01	0.00000000000000e+00
0.00000000000000e+00	1.06200000000000e+01	0.00000000000000e+00
ITEM: ATOMS id type x y z DisplacementX DisplacementY DisplacementZ
205 1 -5.275e+00 -9.653e-03 1.756e+00 -7.172e-03 3.675e-04 8.539e-03
206 1 5.092e-03 -5.319e+00 1.776e+00 2.482e-03 -3.368e-04 -1.899e-02
207 1 6.323e-03 -5.317e+00 -1.758e+00 -9.608e-03 -5.143e-03 4.840e-03
208 1 -5.278e+00 -1.860e-02 -1.746e+00 2.454e-03 7.888e-03 -1.287e-02
209 1 2.044e-04 5.274e+00 1.764e+00 -1.502e-02 -2.166e-02 4.225e-03
210 1 -1.394e-02 5.256e+00 -1.751e+00 -6.476e-03 -8.799e-03 4.710e-03
211 1 5.242e+00 -5.060e-03 1.764e+00 -1.376e-03 -1.144e-02 3.827e-03
212 1 5.250e+00 -2.697e-04 -1.764e+00 4.594e-03 -7.158e-03 -1.202e-02
213 1 5.281e+00 1.770e+00 -5.782e-04 -1.234e-03 -7.022e-03 7.315e-03
214 1 1.743e+00 5.288e+00 -4.733e-03 9.709e-03 -1.757e-02 -1.380e-03
215 1 3.493e+00 3.500e+00 -2.593e-03 1.262e-02 -1.143e-02 -5.508e-03
216 1 -5.290e+00 -1.778e+00 1.590e-02 7.492e-03 -1.912e-02 -1.488e-04
217 1 -1.743e+00 -5.306e+00 -5.436e-03 -1.938e-02 -9.551e-03 2.128e-02
218 1 -5.272e+00 1.739e+00 1.120e-02 -9.882e-03 -8.823e-03 1.741e-02
219 1 1.759e+00 -5.310e+00 -1.195e-03 1.280e-03 -1.000e-02 1.062e-02
220 1 -1.762e+00 5.283e+00 -2.117e-02 -2.071e-02 3.331e-03 -1.200e-02
221 1 5.254e+00 -1.771e+00 3.801e-03 -1.735e-02 -1.433e-02 2.435e-03
222 1 -3.520e+00 -3.524e+00 1.132e-02 -1.168e-02 1.737e-02 -2.148e-02
223 1 3.505e+00 -3.530e+00 -1.089e-03 -3.007e-02 4.713e-03 1.666e-02
224 1 -3.537e+00 3.521e+00 -6.897e-03 -1.253e-02 -1.538e-03 -6.057e-03
225 1 3.488e+00 1.735e+00 -1.741e+00 1.014e-02 3.734e-03 -1.081e-02
226 1 3.477e+00 1.764e+00 1.755e+00 1.332e-02 -1.895e-02 2.308e-02
227 1 1.741e+00 3.501e+00 -1.758e+00 -1.777e-02 1.564e-02 -6.049e-03
228 1 1.744e+00 3.485e+00 1.753e+00 1.888e-03 -1.468e-03 3.366e-02
229 1 -1.764e+00 3.514e+00 -1.772e+00 -6.375e-03 -1.923e-05 -8.440e-03
230 1 -1.764e+00 3.520e+00 1.760e+00 -3.222e-03 -2.088e-02 -1.594e-02
231 1 3.535e+00 -1.753e+00 -1.743e+00 -3.130e-03 -3.760e-03 3.657e-03
232 1 3.497e+00 -1.782e+00 1.753e+00 -4.536e-03 -8.750e-03 1.343e-02
233 1 -3.516e+00 -1.769e+00 1.760e+00 6.760e-03 -2.772e-02 9.010e-03
234 1 -1.760e+00 -3.526e+00 -1.755e+00 -5.744e-03 -8.332e-03 1.168e-02
235 1 -1.762e+00 -3.561e+00 1.771e+00 3.073e-03 -1.010e-02 -1.342e-02
236 1 -3.510e+00 -1.771e+00 -1.750e+00 -1.182e-03 1.654e-03 6.526e-03
237 1 -3.528e+00 1.750e+00 1.763e+00 4.383e-03 -5.314e-03 9.783e-03
238 1 1.757e+00 -3.536e+00 1.771e+00 -1.245e-02 -1.672e-02 -1.350e-02
239 1 1.761e+00 -3.529e+00 -1.749e+00 6.986e-03 1.282e-02 7.583e-03
240 1 -3.543e+00 1.762e+00 -1.764e+00 -1.497e-02 -1.979e-02 8.369e-03
241 1 -3.523e+00 -8.788e-03 -3.522e+00 3.933e-03 -9.983e-03 -1.072e-03
242 1 -1.428e-02 -3.533e+00 -3.520e+00 -5.239e-03 9.878e-03 7.895e-03
243 1 -1.326e-02 3.495e+00 -3.518e+00 -1.725e-02 -1.634e-02 -6.899e-03
244 1 3.491e+00 3.533e-03 -3.508e+00 -1.445e-02 -1.931e-02 -5.879e-03
245 1 -1.760e-03 -2.493e-03 -9.519e-03 1.727e+00 1.719e+00 -5.101e-03
246 1 -1.759e+00 1.759e+00 -3.516e+00 -1.792e-02 -1.520e-02 1.288e-02
247 1 1.745e+00 -1.750e+00 -3.517e+00 -3.479e-03 -7.040e-03 -8.964e-03
248 1 -1.780e+00 -1.775e+00 -3.524e+00 -3.573e-04 -2.242e-02 -8.151e-03
249 1 1.002e-02 1.745e+00 1.740e+00 -3.982e-03 -2.678e-02 2.817e-03
250 1 -1.231e-02 1.762e+00 -1.769e+00 -1.212e-02 -6.367e-03 1.050e-02
251 1 1.736e+00 -1.023e-02 1.733e+00 -6.121e-03 1.729e-03 6.417e-03
252 1 1.764e+00 -4.070e-03 -1.733e+00 -2.987e-02 -1.827e-02 9.844e-03
253 1 7.316e-03 3.508e+00 -6.066e-03 -1.182e-02 1.958e-02 1.642e-03
254 1 3.513e+00 -1.831e-02 -2.364e-02 8.264e-03 -2.153e-03 -4.656e-04
255 1 1.720e+00 1.773e+00 -3.530e+00 -3.269e-02 -6.265e-03 -1.205e-02
256 1 5.027e-03 -1.217e-02 -3.530e+00 6.389e-03 -1.281e-02 4.208e-03
257 1 -1.773e+00 -4.453e-03 -1.755e+00 -8.623e-03 -1.307e-03 3.466e-02
258 1 -1.777e+00 7.272e-03 1.759e+00 4.620e-03 -3.543e-03 -4.510e-03
259 1 5.164e-03 -1.755e+00 1.767e+00 -4.423e-03 1.933e-03 -3.010e-02
260 1 -2.491e-03 -1.754e+00 -1.784e+00 -2.210e-02 1.051e-02 2.407e-02
261 1 -3.535e+00 -6.772e-03 5.084e-03 -1.628e-02 -1.107e-03 -1.922e-02
262 1 -1.146e-02 -3.531e+00 1.645e-02 -8.131e-03 -1.737e-02 2.872e-04
263 1 -1.752e+00 -1.767e+00 7.839e-03 -5.151e-03 -9.362e-03 6.064e-03
264 1 -1.787e+00 1.747e+00 -1.661e-03 1.973e-02 8.200e-04 2.118e-02
265 1 1.737e+00 -1.786e+00 7.836e-03 -2.076e-02 1.711e-02 1.132e-03
ITEM: TIMESTEP
0
ITEM: NUMBER OF ATOMS
61
ITEM: BOX BOUNDS xy xz yz pp pp pp
                     0.00000000000000e+00 1.06200000000000e+01 0.00000000000000e+00
0.00000000000000e+00	1.06200000000000e+01	0.00000000000000e+00
0.00000000000000e+00	1.06200000000000e+01	0.00000000000000e+00
ITEM: ATOMS id type x y z DisplacementX DisplacementY DisplacementZ
266 1 2.431e-02 5.252e+00 -1.778e+00 9.287e-03 9.107e-03 -1.841e-02
267 1 5.292e+00 -1.911e-02 1.736e+00 -6.704e-05 -1.669e-04 -5.336e-03
268 1 -5.261e+00 -2.480e-02 1.747e+00 8.688e-03 -1.242e-03 -6.278e-03
269 1 -5.286e+00 -2.468e-02 -1.785e+00 -1.221e-02 3.312e-03 8.926e-03
270 1 5.265e+00 -1.354e-02 -1.771e+00 7.711e-03 -6.372e-04 -3.272e-03
271 1 8.788e-03 -5.309e+00 -1.758e+00 -1.531e-02 -4.895e-04 6.303e-03
272 1 1.351e-02 -5.317e+00 1.749e+00 -2.014e-03 -1.675e-03 -1.984e-02
273 1 7.423e-03 5.292e+00 1.739e+00 1.428e-02 -2.467e-02 3.319e-03
274 1 5.275e+00 1.753e+00 -3.443e-02 7.286e-03 -8.867e-03 -2.041e-04
275 1 -5.269e+00 1.754e+00 -1.314e-02 -7.517e-04 -2.075e-02 -1.139e-02
276 1 1.767e+00 -5.301e+00 2.830e-05 4.631e-03 4.555e-03 8.705e-03
277 1 -1.764e+00 -5.300e+00 -7.732e-03 -1.208e-02 6.425e-03 5.630e-03
278 1 5.275e+00 -1.767e+00 -6.720e-03 1.645e-02 -1.360e-02 -3.449e-03
279 1 -5.267e+00 -1.787e+00 -2.285e-02 -1.614e-02 4.103e-03 9.791e-03
280 1 1.755e+00 5.272e+00 -4.474e-03 9.011e-03 7.178e-03 1.236e-02
281 1 -1.747e+00 5.275e+00 -1.282e-02 4.732e-03 1.760e-02 8.117e-04
282 1 -3.516e+00 -3.543e+00 -9.804e-03 -5.982e-03 -5.647e-03 -2.906e-03
283 1 3.501e+00 -3.535e+00 -3.696e-03 4.726e-03 3.709e-03 -2.200e-02
284 1 -3.504e+00 3.510e+00 -1.607e-02 1.237e-02 1.005e-02 4.711e-03
285 1 3.514e+00 3.513e+00 -1.462e-02 3.754e-03 -4.453e-03 -7.871e-03
286 1 1.735e+00 3.509e+00 1.735e+00 1.490e-03 1.960e-02 -2.077e-02
287 1 -1.730e+00 3.491e+00 1.761e+00 -1.044e-02 2.743e-03 -5.481e-03
288 1 8.477e-03 3.491e+00 3.497e+00 -2.609e-03 -2.234e-03 3.311e-02
289 1 1.750e+00 3.496e+00 -1.772e+00 5.069e-03 -6.425e-03 1.434e-02
290 1 -1.750e+00 3.505e+00 -1.753e+00 4.631e-04 9.022e-03 8.698e-03
291 1 1.764e+00 -3.547e+00 -1.761e+00 1.295e-02 -1.710e-02 -6.408e-03
292 1 -1.749e+00 -3.556e+00 -1.761e+00 8.824e-03 2.863e-02 1.149e-02
293 1 1.759e+00 -3.549e+00 1.741e+00 2.823e-03 2.073e-03 6.512e-04
294 1 -1.760e+00 -3.544e+00 1.739e+00 -1.177e-04 1.269e-02 -1.708e-02
295 1 -3.526e+00 -1.768e+00 -1.791e+00 2.054e-03 -4.335e-03 4.470e-03
296 1 3.504e+00 -1.764e+00 -1.769e+00 -8.496e-03 -2.414e-03 1.215e-05
297 1 3.512e+00 -1.762e+00 1.755e+00 1.191e-04 -7.034e-03 5.300e-03
298 1 -3.510e+00 -1.769e+00 1.754e+00 -4.661e-03 -1.771e-02 -2.019e-02
299 1 -3.486e+00 1.765e+00 -1.773e+00 -1.641e-02 -1.872e-02 1.954e-03
300 1 3.499e+00 1.765e+00 -1.772e+00 -4.086e-03 -1.269e-02 -1.524e-02
301 1 3.541e+00 1.771e+00 1.746e+00 -4.029e-03 -1.178e-02 -7.004e-03
302 1 -3.528e+00 1.751e+00 1.752e+00 -1.428e-02 -8.470e-03 -2.025e-03
303 1 3.518e+00 -2.269e-03 3.496e+00 -1.088e-02 -1.264e-02 -9.467e-03
304 1 -3.486e+00 -2.771e-02 3.504e+00 7.158e-03 -5.437e-03 -6.175e-03
305 1 8.602e-03 -3.549e+00 3.510e+00 3.476e-03 4.307e-03 -3.431e-03
306 1 -1.751e+00 1.735e+00 3.508e+00 1.852e-03 -2.615e-04 2.287e-02
307 1 1.738e+00 1.763e+00 3.499e+00 -1.130e-02 -8.928e-03 2.881e-02
308 1 1.831e-03 -6.672e-03 8.703e-03 -1.119e-02 1.753e+00 1.729e+00
309 1 1.909e-04 -1.138e-02 3.486e+00 -3.643e-03 -1.064e-02 -1.686e-02
310 1 -1.755e+00 3.576e-04 1.742e+00 5.213e-03 -3.029e-02 -1.434e-02
311 1 1.749e+00 -7.367e-03 1.744e+00 -1.277e-02 -1.528e-02 -1.391e-02
312 1 -1.754e+00 -1.779e+00 3.509e+00 5.175e-03 3.306e-03 2.517e-02
313 1 1.768e+00 -1.744e+00 3.499e+00 2.500e-02 4.269e-03 -4.699e-03
314 1 -1.431e-02 3.490e+00 9.891e-03 -1.123e-03 1.436e-02 -1.915e-02
315 1 1.739e+00 1.760e+00 3.134e-03 7.165e-04 -2.765e-02 -1.932e-02
316 1 -1.768e+00 1.760e+00 1.016e-02 -1.332e-02 2.086e-03 -1.984e-02
317 1 2.180e-02 1.750e+00 -1.771e+00 1.030e-02 -8.107e-03 8.824e-03
318 1 1.757e+00 1.772e-03 -1.783e+00 -1.849e-02 1.288e-02 1.099e-02
319 1 -1.746e+00 -7.559e-03 -1.767e+00 1.608e-02 9.928e-03 1.339e-02
320 1 1.212e-02 -1.768e+00 -1.754e+00 -7.820e-03 2.267e-03 2.429e-02
321 1 4.403e-04 -1.780e+00 1.725e+00 1.004e-02 9.110e-03 -1.552e-02
322 1 3.501e+00 6.365e-03 -6.171e-03 9.216e-03 -4.404e-03 2.087e-02
323 1 -3.534e+00 -2.328e-02 -1.096e-02 -1.355e-02 -9.982e-03 1.211e-02
324 1 6.560e-03 -3.536e+00 -3.262e-03 -9.923e-03 4.316e-04 9.424e-03
325 1 1.746e+00 -1.770e+00 -3.234e-02 -1.850e-02 -8.917e-03 -2.018e-02
326 1 -1.756e+00 -1.769e+00 -3.491e-02 -1.007e-03 -9.033e-03 3.174e-03
ITEM: TIMESTEP
0
ITEM: NUMBER OF ATOMS
61
ITEM: BOX BOUNDS xy xz yz pp pp pp
                     0.00000000000000e+00 1.06200000000000e+01 0.00000000000000e+00
0.00000000000000e+00	1.06200000000000e+01	0.00000000000000e+00
0.00000000000000e+00	1.06200000000000e+01	0.00000000000000e+00
ITEM: ATOMS id type x y z DisplacementX DisplacementY DisplacementZ
327 1 5.245e+00 -1.589e-02 -1.768e+00 7.346e-03 -8.653e-03 -1.576e-02
328 1 -2.381e-03 -5.288e+00 1.732e+00 -8.227e-03 -4.742e-03 2.453e-03
329 1 -2.040e-02 5.304e+00 1.746e+00 -2.655e-02 -5.898e-04 5.398e-03
330 1 -7.215e-03 5.297e+00 -1.773e+00 -3.323e-03 -2.484e-02 3.550e-03
331 1 9.424e-04 -5.286e+00 -1.759e+00 1.936e-03 -1.306e-02 -4.741e-03
332 1 -5.290e+00 -8.966e-05 -1.772e+00 6.166e-03 -8.655e-03 -1.400e-02
333 1 -5.269e+00 -5.932e-03 1.743e+00 9.421e-03 2.270e-03 1.126e-02
334 1 5.271e+00 1.472e-02 1.740e+00 -2.506e-03 1.855e-03 6.526e-04
335 1 1.744e+00 -5.285e+00 -2.771e-02 -6.587e-03 -2.186e-03 6.581e-03
336 1 1.755e+00 5.295e+00 -1.363e-02 4.524e-05 1.559e-02 9.968e-04
337 1 -5.294e+00 -1.759e+00 -2.363e-03 -8.538e-03 3.359e-03 -9.408e-03
338 1 -5.299e+00 1.769e+00 -3.717e-02 4.138e-03 5.106e-03 -2.000e-03
339 1 -1.749e+00 -5.307e+00 -1.350e-02 -4.449e-03 -8.350e-03 -1.216e-02
340 1 -1.765e+00 5.272e+00 -1.192e-02 -3.139e-02 -1.368e-02 -7.989e-03
341 1 5.261e+00 -1.752e+00 -9.735e-03 -2.976e-04 -1.507e-02 -4.776e-03
342 1 5.260e+00 1.751e+00 -8.312e-03 -1.470e-03 6.529e-03 -3.396e-03
343 1 -3.536e+00 3.525e+00 1.702e-03 -7.166e-04 -2.656e-03 3.445e-03
344 1 -3.526e+00 -3.527e+00 -1.893e-02 -1.278e-02 -1.601e-02 2.410e-03
345 1 3.493e+00 3.506e+00 -2.271e-02 1.532e-03 -1.294e-02 -3.344e-03
346 1 3.496e+00 -3.508e+00 -1.189e-02 -6.008e-04 -8.279e-03 -1.650e-02
347 1 3.487e+00 -1.751e+00 1.746e+00 -6.157e-03 -1.165e-03 8.875e-04
348 1 3.502e+00 1.747e+00 1.758e+00 1.943e-03 7.943e-03 -2.281e-03
349 1 3.500e+00 3.387e-03 3.484e+00 9.026e-03 1.477e-02 1.687e-02
350 1 3.511e+00 -1.767e+00 -1.779e+00 -3.254e-03 8.984e-04 -2.506e-02
351 1 3.500e+00 1.745e+00 -1.753e+00 7.677e-03 1.180e-03 7.918e-03
352 1 -3.535e+00 -1.766e+00 -1.794e+00 -6.678e-03 -2.329e-03 1.706e-02
353 1 -3.527e+00 1.747e+00 -1.782e+00 2.958e-03 -2.581e-02 -5.875e-03
354 1 -3.531e+00 -1.747e+00 1.737e+00 7.144e-03 1.057e-02 4.055e-03
355 1 -3.543e+00 1.773e+00 1.749e+00 6.108e-03 1.511e-02 -7.857e-03
356 1 -1.775e+00 3.513e+00 -1.774e+00 -1.978e-02 8.288e-04 1.001e-02
357 1 -1.757e+00 -3.506e+00 -1.775e+00 2.064e-02 -1.263e-02 1.533e-02
358 1 -1.762e+00 -3.518e+00 1.745e+00 -4.941e-03 -5.758e-03 -1.066e-02
359 1 -1.761e+00 3.504e+00 1.743e+00 -5.068e-03 1.962e-02 -7.683e-03
360 1 1.739e+00 3.531e+00 -1.785e+00 -1.720e-02 -2.239e-03 2.288e-02
361 1 1.762e+00 -3.523e+00 -1.769e+00 4.502e-03 5.905e-03 2.573e-03
362 1 1.769e+00 -3.554e+00 1.749e+00 -1.965e-02 2.433e-02 -3.036e-02
363 1 1.721e+00 3.531e+00 1.735e+00 -1.152e-02 2.972e-03 -1.169e-02
364 1 -7.869e-03 -3.525e+00 3.513e+00 -8.468e-03 4.640e-03 1.551e-02
365 1 -2.669e-03 3.525e+00 3.514e+00 -5.642e-03 -6.280e-03 -8.607e-03
366 1 -3.517e+00 1.010e-02 3.509e+00 2.389e-02 3.156e-02 -2.702e-03
367 1 1.739e+00 1.742e+00 3.506e+00 -1.579e-02 -2.447e-03 1.873e-02
368 1 1.735e+00 -1.748e+00 3.491e+00 -3.459e-03 -1.477e-02 -2.041e-03
369 1 -8.190e-03 7.706e-03 1.059e-02 1.724e+00 1.632e-02 1.712e+00
370 1 -7.599e-03 9.306e-03 3.468e+00 -1.034e-02 9.284e-03 1.689e-03
371 1 -9.545e-03 1.743e+00 1.733e+00 -6.806e-03 -1.586e-03 -1.276e-02
372 1 -9.023e-03 -1.756e+00 1.733e+00 -1.584e-02 -6.837e-03 -1.312e-02
373 1 -1.772e+00 1.758e+00 3.517e+00 5.018e-03 8.821e-04 -5.266e-03
374 1 -1.732e+00 -1.769e+00 3.483e+00 1.353e-02 -1.443e-02 -1.385e-02
375 1 3.486e+00 1.665e-02 1.241e-02 2.665e-02 -5.733e-03 -1.281e-02
376 1 1.737e+00 -1.743e+00 -1.026e-02 -9.021e-03 -4.403e-03 -4.812e-04
377 1 1.739e+00 1.764e+00 -1.670e-03 -1.170e-02 -3.177e-03 -3.822e-02
378 1 1.747e+00 4.854e-03 -1.781e+00 4.709e-04 1.256e-02 -9.309e-03
379 1 -1.771e-02 -1.749e+00 -1.775e+00 -5.318e-03 -5.608e-03 2.010e-02
380 1 3.482e-03 1.760e+00 -1.779e+00 -2.044e-04 1.460e-02 2.806e-02
381 1 -1.765e+00 -7.286e-03 -1.803e+00 -9.166e-04 -5.214e-03 2.359e-02
382 1 -1.786e+00 2.677e-04 1.740e+00 7.956e-03 6.703e-03 -8.808e-03
383 1 2.847e-03 -3.534e+00 -1.534e-02 -1.093e-02 -2.096e-02 5.529e-03
384 1 -2.556e-02 3.521e+00 -1.615e-02 -4.409e-03 1.862e-02 6.844e-04
385 1 -3.509e+00 1.269e-03 -7.813e-03 2.713e-03 3.262e-03 1.133e-02
386 1 -1.753e+00 -1.747e+00 -6.651e-03 4.016e-03 6.740e-03 -7.746e-03
387 1 -1.768e+00 1.753e+00 -1.646e-02 1.263e-02 -7.088e-03 -3.230e-03
ITEM: TIMESTEP
0
ITEM: NUMBER OF ATOMS
61
ITEM: BOX BOUNDS xy xz yz pp pp pp
                     0.00000000000000e+00 1.06200000000000e+01 0.00000000000000e+00
0.00000000000000e+00	1.06200000000000e+01	0.00000000000000e+00
0.00000000000000e+00	1.06200000000000e+01	0.00000000000000e+00
ITEM: ATOMS id type x y z DisplacementX DisplacementY DisplacementZ
388 1 -5.285e+00 1.152e-02 1.749e+00 2.211e-03 1.652e-02 -1.640e-02
389 1 -2.259e-02 5.301e+00 1.761e+00 -2.416e-02 1.997e-04 6.541e-05
390 1 -1.064e-03 5.285e+00 -1.772e+00 -8.789e-03 3.057e-03 5.670e-03
391 1 -5.295e+00 1.439e-02 -1.762e+00 -3.042e-02 5.248e-03 -1.182e-02
392 1 4.841e-03 -5.279e+00 1.755e+00 -1.507e-02 1.371e-02 1.651e-02
393 1 3.616e-03 -5.280e+00 -1.753e+00 -2.579e-02 1.336e-02 2.132e-03
394 1 5.271e+00 -5.814e-03 1.774e+00 4.940e-03 1.320e-02 1.326e-02
395 1 5.243e+00 1.429e-02 -1.748e+00 1.750e-02 7.663e-03 -4.696e-03