ITEM: TIMESTEP
0
ITEM: NUMBER OF ATOMS
69
ITEM: BOX BOUNDS xy xz yz pp pp pp
                     0.00000000000000e+00 1.06200000000000e+01 0.00000000000000e+00
0.00000000000000e+00	1.06200000000000e+01	0.00000000000000e+00
0.00000000000000e+00	1.06200000000000e+01	0.00000000000000e+00
ITEM: ATOMS id type x y z DisplacementX DisplacementY DisplacementZ
1 1 -1.726e+00 5.281e+00 -2.994e-03 -3.705e-03 1.061e-02 -1.195e-02
2 1 3.463e+00 3.526e+00 -1.222e-04 -8.383e-03 -5.298e-03 -1.114e-02
3 1 1.773e-02 3.511e+00 3.499e+00 1.555e-02 1.329e-02 5.174e-03
4 1 3.276e-02 3.533e+00 -3.530e+00 -1.500e-03 -7.294e-03 8.481e-03
5 1 5.243e+00 3.905e-03 1.750e+00 -2.692e-03 1.985e-04 -1.838e-03
6 1 5.231e+00 9.165e-03 -1.768e+00 6.009e-03 -6.918e-03 -2.108e-03
7 1 5.252e+00 -1.766e+00 -1.034e-02 4.374e-03 -6.741e-03 1.525e-03
8 1 1.748e+00 -5.302e+00 -1.052e-02 6.781e-04 -2.936e-03 -3.006e-03
9 1 -5.265e+00 -1.763e+00 -1.065e-02 -3.487e-03 -2.204e-03 -1.303e-03
10 1 -1.767e+00 -5.301e+00 -9.777e-03 -1.365e-03 -3.208e-03 -5.678e-04
11 1 -5.258e+00 1.761e+00 -1.070e-02 2.291e-03 1.968e-04 7.482e-04
12 1 -5.263e+00 -1.687e-03 1.750e+00 1.816e-03 2.453e-04 9.117e-04
13 1 -5.259e+00 1.173e-03 -1.767e+00 -1.057e-03 -6.491e-04 -3.002e-03
14 1 -8.946e-03 -5.302e+00 1.752e+00 -4.362e-04 -4.551e-03 6.089e-04
15 1 -9.558e-03 -5.301e+00 -1.770e+00 8.572e-04 -3.946e-03 6.351e-04
16 1 1.827e-02 3.514e+00 4.303e-03 2.280e-02 3.048e-02 -1.537e-02
17 1 3.486e+00 8.121e-04 3.506e+00 -4.996e-04 -5.453e-03 -4.062e-03
18 1 3.488e+00 1.375e-03 -3.530e+00 -2.733e-03 -7.541e-03 7.337e-03
19 1 -3.497e+00 6.786e-03 3.510e+00 6.915e-03 -3.605e-03 -7.416e-03
20 1 -3.496e+00 7.597e-03 -3.529e+00 3.252e-03 -3.992e-03 7.409e-03
21 1 -9.706e-03 -3.543e+00 3.512e+00 -8.706e-05 3.544e-03 -7.495e-03
22 1 -6.967e-03 -3.541e+00 -3.529e+00 -2.254e-05 -2.825e-03 1.561e-03
23 1 5.230e+00 1.776e+00 -1.098e-02 -1.892e-03 -1.697e-03 -1.344e-04
24 1 3.504e+00 -3.537e+00 -1.036e-02 -4.192e-03 3.190e-03 1.420e-03
25 1 -3.518e+00 -3.530e+00 -8.920e-03 3.911e-03 1.216e-03 -1.264e-03
26 1 -1.712e+00 3.520e+00 1.750e+00 -4.710e-03 2.037e-02 -6.458e-03
27 1 1.718e+00 1.766e+00 3.467e+00 2.334e-02 -6.976e-03 3.628e-02
28 1 -3.482e+00 3.525e+00 -6.789e-03 1.726e-03 -9.018e-04 -2.508e-03
29 1 -1.716e+00 1.771e+00 3.497e+00 -8.911e-03 1.649e-03 9.774e-03
30 1 -1.758e+00 -1.768e+00 3.510e+00 2.322e-03 1.036e-03 -4.275e-03
31 1 -1.755e+00 -1.763e+00 -3.529e+00 6.633e-04 -1.932e-03 1.615e-03
32 1 1.747e+00 -1.778e+00 3.509e+00 -4.064e-04 1.864e-04 -1.499e-03
33 1 1.745e+00 -1.775e+00 -3.531e+00 -2.864e-03 -3.048e-03 1.192e-03
34 1 -1.717e+00 3.537e+00 -1.763e+00 -4.166e-04 -4.661e-04 -1.507e-04
35 1 3.492e+00 1.768e+00 1.751e+00 -2.530e-02 -1.569e-04 -6.923e-03
36 1 3.454e+00 1.779e+00 -1.756e+00 9.330e-03 -9.709e-03 -1.162e-02
37 1 1.750e+00 1.764e+00 -3.530e+00 -3.151e-03 -6.838e-03 4.551e-03
38 1 3.499e+00 -1.769e+00 1.751e+00 -1.972e-03 -3.484e-03 -4.552e-03
39 1 3.498e+00 -1.773e+00 -1.770e+00 1.199e-05 -1.848e-03 8.638e-04
40 1 1.751e+00 -3.541e+00 1.750e+00 -2.978e-03 2.713e-03 -2.102e-03
41 1 1.746e+00 -3.538e+00 -1.770e+00 -1.349e-03 -1.136e-03 1.894e-03
42 1 -3.507e+00 -1.761e+00 1.750e+00 2.491e-03 -2.345e-04 -3.962e-03
43 1 -3.508e+00 -1.763e+00 -1.768e+00 2.730e-03 1.612e-05 2.203e-03
44 1 -1.766e+00 -3.540e+00 1.750e+00 3.347e-03 2.315e-03 -3.454e-03
45 1 -1.764e+00 -3.536e+00 -1.770e+00 3.218e-04 -2.294e-04 2.216e-03
46 1 -3.503e+00 1.768e+00 1.751e+00 1.979e-02 -1.462e-03 -4.914e-03
47 1 -3.485e+00 1.769e+00 -1.764e+00 -1.198e-03 -4.626e-03 -2.401e-03
48 1 1.721e+00 1.765e+00 3.306e-02 9.079e-03 -2.297e-02 -4.275e-02
49 1 -1.738e+00 8.010e-03 5.268e+00 -4.951e-03 -4.125e-03 6.409e-05
50 1 -6.397e-03 -1.772e+00 5.269e+00 -1.302e-04 -6.756e-03 1.765e-03
51 1 -1.727e+00 1.775e+00 -3.530e+00 5.278e-04 -3.270e-03 3.172e-03
52 1 2.456e-03 -1.512e-03 3.501e+00 4.712e-03 -3.908e-03 1.641e-02
53 1 5.514e-04 1.089e-04 1.935e-03 2.410e-02 1.768e+00 1.742e+00
54 1 -1.735e+00 1.055e-02 1.752e+00 1.435e-02 -5.999e-03 -1.929e-02
55 1 1.741e+00 -1.431e-02 5.261e+00 6.107e-03 -7.448e-03 1.004e-02
56 1 2.970e-02 1.778e+00 5.273e+00 -3.064e-03 -1.009e-03 -4.322e-03
57 1 -1.716e+00 1.771e+00 5.282e-03 6.763e-03 -7.090e-03 -1.608e-02
58 1 1.744e+00 -1.778e+00 -4.632e-03 -1.252e-02 8.794e-03 -3.209e-03
59 1 -1.756e+00 -1.767e+00 -8.344e-03 1.237e-02 8.564e-03 -2.508e-03
60 1 4.143e-03 -3.134e-03 -3.531e+00 -2.408e-04 -1.407e-03 -9.781e-03
61 1 -1.739e+00 9.336e-03 -1.768e+00 1.772e-02 -4.550e-03 1.450e-02
62 1 -9.710e-03 -1.788e+00 1.751e+00 3.613e-03 1.686e-02 -9.090e-03
63 1 -7.541e-03 -1.771e+00 -1.766e+00 -1.451e-03 2.525e-03 3.488e-03
64 1 1.734e+00 -1.582e-02 1.751e+00 -7.188e-03 -5.668e-03 -2.094e-02
65 1 2.988e-02 1.776e+00 -1.773e+00 -5.365e-03 -9.772e-03 1.096e-02
66 1 3.486e+00 8.551e-04 -4.974e-03 1.501e-02 -7.660e-03 -3.900e-03
67 1 -3.494e+00 5.858e-03 -8.340e-03 -7.992e-03 1.130e-03 -1.163e-03
68 1 -8.471e-03 -3.541e+00 -9.717e-03 9.859e-04 -1.113e-02 2.517e-03
69 1 1.744e+00 -1.303e-02 -1.762e+00 -1.638e-02 -8.569e-03 6.161e-03
ITEM: TIMESTEP
0
ITEM: NUMBER OF ATOMS
66
ITEM: BOX BOUNDS xy xz yz pp pp pp
                     0.00000000000000e+00 1.06200000000000e+01 0.00000000000000e+00
0.00000000000000e+00	1.06200000000000e+01	0.00000000000000e+00
0.00000000000000e+00	1.06200000000000e+01	0.00000000000000e+00
ITEM: ATOMS id type x y z DisplacementX DisplacementY DisplacementZ
70 1 5.178e+00 1.754e+00 -5.292e-03 1.010e-02 7.847e-03 -9.387e-03
71 1 -1.776e+00 5.235e+00 -1.434e-02 -6.542e-03 6.616e-03 -4.043e-03
72 1 -9.142e-03 3.510e+00 3.498e+00 -1.025e-02 -1.510e-03 -7.916e-03
73 1 -1.276e-02 3.514e+00 -3.534e+00 -4.742e-03 -5.426e-03 1.326e-02
74 1 3.436e+00 -5.018e-03 3.462e+00 1.785e-02 -2.101e-03 2.976e-02
75 1 5.204e+00 -1.771e+00 -8.813e-03 5.040e-03 -5.327e-03 -6.113e-03
76 1 5.170e+00 8.313e-03 -1.759e+00 2.094e-02 -4.953e-03 -1.424e-02
77 1 -5.311e+00 1.731e+00 -1.397e-02 -4.640e-03 8.248e-04 -2.325e-03
78 1 1.707e+00 -5.313e+00 -1.542e-02 8.964e-04 2.820e-03 5.195e-04
79 1 -1.802e+00 -5.302e+00 -1.438e-02 -4.392e-03 -4.357e-03 -7.718e-04
80 1 -5.311e+00 -1.776e+00 -1.397e-02 -3.906e-03 -2.146e-03 4.850e-04
81 1 -4.971e-02 -5.310e+00 1.746e+00 -9.681e-04 8.987e-04 -1.940e-03
82 1 -4.763e-02 -5.306e+00 -1.773e+00 -1.505e-03 -2.394e-03 -4.851e-04
83 1 -5.309e+00 -1.904e-02 1.748e+00 -5.207e-03 -8.065e-04 -1.716e-03
84 1 -5.306e+00 -1.920e-02 -1.776e+00 -3.128e-03 -1.103e-04 -3.347e-04
85 1 5.206e+00 -4.148e-03 1.746e+00 -1.650e-02 6.037e-03 -2.387e-03
86 1 -3.544e+00 3.490e+00 -1.471e-02 3.255e-04 -4.311e-03 4.807e-04
87 1 1.732e+00 1.743e+00 -1.578e-03 -2.945e-02 -1.649e-02 -1.508e-02
88 1 3.466e+00 -1.021e-02 -3.534e+00 -1.108e-02 2.144e-03 1.272e-02
89 1 -3.916e-02 -3.539e+00 3.503e+00 -2.864e-03 1.233e-03 -4.098e-03
90 1 -3.940e-02 -3.535e+00 -3.534e+00 -5.547e-03 6.187e-04 2.160e-03
91 1 -3.541e+00 -1.131e-02 3.509e+00 1.523e-03 -2.061e-03 -8.040e-03
92 1 -3.535e+00 -6.945e-03 -3.535e+00 -3.664e-03 -2.310e-03 4.530e-03
93 1 1.734e+00 1.741e+00 3.494e+00 2.742e-03 8.621e-03 -5.742e-03
94 1 3.462e+00 -3.548e+00 -1.207e-02 -5.831e-03 3.914e-03 -5.576e-03
95 1 -3.550e+00 -3.534e+00 -1.566e-02 -2.055e-03 -1.649e-03 4.673e-04
96 1 -9.407e-03 3.510e+00 -6.504e-03 -3.403e-03 1.863e-02 -9.689e-03
97 1 1.748e+00 1.763e+00 -3.534e+00 -1.233e-02 -1.152e-02 1.524e-02
98 1 1.715e+00 -1.770e+00 3.499e+00 -2.829e-03 -9.187e-05 5.202e-03
99 1 -1.764e+00 3.505e+00 1.747e+00 -5.749e-03 2.043e-03 -6.389e-03
100 1 -1.765e+00 3.510e+00 -1.771e+00 -4.790e-03 -3.342e-03 2.542e-03
101 1 1.720e+00 -1.774e+00 -3.535e+00 -9.014e-03 8.022e-04 2.805e-03
102 1 -1.780e+00 -1.767e+00 3.503e+00 -5.920e-03 -2.298e-03 -3.649e-03
103 1 -1.780e+00 -1.764e+00 -3.535e+00 -6.484e-03 -1.724e-03 1.390e-03
104 1 -3.540e+00 1.745e+00 1.746e+00 9.365e-04 -3.254e-03 -4.921e-03
105 1 -3.537e+00 1.744e+00 -1.773e+00 -2.082e-03 -2.876e-03 9.668e-05
106 1 1.706e+00 -3.557e+00 1.745e+00 -3.307e-03 1.689e-02 -4.428e-03
107 1 1.710e+00 -3.544e+00 -1.771e+00 -5.989e-03 -2.908e-04 -6.999e-04
108 1 -1.789e+00 -3.530e+00 1.746e+00 -4.352e-03 -3.412e-03 -5.080e-03
109 1 -1.791e+00 -3.532e+00 -1.773e+00 -4.947e-03 -4.058e-03 8.551e-05
110 1 -3.546e+00 -1.773e+00 1.746e+00 1.732e-03 2.674e-03 -3.908e-03
111 1 -3.541e+00 -1.769e+00 -1.775e+00 -2.336e-03 3.699e-04 1.221e-03
112 1 3.449e+00 -1.786e+00 1.746e+00 7.757e-03 1.154e-03 -6.400e-03
113 1 -2.417e-02 -1.763e+00 5.262e+00 -6.387e-03 -5.292e-03 3.189e-03
114 1 -1.767e+00 -1.567e-03 5.259e+00 -1.179e-02 -2.853e-03 3.537e-03
115 1 -1.766e+00 1.753e+00 3.504e+00 -7.610e-03 1.487e-03 -1.772e-03
116 1 -1.765e+00 1.757e+00 -3.535e+00 -4.351e-03 -4.581e-03 -2.691e-04
117 1 3.460e+00 -1.784e+00 -1.763e+00 -3.035e-03 -2.155e-04 -4.351e-03
118 1 3.439e+00 -5.173e-03 2.935e-02 2.991e-02 4.291e-03 -4.533e-02
119 1 1.716e+00 -1.771e+00 -4.014e-03 -1.944e-02 6.687e-03 -9.429e-03
120 1 -2.013e-02 -1.760e+00 1.747e+00 -1.495e-02 2.177e-03 -1.122e-02
121 1 5.184e-03 1.749e+00 1.746e+00 -2.132e-02 5.435e-03 -1.321e-02
122 1 1.746e+00 5.858e-03 5.269e+00 -3.930e-03 -1.980e-03 -5.057e-03
123 1 -1.624e-03 1.765e+00 5.261e+00 -5.494e-03 4.738e-03 3.142e-03
124 1 1.744e+00 6.408e-03 -1.778e+00 -3.118e-02 -1.317e-02 1.897e-02
125 1 -1.915e-04 -7.450e-04 1.073e-03 1.713e+00 -6.809e-03 1.729e+00
126 1 4.403e-05 7.152e-04 3.492e+00 -2.017e-02 9.643e-04 2.312e-02
127 1 -1.779e+00 -1.764e+00 -1.264e-02 2.062e-03 2.763e-03 -3.634e-03
128 1 -2.362e-02 -1.763e+00 -1.772e+00 -1.095e-02 1.646e-03 5.792e-03
129 1 -1.786e+00 -4.271e-03 1.745e+00 1.877e-02 -2.470e-04 -1.487e-02
130 1 -1.768e+00 -1.738e-03 -1.769e+00 2.979e-03 -5.198e-03 7.004e-03
131 1 -1.110e-03 1.764e+00 -1.771e+00 -1.588e-02 -1.568e-02 7.327e-03
132 1 -4.003e-02 -3.538e+00 -1.153e-02 -4.238e-03 -1.156e-02 -1.923e-03
133 1 -3.541e+00 -1.016e-02 -1.601e-02 -1.089e-02 -1.021e-03 -6.935e-04
134 1 -1.763e+00 1.754e+00 -1.268e-02 8.712e-03 -1.134e-02 -6.367e-03
135 1 -9.069e-03 6.029e-03 -3.532e+00 -7.963e-03 -3.277e-03 -1.078e-02
ITEM: TIMESTEP
0
ITEM: NUMBER OF ATOMS
60
ITEM: BOX BOUNDS xy xz yz pp pp pp
                     0.00000000000000e+00 1.06200000000000e+01 0.00000000000000e+00
0.00000000000000e+00	1.06200000000000e+01	0.00000000000000e+00
0.00000000000000e+00	1.06200000000000e+01	0.00000000000000e+00
ITEM: ATOMS id type x y z DisplacementX DisplacementY DisplacementZ
136 1 -3.444e+00 3.514e+00 -3.548e-02 1.618e-02 4.736e-03 -1.142e-02
137 1 -1.705e+00 1.747e+00 3.463e+00 2.686e-02 1.798e-02 4.464e-03
138 1 3.505e+00 3.522e+00 -4.301e-02 -1.498e-02 -7.933e-03 -2.198e-03
139 1 -1.690e+00 1.768e+00 -3.563e+00 1.331e-02 -3.554e-03 1.343e-03
140 1 1.744e+00 1.759e+00 3.469e+00 -3.194e-03 3.025e-03 5.128e-03
141 1 1.742e+00 1.764e+00 -3.563e+00 -3.205e-03 -2.254e-03 3.548e-03
142 1 -5.222e+00 1.809e-03 1.717e+00 2.050e-02 6.721e-03 -2.317e-03
143 1 -5.204e+00 4.191e-03 -1.800e+00 2.473e-03 4.108e-03 -8.094e-03
144 1 5.267e+00 3.088e-03 1.717e+00 -4.354e-03 -2.021e-04 -2.020e-03
145 1 5.263e+00 4.735e-03 -1.806e+00 -7.441e-04 -7.845e-04 2.794e-03
146 1 -5.218e+00 -1.761e+00 -4.170e-02 4.559e-03 1.866e-03 -5.324e-03
147 1 5.278e+00 -1.759e+00 -4.545e-02 -2.294e-03 1.524e-03 5.195e-04
148 1 -1.729e+00 -5.308e+00 -4.530e-02 3.980e-03 -2.649e-03 -2.061e-03
149 1 1.782e+00 -5.302e+00 -4.289e-02 5.099e-03 -9.079e-03 -2.556e-03
150 1 2.813e-02 -5.310e+00 1.715e+00 2.771e-03 -3.242e-03 -2.308e-04
151 1 2.559e-02 -5.305e+00 -1.805e+00 3.490e-03 -7.546e-03 -3.736e-03
152 1 -1.703e+00 1.748e+00 -3.170e-02 3.237e-02 1.777e-03 -1.610e-02
153 1 -3.436e+00 4.743e-03 3.462e+00 5.356e-03 8.474e-03 -1.569e-03
154 1 2.482e-02 -3.545e+00 3.475e+00 6.124e-03 -2.010e-03 -8.273e-04
155 1 2.607e-02 -3.540e+00 -3.565e+00 3.978e-03 -8.245e-03 -1.538e-03
156 1 -5.203e+00 1.760e+00 -4.113e-02 5.854e-03 8.956e-03 -5.303e-03
157 1 5.262e+00 1.764e+00 -4.410e-02 -4.952e-03 -3.314e-05 -5.352e-04
158 1 -3.478e+00 -3.533e+00 -4.152e-02 1.206e-02 7.560e-03 -3.570e-03
159 1 3.530e+00 -3.528e+00 -4.240e-02 -4.245e-03 1.696e-03 -4.739e-04
160 1 -1.722e+00 -1.765e+00 3.466e+00 8.139e-03 -2.015e-03 1.208e-03
161 1 1.742e+00 1.759e+00 -3.339e-02 -9.063e-03 -1.408e-02 -1.133e-02
162 1 -3.430e+00 1.753e+00 1.718e+00 1.136e-02 1.747e-02 -8.599e-03
163 1 -3.446e+00 1.046e-02 -3.564e+00 1.665e-02 1.315e-03 9.144e-03
164 1 3.510e+00 7.515e-03 3.479e+00 -1.519e-02 2.107e-03 -1.385e-02
165 1 3.494e+00 1.343e-02 -3.562e+00 -1.240e-03 -6.674e-04 1.122e-02
166 1 -3.457e+00 -1.755e+00 1.716e+00 1.026e-02 1.378e-03 -7.127e-03
167 1 -1.718e+00 -1.769e+00 -3.564e+00 6.164e-03 -2.708e-04 5.778e-04
168 1 1.766e+00 -1.766e+00 3.472e+00 4.766e-03 -3.349e-03 -2.080e-03
169 1 1.766e+00 -1.765e+00 -3.563e+00 6.705e-03 -6.168e-03 3.907e-03
170 1 -3.437e+00 1.770e+00 -1.799e+00 1.311e-02 7.830e-04 -2.947e-03
171 1 3.500e+00 1.772e+00 1.716e+00 -1.586e-02 -5.209e-03 -5.790e-03
172 1 3.491e+00 1.770e+00 -1.802e+00 -7.762e-03 -5.289e-03 1.931e-03
173 1 -3.460e+00 -1.758e+00 -1.802e+00 1.515e-02 5.595e-03 1.332e-04
174 1 3.523e+00 -1.764e+00 1.717e+00 -1.314e-02 8.092e-03 -6.848e-03
175 1 3.512e+00 -1.755e+00 -1.804e+00 -3.272e-03 1.075e-03 4.074e-03
176 1 -1.729e+00 -3.553e+00 1.718e+00 8.887e-03 9.845e-03 -3.892e-03
177 1 -1.728e+00 -3.539e+00 -1.801e+00 4.673e-03 -4.747e-03 -1.668e-03
178 1 1.776e+00 -3.538e+00 1.717e+00 4.049e-03 -7.154e-03 -5.752e-03
179 1 1.780e+00 -3.537e+00 -1.804e+00 5.417e-03 -7.128e-03 -7.548e-04
180 1 7.934e-05 -3.835e-04 5.286e-04 -1.652e+00 1.589e-02 1.689e+00
181 1 -1.691e+00 1.158e-02 5.241e+00 -3.641e-03 -3.715e-03 -6.764e-03
182 1 -8.210e-04 -2.717e-03 3.433e+00 3.129e-02 -9.433e-03 5.769e-02
183 1 1.732e+00 1.355e-02 5.222e+00 2.248e-02 -8.001e-03 1.216e-02
184 1 -1.721e+00 -1.767e+00 -3.386e-02 2.902e-02 7.923e-03 -1.426e-02
185 1 2.347e-02 -1.779e+00 5.227e+00 6.320e-03 -1.225e-02 7.607e-03
186 1 2.759e-02 -2.124e-03 -3.564e+00 2.432e-03 -6.004e-03 -1.963e-02
187 1 1.767e+00 -1.765e+00 -3.942e-02 -1.187e-02 5.679e-03 -4.198e-03
188 1 1.249e-02 -1.781e+00 1.718e+00 1.654e-02 -6.206e-03 -6.167e-03
189 1 -1.691e+00 1.187e-02 -1.805e+00 4.067e-02 4.905e-03 2.304e-02
190 1 1.770e+00 1.182e-03 1.715e+00 -5.697e-02 1.141e-02 -2.529e-02
191 1 1.733e+00 1.437e-02 -1.789e+00 -1.886e-02 9.699e-04 6.796e-03
192 1 -3.437e+00 7.216e-03 -2.959e-02 -9.217e-03 6.074e-03 -1.539e-02
193 1 2.352e-02 -3.546e+00 -4.232e-02 5.013e-03 -1.544e-02 -3.706e-03
194 1 2.264e-02 -1.778e+00 -1.793e+00 8.397e-03 -1.061e-02 -1.101e-02
195 1 3.510e+00 1.002e-02 -4.621e-02 -1.917e-03 -8.135e-06 9.546e-05
ITEM: TIMESTEP
0
ITEM: NUMBER OF ATOMS
60
ITEM: BOX BOUNDS xy xz yz pp pp pp
                     0.00000000000000e+00 1.06200000000000e+01 0.00000000000000e+00
0.00000000000000e+00	1.06200000000000e+01	0.00000000000000e+00
0.00000000000000e+00	1.06200000000000e+01	0.00000000000000e+00
ITEM: ATOMS id type x y z DisplacementX DisplacementY DisplacementZ
196 1 -3.446e+00 3.517e+00 -3.546e-02 4.071e-02 -3.666e-02 1.520e-02
197 1 -1.704e+00 1.747e+00 3.462e+00 1.326e-03 -1.156e-02 1.842e-03
198 1 3.504e+00 3.522e+00 -4.268e-02 -1.687e-02 -3.892e-03 4.080e-03
199 1 -1.689e+00 1.765e+00 -3.563e+00 1.472e-02 5.438e-03 -2.455e-02
200 1 1.742e+00 1.758e+00 3.468e+00 -4.258e-03 -1.904e-03 1.735e-03
201 1 1.740e+00 1.763e+00 -3.566e+00 -2.136e-02 1.350e-02 -8.387e-03
202 1 -5.222e+00 2.052e-03 1.718e+00 -4.996e-03 -5.416e-03 2.497e-03
203 1 -5.205e+00 2.651e-03 -1.798e+00 3.952e-03 9.084e-04 -2.285e-03
204 1 5.268e+00 2.914e-03 1.716e+00 -2.947e-03 1.977e-03 -1.032e-03
205 1 5.264e+00 4.342e-03 -1.805e+00 -6.352e-03 5.393e-03 -1.620e-03
206 1 -5.216e+00 -1.760e+00 -4.244e-02 -7.268e-03 -5.069e-03 -6.418e-04
207 1 5.276e+00 -1.760e+00 -4.722e-02 -3.227e-03 1.590e-03 -1.158e-03
208 1 -1.730e+00 -5.310e+00 -4.623e-02 6.825e-04 -3.992e-03 1.210e-03
209 1 1.781e+00 -5.304e+00 -4.675e-02 -1.237e-03 -1.788e-03 1.868e-03
210 1 2.625e-02 -5.310e+00 1.717e+00 9.945e-04 -1.901e-03 2.350e-03
211 1 2.529e-02 -5.303e+00 -1.802e+00 1.059e-03 -2.535e-03 7.180e-04
212 1 -1.701e+00 1.747e+00 -3.179e-02 4.895e-02 -1.035e-01 5.976e-02
213 1 -3.437e+00 6.067e-03 3.461e+00 -5.851e-03 -1.029e-02 1.522e-03
214 1 2.573e-02 -3.544e+00 3.476e+00 2.153e-04 1.307e-03 -3.538e-03
215 1 2.559e-02 -3.539e+00 -3.564e+00 -4.482e-04 -2.714e-03 2.255e-03
216 1 -5.204e+00 1.760e+00 -4.145e-02 5.196e-03 -1.985e-03 -1.574e-04
217 1 5.261e+00 1.764e+00 -4.589e-02 -9.240e-03 3.981e-03 -9.955e-04
218 1 -3.478e+00 -3.533e+00 -4.245e-02 6.352e-03 5.437e-03 1.793e-03
219 1 3.529e+00 -3.529e+00 -4.539e-02 -6.352e-03 4.074e-03 2.929e-04
220 1 -1.722e+00 -1.767e+00 3.468e+00 -1.110e-03 -2.295e-03 -2.133e-04
221 1 1.741e+00 1.760e+00 -3.442e-02 -2.221e-02 -9.125e-03 1.090e-02
222 1 -3.430e+00 1.752e+00 1.717e+00 -6.926e-04 -2.085e-02 6.749e-03
223 1 -3.449e+00 1.012e-02 -3.563e+00 7.082e-03 -3.055e-03 5.136e-03
224 1 3.509e+00 7.224e-03 3.477e+00 -9.782e-03 8.827e-04 -7.467e-03
225 1 3.494e+00 1.177e-02 -3.564e+00 -9.898e-03 4.358e-03 6.472e-03
226 1 -3.458e+00 -1.755e+00 1.715e+00 1.788e-03 -1.841e-03 8.389e-05
227 1 -1.716e+00 -1.769e+00 -3.564e+00 -1.889e-03 -8.545e-03 3.243e-04
228 1 1.766e+00 -1.765e+00 3.472e+00 -4.008e-03 6.300e-04 -1.135e-03
229 1 1.767e+00 -1.764e+00 -3.563e+00 4.953e-04 -2.104e-03 2.004e-03
230 1 -3.436e+00 1.770e+00 -1.800e+00 4.811e-02 -2.944e-03 1.338e-02
231 1 3.503e+00 1.773e+00 1.716e+00 -8.443e-03 -4.025e-03 -2.061e-04
232 1 3.492e+00 1.771e+00 -1.801e+00 -3.167e-02 5.873e-03 3.162e-03
233 1 -3.461e+00 -1.757e+00 -1.799e+00 -2.011e-03 -6.425e-03 2.182e-03
234 1 3.524e+00 -1.763e+00 1.716e+00 -7.909e-03 3.806e-03 -2.840e-03
235 1 3.512e+00 -1.756e+00 -1.802e+00 -2.065e-03 -1.749e-03 5.451e-03
236 1 -1.728e+00 -3.554e+00 1.717e+00 3.670e-03 5.504e-03 -1.012e-03
237 1 -1.725e+00 -3.539e+00 -1.800e+00 3.143e-03 4.104e-03 7.444e-03
238 1 1.778e+00 -3.537e+00 1.717e+00 -7.482e-03 4.643e-03 -3.344e-03
239 1 1.777e+00 -3.538e+00 -1.801e+00 -3.058e-03 -8.195e-04 2.195e-03
240 1 -8.916e-04 -1.189e-03 2.032e-04 6.527e-03 1.756e+00 -1.786e+00
241 1 -1.691e+00 1.154e-02 5.240e+00 -9.701e-03 -1.251e-02 8.425e-04
242 1 -1.061e-03 5.620e-04 3.432e+00 2.003e-03 -5.885e-03 3.105e-02
243 1 1.734e+00 1.385e-02 5.223e+00 7.282e-03 -4.502e-03 3.893e-03
244 1 -1.720e+00 -1.767e+00 -3.339e-02 2.013e-02 2.937e-02 6.647e-03
245 1 2.311e-02 -1.777e+00 5.226e+00 7.365e-04 -7.275e-03 3.502e-03
246 1 2.687e-02 -4.412e-03 -3.563e+00 -5.044e-04 -7.222e-03 -1.237e-02
247 1 1.766e+00 -1.765e+00 -3.909e-02 -1.480e-02 7.589e-03 5.662e-04
248 1 1.187e-02 -1.781e+00 1.717e+00 -4.834e-03 1.860e-02 -6.701e-03
249 1 -1.688e+00 9.957e-03 -1.805e+00 1.474e-03 -2.350e-02 4.200e-03
250 1 1.769e+00 1.496e-04 1.715e+00 -2.723e-02 3.043e-03 -1.312e-02
251 1 1.735e+00 1.192e-02 -1.788e+00 -3.210e-03 -1.001e-02 8.419e-03
252 1 -3.437e+00 6.823e-03 -2.920e-02 -2.166e-02 -9.991e-03 -4.043e-03
253 1 2.356e-02 -3.545e+00 -4.182e-02 -4.304e-03 -4.723e-03 2.028e-03
254 1 2.386e-02 -1.779e+00 -1.795e+00 1.668e-03 6.071e-03 -1.047e-03
255 1 3.508e+00 7.071e-03 -4.541e-02 9.445e-04 2.164e-03 2.926e-03
ITEM: TIMESTEP
0
ITEM: NUMBER OF ATOMS
72
ITEM: BOX BOUNDS xy xz yz pp pp pp
                     0.00000000000000e+00 1.06200000000000e+01 0.00000000000000e+00
0.00000000000000e+00	1.06200000000000e+01	0.00000000000000e+00
0.00000000000000e+00	1.06200000000000e+01	0.00000000000000e+00
ITEM: ATOMS id type x y z DisplacementX DisplacementY DisplacementZ
256 1 5.224e+00 1.754e+00 2.042e-04 -1.644e-02 4.804e-03 -8.782e-04
257 1 5.223e+00 -1.030e-02 1.756e+00 7.573e-03 -7.448e-03 5.173e-03
258 1 5.223e+00 -9.295e-03 -1.755e+00 9.084e-03 -4.599e-03 -5.175e-03
259 1 1.726e+00 -5.312e+00 3.366e-04 -1.249e-03 -5.338e-03 1.180e-03
260 1 -5.290e+00 -1.534e-02 -1.762e+00 -1.192e-03 -1.438e-03 -7.210e-04
261 1 -5.290e+00 -1.549e-02 1.760e+00 -2.920e-03 -2.012e-03 -1.134e-03
262 1 -3.181e-02 -5.312e+00 -1.760e+00 -1.778e-03 -3.112e-03 1.093e-03
263 1 -3.241e-02 -5.313e+00 1.760e+00 -1.733e-03 -2.417e-03 2.261e-04
264 1 -5.292e+00 -1.777e+00 5.675e-04 -1.417e-03 -1.918e-03 4.762e-04
265 1 -1.790e+00 -5.309e+00 5.960e-05 -3.140e-03 -2.462e-03 -1.296e-03
266 1 5.234e+00 -1.780e+00 3.807e-04 5.288e-03 -4.118e-03 -8.874e-04
267 1 -5.289e+00 1.741e+00 1.217e-05 -2.362e-03 1.979e-04 6.599e-04
268 1 1.114e-02 5.271e+00 1.754e+00 -6.477e-03 9.984e-03 1.363e-02
269 1 1.090e-02 5.270e+00 -1.753e+00 -4.924e-03 9.687e-03 -1.140e-02
270 1 -3.537e+00 -3.537e+00 -2.879e-03 8.618e-04 -1.166e-03 1.025e-03
271 1 -2.646e-02 -3.545e+00 3.520e+00 -3.196e-03 1.787e-04 -5.551e-03
272 1 -2.606e-02 -3.545e+00 -3.519e+00 -1.300e-03 7.637e-04 2.325e-03
273 1 3.483e+00 -3.555e+00 1.526e-03 -7.339e-03 3.926e-03 4.335e-04
274 1 -3.523e+00 -7.785e-03 3.521e+00 2.811e-03 -3.201e-03 -6.698e-03
275 1 -3.521e+00 -7.789e-03 -3.519e+00 4.617e-03 -3.186e-03 7.242e-03
276 1 -3.519e+00 3.506e+00 -2.172e-03 4.736e-03 -3.283e-03 8.235e-04
277 1 1.753e+00 3.503e+00 -1.750e+00 9.123e-03 1.300e-02 -9.516e-03
278 1 1.753e+00 3.502e+00 1.750e+00 9.066e-03 1.153e-02 8.553e-03
279 1 -1.747e+00 5.267e+00 -1.259e-03 -5.138e-03 1.226e-02 -6.693e-04
280 1 3.479e+00 -2.471e-02 3.509e+00 -7.413e-03 -8.758e-03 1.412e-03
281 1 3.478e+00 -2.466e-02 -3.513e+00 -4.162e-03 -7.575e-03 -8.678e-04
282 1 1.902e-02 3.526e+00 3.513e+00 -8.958e-03 -4.416e-03 1.961e-03
283 1 1.760e-02 3.524e+00 -3.515e+00 -8.160e-03 -4.938e-03 -3.509e-04
284 1 3.458e+00 1.754e+00 1.716e+00 2.035e-02 -7.338e-03 3.722e-02
285 1 3.457e+00 1.756e+00 -1.716e+00 2.142e-02 -7.385e-03 -3.679e-02
286 1 -1.749e+00 1.760e+00 -3.516e+00 -5.591e-03 -2.946e-03 4.806e-04
287 1 -1.750e+00 1.759e+00 3.516e+00 -7.437e-03 -5.359e-03 -1.078e-03
288 1 1.729e+00 -1.784e+00 -3.518e+00 -5.800e-03 -2.504e-03 2.140e-03
289 1 1.730e+00 -1.784e+00 3.517e+00 -4.268e-03 -1.465e-03 -4.821e-03
290 1 3.482e+00 -1.789e+00 1.757e+00 -5.717e-03 1.854e-03 -1.404e-03
291 1 3.482e+00 -1.789e+00 -1.758e+00 -3.833e-03 7.208e-04 1.291e-03
292 1 -1.771e+00 -1.771e+00 -3.520e+00 -1.605e-03 -1.467e-03 3.002e-03
293 1 -1.772e+00 -1.771e+00 3.520e+00 -1.321e-03 -1.939e-03 -4.544e-03
294 1 -3.529e+00 -1.772e+00 1.760e+00 1.924e-03 -7.855e-04 -3.373e-03
295 1 -3.530e+00 -1.772e+00 -1.761e+00 -5.912e-04 -2.509e-03 4.845e-03
296 1 -1.781e+00 -3.541e+00 -1.762e+00 -9.884e-04 -1.402e-03 1.087e-03
297 1 -1.783e+00 -3.541e+00 1.760e+00 -6.542e-04 -3.177e-03 -3.002e-03
298 1 1.726e+00 -3.552e+00 1.761e+00 -4.280e-03 3.578e-03 -4.180e-03
299 1 1.727e+00 -3.554e+00 -1.763e+00 -3.114e-03 4.171e-03 2.879e-03
300 1 -3.521e+00 1.751e+00 1.760e+00 5.670e-03 -3.931e-03 -5.598e-03
301 1 -3.520e+00 1.751e+00 -1.760e+00 5.563e-03 -3.012e-03 6.154e-03
302 1 1.740e+00 -1.278e-02 -5.280e+00 -3.948e-03 -4.506e-03 4.627e-04
303 1 1.765e+00 1.768e+00 -3.524e+00 -1.076e-02 -9.580e-03 8.567e-03
304 1 1.767e+00 1.768e+00 3.525e+00 -1.041e-02 -1.003e-02 -6.655e-03
305 1 -1.873e-02 -1.776e+00 -5.279e+00 -6.102e-03 -5.550e-03 -6.799e-04
306 1 -1.761e+00 -4.688e-03 -5.279e+00 -7.115e-03 -4.984e-03 4.813e-04
307 1 -1.745e+00 3.514e+00 -1.758e+00 -3.863e-03 3.338e-03 1.396e-04
308 1 -1.746e+00 3.516e+00 1.757e+00 -3.290e-03 2.970e-03 -1.494e-03
309 1 7.702e-04 -3.057e-04 4.049e-04 1.744e+00 1.754e+00 -6.776e-05
310 1 7.934e-03 1.763e+00 5.279e+00 -7.763e-03 -4.042e-03 7.818e-04
311 1 1.736e+00 -1.129e-02 -1.750e+00 -1.956e-02 -6.354e-03 9.367e-03
312 1 1.736e+00 -1.213e-02 1.750e+00 -1.848e-02 -3.867e-03 -9.936e-03
313 1 2.526e-02 3.508e+00 1.049e-04 -1.008e-02 3.657e-02 -4.842e-05
314 1 -3.527e+00 -1.136e-02 -1.058e-03 -6.435e-03 -3.863e-03 -3.664e-04
315 1 -2.890e-02 -3.550e+00 -1.168e-05 -1.102e-04 -1.106e-02 -4.740e-04
316 1 -2.195e-03 -3.117e-03 3.516e+00 -8.998e-03 -4.308e-03 9.915e-03
317 1 -3.154e-03 -4.076e-03 -3.517e+00 -8.082e-03 -5.989e-03 -1.071e-02
318 1 3.470e+00 -2.589e-02 6.092e-04 2.179e-02 -4.125e-03 6.672e-04
319 1 -1.771e+00 -1.772e+00 -9.725e-04 2.367e-03 3.420e-03 1.092e-03
320 1 -1.934e-02 -1.778e+00 1.759e+00 -1.887e-03 4.282e-03 -9.782e-03
321 1 -2.095e-02 -1.777e+00 -1.758e+00 -4.093e-03 3.217e-03 9.602e-03
322 1 1.727e+00 -1.799e+00 1.179e-03 -1.353e-02 2.019e-02 -8.892e-05
323 1 -1.759e+00 -3.032e-03 -1.759e+00 1.040e-02 -3.544e-03 1.685e-02
324 1 -1.762e+00 -4.059e-03 1.758e+00 1.148e-02 -2.980e-03 -1.450e-02
325 1 -1.766e+00 1.757e+00 -4.242e-04 2.487e-02 -9.434e-03 -2.055e-03
326 1 1.906e-02 1.761e+00 1.748e+00 -1.906e-02 -5.967e-03 1.784e-03
327 1 1.893e-02 1.760e+00 -1.746e+00 -1.679e-02 -4.220e-03 -2.222e-03
ITEM: TIMESTEP
0
ITEM: NUMBER OF ATOMS
69
ITEM: BOX BOUNDS xy xz yz pp pp pp
                     0.00000000000000e+00 1.06200000000000e+01 0.00000000000000e+00
0.00000000000000e+00	1.06200000000000e+01	0.00000000000000e+00
0.00000000000000e+00	1.06200000000000e+01	0.00000000000000e+00
ITEM: ATOMS id type x y z DisplacementX DisplacementY DisplacementZ
328 1 -1.724e+00 5.281e+00 7.246e-04 -1.745e-03 8.653e-03 9.676e-03
329 1 3.463e+00 3.524e+00 -5.264e-04 -8.837e-03 -7.134e-03 1.131e-02
330 1 1.745e-02 3.513e+00 -3.499e+00 1.593e-02 1.272e-02 -4.436e-03
331 1 2.927e-02 3.532e+00 3.530e+00 -2.105e-03 -6.375e-03 -7.363e-03
332 1 5.245e+00 1.625e-03 -1.752e+00 -2.762e-03 1.392e-04 3.258e-04
333 1 5.234e+00 9.318e-03 1.769e+00 6.694e-03 -6.602e-03 2.286e-03
334 1 5.250e+00 -1.764e+00 9.136e-03 5.441e-03 -5.018e-03 7.729e-04
335 1 1.748e+00 -5.303e+00 1.006e-02 1.079e-03 -4.125e-03 4.196e-04
336 1 -5.265e+00 -1.762e+00 9.370e-03 -7.487e-04 -1.518e-03 1.324e-03
337 1 -1.768e+00 -5.301e+00 9.489e-03 -1.410e-03 -4.349e-03 1.027e-03
338 1 -5.256e+00 1.761e+00 1.142e-02 -6.686e-04 1.599e-04 7.824e-04
339 1 -5.263e+00 -1.109e-03 -1.751e+00 1.505e-03 2.880e-03 -3.423e-05
340 1 -5.259e+00 2.176e-03 1.769e+00 -7.979e-04 -5.429e-04 1.537e-03
341 1 -1.008e-02 -5.303e+00 -1.751e+00 8.774e-04 -4.070e-03 2.689e-05
342 1 -1.178e-02 -5.303e+00 1.771e+00 1.609e-03 -4.999e-03 1.569e-03
343 1 1.658e-02 3.513e+00 -2.045e-03 2.187e-02 2.823e-02 1.442e-02
344 1 3.488e+00 5.456e-04 -3.506e+00 -9.655e-04 -5.924e-03 4.887e-03
345 1 3.486e+00 1.900e-03 3.528e+00 -9.739e-05 -8.651e-03 -6.009e-03
346 1 -3.498e+00 5.656e-03 -3.509e+00 4.872e-03 -1.197e-03 5.982e-03
347 1 -3.495e+00 7.836e-03 3.528e+00 6.484e-03 -9.816e-04 -6.764e-03
348 1 -9.797e-03 -3.542e+00 -3.513e+00 -3.466e-04 2.035e-03 5.565e-03
349 1 -9.216e-03 -3.535e+00 3.531e+00 8.176e-05 -3.129e-04 -3.082e-03
350 1 5.231e+00 1.775e+00 1.103e-02 -3.331e-03 4.904e-04 -1.279e-03
351 1 3.502e+00 -3.536e+00 9.309e-03 -4.255e-03 1.310e-03 9.769e-04
352 1 -3.518e+00 -3.531e+00 1.003e-02 5.347e-03 3.099e-03 1.823e-03
353 1 -1.711e+00 3.517e+00 -1.749e+00 -4.327e-03 1.679e-02 7.998e-03
354 1 1.721e+00 1.765e+00 -3.467e+00 2.384e-02 -7.261e-03 -3.872e-02
355 1 -3.481e+00 3.525e+00 6.609e-03 3.216e-03 -4.148e-04 4.884e-03
356 1 -1.715e+00 1.772e+00 -3.498e+00 -1.179e-02 3.025e-03 -8.182e-03
357 1 -1.757e+00 -1.766e+00 -3.511e+00 2.343e-03 -3.657e-04 4.275e-03
358 1 -1.754e+00 -1.766e+00 3.529e+00 2.278e-03 -1.471e-03 -2.975e-03
359 1 1.746e+00 -1.777e+00 -3.509e+00 2.646e-04 6.158e-05 4.048e-03
360 1 1.746e+00 -1.773e+00 3.530e+00 -4.156e-03 -3.805e-03 -1.340e-03
361 1 -1.718e+00 3.535e+00 1.765e+00 -1.419e-03 -1.803e-04 -5.697e-04
362 1 3.491e+00 1.767e+00 -1.751e+00 -2.560e-02 5.724e-04 5.816e-03
363 1 3.453e+00 1.781e+00 1.756e+00 1.167e-02 -1.164e-02 1.039e-02
364 1 1.748e+00 1.764e+00 3.528e+00 -1.721e-03 -6.443e-03 -2.807e-03
365 1 3.499e+00 -1.771e+00 -1.749e+00 -2.161e-03 -2.859e-03 4.173e-03
366 1 3.497e+00 -1.770e+00 1.770e+00 -1.731e-03 -4.230e-03 -2.102e-03
367 1 1.748e+00 -3.544e+00 -1.751e+00 -2.926e-03 2.262e-03 2.972e-03
368 1 1.746e+00 -3.539e+00 1.771e+00 -2.431e-03 -2.303e-03 -4.662e-04
369 1 -3.507e+00 -1.761e+00 -1.751e+00 4.412e-03 -2.122e-04 4.892e-03
370 1 -3.508e+00 -1.762e+00 1.770e+00 3.212e-03 4.155e-04 -4.240e-03
371 1 -1.768e+00 -3.538e+00 -1.750e+00 4.885e-03 1.983e-03 3.436e-03
372 1 -1.764e+00 -3.535e+00 1.768e+00 1.663e-03 -1.183e-03 -2.667e-03
373 1 -3.502e+00 1.769e+00 -1.750e+00 1.838e-02 -2.063e-03 5.230e-03
374 1 -3.485e+00 1.770e+00 1.765e+00 4.791e-04 -4.701e-03 1.933e-03
375 1 1.719e+00 1.765e+00 -3.365e-02 9.828e-03 -2.437e-02 4.558e-02
376 1 -1.739e+00 8.783e-03 -5.266e+00 -4.785e-03 -2.482e-03 1.034e-04
377 1 -6.954e-03 -1.771e+00 -5.266e+00 8.797e-06 -5.453e-03 -4.609e-04
378 1 -1.726e+00 1.776e+00 3.529e+00 1.085e-03 -4.561e-03 -1.505e-03
379 1 9.145e-04 -1.489e-04 -3.502e+00 -8.302e-04 -4.248e-03 -1.901e-02
380 1 5.057e-04 2.368e-03 1.116e-03 2.456e-02 1.768e+00 -1.742e+00
381 1 -1.737e+00 1.100e-02 -1.752e+00 1.492e-02 -6.643e-03 1.797e-02
382 1 1.742e+00 -1.276e-02 -5.260e+00 5.555e-03 -8.039e-03 -9.168e-03
383 1 2.902e-02 1.778e+00 -5.273e+00 -2.743e-03 2.537e-04 2.927e-03
384 1 -1.716e+00 1.771e+00 -6.305e-03 5.889e-03 -8.113e-03 1.458e-02
385 1 1.744e+00 -1.780e+00 6.448e-03 -1.236e-02 8.172e-03 3.009e-03
386 1 -1.756e+00 -1.769e+00 8.201e-03 1.415e-02 8.354e-03 1.943e-03
387 1 3.913e-03 -2.737e-03 3.530e+00 -2.435e-03 -2.294e-03 9.868e-03
388 1 -1.739e+00 9.342e-03 1.767e+00 1.518e-02 -5.245e-03 -1.516e-02
389 1 -8.486e-03 -1.786e+00 -1.751e+00 2.216e-03 1.942e-02 1.005e-02
390 1 -7.119e-03 -1.773e+00 1.766e+00 -1.647e-03 9.864e-04 -4.381e-03
391 1 1.733e+00 -1.405e-02 -1.752e+00 -6.271e-03 -4.913e-03 1.695e-02
392 1 3.083e-02 1.777e+00 1.772e+00 -5.098e-03 -1.096e-02 -1.120e-02
393 1 3.487e+00 6.016e-04 4.798e-03 1.261e-02 -9.111e-03 5.847e-03
394 1 -3.495e+00 6.634e-03 6.144e-03 -9.422e-03 -3.610e-03 1.744e-03
395 1 -9.683e-03 -3.540e+00 1.195e-02 3.136e-03 -1.075e-02 -1.276e-03
396 1 1.744e+00 -1.207e-02 1.760e+00 -1.700e-02 -8.188e-03 -5.783e-03
ITEM: TIMESTEP
0
ITEM: NUMBER OF ATOMS
66
ITEM: BOX BOUNDS xy xz yz pp pp pp
                     0.00000000000000e+00 1.06200000000000e+01 0.00000000000000e+00
0.00000000000000e+00	1.06200000000000e+01	0.00000000000000e+00
0.00000000000000e+00	1.06200000000000e+01	0.00000000000000e+00
ITEM: ATOMS id type x y z DisplacementX DisplacementY DisplacementZ
397 1 5.179e+00 1.754e+00 2.802e-03 1.156e-02 4.549e-03 7.925e-03
398 1 -1.776e+00 5.235e+00 1.353e-02 -9.057e-03 3.472e-03 4.860e-03