ITEM: TIMESTEP
0
ITEM: NUMBER OF ATOMS
61
ITEM: BOX BOUNDS xy xz yz pp pp pp
                     0.00000000000000e+00 1.06200000000000e+01 0.00000000000000e+00
0.00000000000000e+00	1.06200000000000e+01	0.00000000000000e+00
0.00000000000000e+00	1.06200000000000e+01	0.00000000000000e+00
ITEM: ATOMS id type x y z DisplacementX DisplacementY DisplacementZ
1 1 -1.599e-02 5.275e+00 -1.771e+00 2.766e-02 -1.321e-01 -1.120e-01
2 1 -5.287e+00 -1.632e-02 1.758e+00 -8.581e-03 -9.737e-02 -7.641e-02
3 1 5.265e+00 -1.133e-02 1.741e+00 -4.871e-02 -4.493e-02 -3.313e-02
4 1 5.262e+00 -8.623e-03 -1.766e+00 1.958e-02 -1.007e-01 -1.169e-01
5 1 -5.279e+00 -9.178e-03 -1.756e+00 -8.418e-02 -1.468e-01 -1.342e-02
6 1 -2.119e-02 -5.309e+00 -1.755e+00 -1.678e-02 -9.462e-02 -7.170e-02
7 1 -2.741e-03 -5.299e+00 1.751e+00 6.993e-02 -7.724e-02 4.433e-03
8 1 8.666e-03 5.309e+00 1.760e+00 6.290e-03 1.677e-02 6.027e-02
9 1 -5.301e+00 1.744e+00 -1.432e-02 -1.375e-02 -9.511e-02 -7.862e-02
10 1 5.275e+00 1.762e+00 -1.485e-02 -8.719e-03 -1.080e-01 -1.205e-01
11 1 -1.746e+00 -5.292e+00 -2.936e-02 3.402e-02 -8.658e-02 -2.155e-02
12 1 1.756e+00 -5.302e+00 -2.591e-03 1.576e-02 -8.495e-02 -3.373e-02
13 1 -5.288e+00 -1.761e+00 -1.379e-02 -1.469e-02 -8.479e-02 -4.011e-02
14 1 5.260e+00 -1.756e+00 1.186e-03 -3.507e-03 -8.215e-02 -5.117e-02
15 1 -1.737e+00 5.285e+00 1.890e-03 3.134e-02 -6.544e-02 -3.392e-02
16 1 1.766e+00 5.273e+00 -4.671e-03 1.654e-03 -7.276e-02 -2.597e-02
17 1 3.514e+00 -3.532e+00 -3.770e-02 -6.863e-03 -4.154e-02 -5.290e-02
18 1 -3.510e+00 -3.550e+00 -1.378e-02 1.289e-05 -3.459e-02 -2.904e-02
19 1 3.496e+00 3.503e+00 -9.836e-03 -2.076e-02 -4.500e-02 -2.596e-02
20 1 -3.529e+00 3.495e+00 -1.870e-02 -1.947e-02 -5.422e-02 -1.690e-02
21 1 -1.742e+00 3.498e+00 1.743e+00 3.443e-02 1.024e-03 -2.228e-02
22 1 1.765e+00 3.505e+00 1.747e+00 -6.016e-02 9.776e-02 4.489e-02
23 1 7.579e-03 3.495e+00 3.498e+00 -2.460e-02 -8.670e-02 -8.552e-02
24 1 -1.744e+00 3.497e+00 -1.770e+00 -6.360e-02 7.228e-02 4.569e-02
25 1 1.765e+00 3.515e+00 -1.778e+00 1.751e-02 1.929e-03 1.396e-03
26 1 -1.736e+00 -3.547e+00 -1.781e+00 -1.804e-02 4.185e-02 1.468e-02
27 1 1.762e+00 -3.548e+00 -1.775e+00 -3.698e-02 2.391e-02 -6.977e-03
28 1 -1.774e+00 -3.542e+00 1.748e+00 -2.184e-03 7.850e-03 -6.822e-03
29 1 1.746e+00 -3.534e+00 1.744e+00 -1.856e-02 1.159e-03 -2.302e-02
30 1 3.513e+00 -1.764e+00 -1.773e+00 -1.049e-02 4.637e-02 3.933e-02
31 1 -3.515e+00 -1.776e+00 -1.771e+00 -5.315e-03 -1.018e-02 2.053e-02
32 1 -3.536e+00 -1.755e+00 1.734e+00 2.840e-02 5.795e-02 5.935e-03
33 1 3.511e+00 -1.773e+00 1.748e+00 3.033e-02 1.682e-02 2.321e-02
34 1 3.510e+00 1.749e+00 -1.790e+00 6.468e-02 -8.281e-03 -3.902e-02
35 1 -3.524e+00 1.764e+00 -1.768e+00 -4.203e-02 -1.083e-02 1.570e-02
36 1 -3.529e+00 1.744e+00 1.735e+00 4.785e-02 4.989e-02 8.170e-02
37 1 3.545e+00 1.745e+00 1.764e+00 -1.300e-02 1.058e-01 1.334e-01
38 1 -3.513e+00 2.430e-03 3.508e+00 -7.624e-03 -3.202e-02 -5.062e-02
39 1 3.516e+00 -9.724e-03 3.510e+00 7.409e-03 -2.805e-02 -4.962e-02
40 1 1.332e-02 -3.537e+00 3.529e+00 -3.263e-02 -5.586e-02 -3.597e-02
41 1 1.744e+00 1.749e+00 3.482e+00 1.036e-03 -6.132e-02 -1.723e-02
42 1 -1.739e+00 1.756e+00 3.487e+00 1.665e-02 -8.360e-02 -9.339e-03
43 1 7.526e-03 -9.731e-03 -9.679e-03 1.627e-01 5.582e-01 7.692e-01
44 1 3.645e-03 1.930e-02 3.494e+00 -1.719e-03 3.391e-02 1.163e-01
45 1 1.746e+00 6.486e-04 1.742e+00 -8.641e-02 1.374e-01 1.176e-01
46 1 -1.734e+00 2.648e-03 1.745e+00 -8.134e-02 1.355e-01 1.153e-01
47 1 1.749e+00 -1.758e+00 3.517e+00 -7.214e-03 1.254e-02 -3.705e-02
48 1 -1.758e+00 -1.774e+00 3.507e+00 -3.972e-02 -5.857e-03 1.001e-02
49 1 1.210e-02 3.498e+00 -3.110e-03 -2.924e-02 1.388e-01 1.085e-01
50 1 -1.738e+00 1.744e+00 6.257e-03 -1.882e-02 1.106e-01 1.672e-02
51 1 1.738e+00 1.752e+00 4.925e-03 1.149e-02 -1.184e-02 1.785e-02
52 1 -3.252e-03 1.766e+00 -1.754e+00 3.365e-02 1.492e-01 1.214e-01
53 1 -1.730e+00 -1.788e-02 -1.776e+00 -1.081e-01 2.664e-01 2.555e-01
54 1 1.771e+00 3.693e-03 -1.769e+00 -6.530e-02 1.970e-01 2.333e-01
55 1 8.553e-03 -1.759e+00 -1.764e+00 -4.382e-02 2.302e-01 1.701e-01
56 1 3.205e-03 -1.775e+00 1.741e+00 -3.046e-03 1.576e-01 1.300e-01
57 1 -3.531e+00 1.742e-02 -4.267e-03 1.525e-02 1.149e-01 1.576e-01
58 1 3.519e+00 5.640e-03 -6.788e-04 3.533e-02 1.439e-01 1.479e-01
59 1 -2.757e-02 -3.539e+00 -2.235e-02 4.635e-02 1.264e-01 5.187e-02
60 1 -1.750e+00 -1.780e+00 -2.431e-02 -2.653e-02 1.826e-01 1.087e-01
61 1 1.753e+00 -1.762e+00 -1.128e-02 -8.649e-02 1.437e-01 1.333e-01
ITEM: TIMESTEP
0
ITEM: NUMBER OF ATOMS
61
ITEM: BOX BOUNDS xy xz yz pp pp pp
                     0.00000000000000e+00 1.06200000000000e+01 0.00000000000000e+00
0.00000000000000e+00	1.06200000000000e+01	0.00000000000000e+00
0.00000000000000e+00	1.06200000000000e+01	0.00000000000000e+00
ITEM: ATOMS id type x y z DisplacementX DisplacementY DisplacementZ
62 1 7.382e-03 -5.295e+00 1.746e+00 4.849e-02 -1.017e-01 8.434e-02
63 1 5.275e+00 -1.303e-02 1.761e+00 9.655e-02 -6.935e-02 4.085e-02
64 1 5.276e+00 -2.053e-02 -1.756e+00 5.022e-02 -7.907e-02 5.860e-02
65 1 1.548e-03 -5.303e+00 -1.758e+00 1.420e-01 -1.493e-01 1.197e-01
66 1 -5.256e+00 -3.715e-03 1.747e+00 5.862e-02 -1.121e-01 9.816e-03
67 1 -5.252e+00 -1.849e-03 -1.756e+00 1.499e-01 -1.250e-01 1.834e-02
68 1 3.135e-02 5.263e+00 1.742e+00 8.405e-02 -5.765e-02 1.374e-02
69 1 1.965e-02 5.294e+00 -1.755e+00 1.017e-01 -8.966e-02 1.932e-02
70 1 -1.729e+00 5.283e+00 -1.205e-02 3.506e-02 4.060e-02 2.315e-02
71 1 -5.274e+00 1.753e+00 1.033e-02 -7.088e-03 1.076e-02 -1.640e-03
72 1 -3.473e+00 3.495e+00 3.457e-03 3.426e-02 -4.736e-02 -7.449e-03
73 1 1.756e+00 -5.307e+00 1.456e-03 1.296e-01 -1.305e-01 7.703e-02
74 1 5.283e+00 -1.766e+00 5.352e-03 1.098e-01 -5.155e-02 -7.860e-03
75 1 -1.743e+00 -5.297e+00 -2.488e-03 1.015e-01 -1.430e-01 2.593e-02
76 1 5.290e+00 1.751e+00 1.870e-02 5.292e-02 -7.150e-02 2.334e-02
77 1 -5.256e+00 -1.772e+00 -2.198e-03 7.471e-02 -7.583e-02 2.349e-02
78 1 1.778e+00 5.271e+00 2.534e-02 9.334e-02 -1.013e-01 1.132e-02
79 1 3.509e+00 -3.541e+00 3.388e-03 3.052e-02 -4.911e-02 -4.567e-03
80 1 3.544e+00 3.506e+00 8.327e-03 6.544e-02 -8.412e-02 -9.253e-03
81 1 -3.501e+00 -3.538e+00 4.901e-03 5.384e-02 -6.395e-02 -1.084e-02
82 1 -1.724e+00 3.492e+00 -1.745e+00 2.397e-02 -4.926e-03 -2.826e-03
83 1 -1.728e+00 3.503e+00 1.735e+00 3.933e-03 2.451e-02 1.414e-02
84 1 -3.492e+00 1.733e+00 -1.753e+00 -2.124e-02 9.946e-03 -3.783e-03
85 1 -3.474e+00 1.755e+00 1.747e+00 4.193e-02 -3.659e-04 3.092e-02
86 1 -3.497e+00 -1.773e+00 -1.777e+00 -8.061e-03 2.285e-02 -4.026e-02
87 1 -3.483e+00 -1.768e+00 1.746e+00 -5.186e-02 3.946e-02 1.667e-02
88 1 1.766e+00 3.519e+00 -1.756e+00 3.125e-02 -1.220e-02 -1.833e-03
89 1 1.784e+00 3.504e+00 1.754e+00 -3.397e-02 3.113e-02 -2.542e-02
90 1 1.763e+00 -3.541e+00 1.760e+00 -3.153e-02 6.436e-02 1.658e-02
91 1 3.512e+00 -1.781e+00 -1.747e+00 5.138e-02 -4.469e-02 -3.106e-02
92 1 3.530e+00 -1.783e+00 1.744e+00 -7.495e-02 8.242e-02 -9.510e-03
93 1 1.759e+00 -3.536e+00 -1.758e+00 5.958e-02 -8.119e-02 1.924e-02
94 1 -1.733e+00 -3.518e+00 1.763e+00 5.341e-02 -5.261e-02 -1.645e-02
95 1 3.530e+00 1.765e+00 1.740e+00 4.353e-02 -6.174e-02 -5.401e-02
96 1 3.523e+00 1.739e+00 -1.754e+00 1.062e-02 1.231e-02 -1.144e-02
97 1 -1.752e+00 -3.544e+00 -1.776e+00 4.479e-02 -8.454e-03 -1.143e-02
98 1 1.598e-02 -3.522e+00 3.517e+00 6.666e-02 -6.806e-02 -2.096e-02
99 1 3.537e+00 -1.987e-02 3.515e+00 8.667e-02 -9.159e-02 8.617e-03
100 1 -3.498e+00 4.425e-03 -3.515e+00 5.659e-02 -6.967e-02 -1.231e-02
101 1 1.807e-02 3.500e+00 -3.507e+00 4.199e-02 -1.072e-01 -4.185e-02
102 1 -2.001e-02 4.537e-03 -1.432e-02 -7.546e-01 6.874e-01 -1.322e-02
103 1 -1.737e+00 -1.748e+00 3.521e+00 1.335e-01 -7.211e-02 -6.104e-02
104 1 1.767e+00 1.743e+00 3.512e+00 7.907e-02 -9.511e-02 -2.159e-02
105 1 1.771e+00 -1.772e+00 -3.534e+00 8.834e-02 -1.140e-01 3.168e-02
106 1 -1.748e+00 -1.252e-02 1.767e+00 1.756e-02 2.037e-02 4.402e-02
107 1 -1.757e+00 -1.561e-02 -1.746e+00 -8.185e-02 1.136e-01 2.621e-02
108 1 2.438e-03 1.763e+00 1.756e+00 -5.080e-02 6.176e-02 4.777e-02
109 1 4.638e-03 1.753e+00 -1.749e+00 -1.445e-01 1.708e-01 7.700e-03
110 1 -3.494e+00 -6.289e-03 5.389e-03 -2.309e-01 1.987e-01 -6.570e-03
111 1 9.200e-03 3.510e+00 2.569e-03 -1.841e-01 1.470e-01 -6.648e-02
112 1 -1.728e+00 1.735e+00 3.509e+00 1.755e-02 -7.040e-02 6.692e-03
113 1 -1.095e-03 9.883e-03 3.531e+00 -2.773e-02 -2.419e-02 -3.844e-02
114 1 7.782e-03 -1.792e+00 -1.763e+00 -2.130e-01 1.865e-01 3.086e-03
115 1 2.345e-02 -1.786e+00 1.768e+00 -2.159e-01 2.078e-01 3.761e-02
116 1 1.770e+00 -2.723e-03 1.745e+00 -1.268e-01 1.806e-01 7.502e-02
117 1 1.775e+00 -1.997e-02 -1.755e+00 -9.924e-02 1.142e-01 9.386e-03
118 1 6.180e-05 -3.531e+00 1.501e-02 -1.447e-01 1.045e-01 -5.035e-02
119 1 3.532e+00 -1.261e-02 2.722e-04 -1.726e-01 1.324e-01 -9.803e-02
120 1 1.764e+00 -1.754e+00 -1.192e-02 -1.642e-01 2.185e-01 -6.980e-03
121 1 -1.753e+00 -1.782e+00 -9.482e-03 -1.923e-01 2.646e-01 8.441e-03
122 1 1.800e+00 1.739e+00 -2.098e-03 -1.874e-01 2.409e-01 8.331e-02
ITEM: TIMESTEP
0
ITEM: NUMBER OF ATOMS
61
ITEM: BOX BOUNDS xy xz yz pp pp pp
                     0.00000000000000e+00 1.06200000000000e+01 0.00000000000000e+00
0.00000000000000e+00	1.06200000000000e+01	0.00000000000000e+00
0.00000000000000e+00	1.06200000000000e+01	0.00000000000000e+00
ITEM: ATOMS id type x y z DisplacementX DisplacementY DisplacementZ
123 1 5.250e+00 1.537e-02 -1.772e+00 -2.146e-01 7.166e-03 -1.921e-01
124 1 -3.400e-02 -5.289e+00 1.740e+00 -1.249e-01 -4.211e-02 -9.216e-02
125 1 -1.749e-04 5.267e+00 1.771e+00 -1.273e-01 -2.808e-02 -8.912e-02
126 1 1.291e-02 5.272e+00 -1.787e+00 -1.868e-01 -1.240e-02 -1.940e-01
127 1 -1.839e-02 -5.288e+00 -1.789e+00 -1.991e-01 -1.981e-02 -1.855e-01
128 1 -5.314e+00 -1.553e-02 -1.779e+00 -1.478e-01 -3.702e-02 -1.865e-01
129 1 -5.302e+00 3.250e-03 1.745e+00 -8.777e-02 8.335e-03 -9.218e-02
130 1 5.267e+00 2.833e-03 1.759e+00 2.066e-02 -6.295e-02 2.824e-02
131 1 1.733e+00 -5.307e+00 -3.551e-02 -1.216e-01 -3.342e-02 -8.596e-02
132 1 1.750e+00 5.295e+00 1.550e-02 -1.365e-01 -2.845e-02 -1.268e-01
133 1 -5.312e+00 -1.771e+00 -1.411e-02 -6.794e-02 -4.386e-02 -7.837e-02
134 1 -5.293e+00 1.748e+00 -1.436e-02 -7.571e-02 -4.781e-02 -1.062e-01
135 1 -1.766e+00 -5.267e+00 -8.685e-03 -9.340e-02 -4.072e-02 -1.077e-01
136 1 -1.772e+00 5.261e+00 -6.911e-03 -1.066e-01 -3.611e-02 -9.270e-02
137 1 5.250e+00 -1.775e+00 -1.188e-02 -6.409e-02 -2.159e-02 -7.169e-02
138 1 5.260e+00 1.761e+00 -1.535e-02 -8.716e-02 -4.510e-03 -8.537e-02
139 1 -3.522e+00 3.489e+00 -5.720e-03 -2.610e-02 1.508e-02 -5.175e-02
140 1 -3.534e+00 -3.544e+00 -2.364e-02 -1.273e-02 5.398e-03 -4.514e-02
141 1 3.508e+00 3.540e+00 -1.443e-02 2.657e-02 -6.829e-04 1.433e-02
142 1 3.491e+00 -3.528e+00 -2.134e-02 2.508e-02 -1.763e-02 2.319e-02
143 1 3.493e+00 -1.745e+00 1.747e+00 1.971e-02 5.465e-03 2.226e-03
144 1 3.503e+00 1.758e+00 1.756e+00 1.923e-02 5.138e-03 1.508e-02
145 1 3.498e+00 1.823e-02 3.505e+00 -1.296e-01 -1.171e-02 -7.438e-02
146 1 3.494e+00 -1.737e+00 -1.774e+00 -2.126e-02 -3.271e-03 -3.540e-02
147 1 3.510e+00 1.780e+00 -1.774e+00 2.156e-03 1.685e-03 -3.387e-03
148 1 -3.527e+00 -1.758e+00 -1.771e+00 2.864e-02 -1.542e-02 -1.240e-02
149 1 -3.536e+00 1.758e+00 -1.782e+00 3.847e-02 -1.511e-02 9.397e-03
150 1 -3.539e+00 -1.775e+00 1.739e+00 -7.744e-03 6.586e-03 1.747e-02
151 1 -3.549e+00 1.750e+00 1.757e+00 7.222e-04 1.289e-02 7.798e-03
152 1 -1.761e+00 3.523e+00 -1.806e+00 3.159e-06 -1.112e-02 -1.648e-02
153 1 -1.779e+00 -3.519e+00 -1.762e+00 -4.183e-03 -8.201e-03 -2.982e-02
154 1 -1.766e+00 -3.532e+00 1.735e+00 7.450e-02 -1.769e-02 7.890e-02
155 1 -1.766e+00 3.506e+00 1.747e+00 7.863e-02 -1.336e-02 6.210e-02
156 1 1.750e+00 3.487e+00 -1.775e+00 6.663e-03 -5.677e-03 1.060e-02
157 1 1.730e+00 -3.517e+00 -1.776e+00 -1.112e-02 -7.406e-03 -1.296e-02
158 1 1.729e+00 -3.530e+00 1.747e+00 1.126e-01 2.383e-02 1.166e-01
159 1 1.747e+00 3.540e+00 1.741e+00 1.078e-01 2.154e-02 1.216e-01
160 1 -2.157e-02 -3.530e+00 3.499e+00 -4.388e-02 -8.729e-03 -3.466e-02
161 1 -1.051e-02 3.499e+00 3.504e+00 -2.889e-02 -1.933e-02 -1.795e-02
162 1 -3.526e+00 1.656e-02 3.489e+00 -3.712e-02 -3.653e-02 -7.364e-02
163 1 1.749e+00 1.754e+00 3.478e+00 -5.093e-02 -1.279e-02 -4.816e-02
164 1 1.750e+00 -1.757e+00 3.485e+00 -3.337e-02 -2.272e-02 -1.807e-02
165 1 -1.468e-02 1.394e-02 -9.397e-03 8.381e-01 -6.877e-02 9.290e-01
166 1 8.671e-03 3.975e-03 3.492e+00 4.563e-02 -2.456e-02 3.805e-02
167 1 -1.351e-03 1.758e+00 1.745e+00 2.972e-02 8.039e-03 5.545e-02
168 1 -4.065e-03 -1.751e+00 1.728e+00 3.388e-03 1.107e-02 1.273e-02
169 1 -1.755e+00 1.770e+00 3.510e+00 -1.725e-02 4.583e-03 -3.188e-02
170 1 -1.797e+00 -1.772e+00 3.496e+00 -2.768e-02 1.371e-02 -1.440e-02
171 1 3.513e+00 -1.167e-03 -6.535e-03 1.400e-01 -7.777e-03 1.063e-01
172 1 1.748e+00 -1.768e+00 -2.341e-03 4.811e-02 4.449e-02 3.895e-02
173 1 1.747e+00 1.766e+00 -1.958e-02 2.300e-02 4.858e-02 5.663e-03
174 1 1.730e+00 5.958e-03 -1.790e+00 1.758e-01 -2.717e-02 1.709e-01
175 1 -7.773e-03 -1.758e+00 -1.773e+00 1.389e-01 -3.869e-02 1.518e-01
176 1 5.427e-03 1.766e+00 -1.775e+00 1.722e-01 -3.445e-02 1.778e-01
177 1 -1.771e+00 6.770e-03 -1.767e+00 1.362e-01 -2.241e-02 1.369e-01
178 1 -1.796e+00 -1.040e-02 1.742e+00 1.723e-01 1.811e-02 1.385e-01
179 1 -1.497e-02 -3.521e+00 -1.888e-02 1.520e-01 3.069e-02 1.423e-01
180 1 -8.616e-03 3.511e+00 -2.219e-02 1.400e-01 3.259e-02 1.355e-01
181 1 -3.536e+00 2.049e-04 -1.659e-02 9.660e-02 3.990e-02 9.770e-02
182 1 -1.758e+00 -1.757e+00 -5.853e-03 9.233e-02 6.677e-02 9.391e-02
183 1 -1.788e+00 1.764e+00 -1.605e-02 5.655e-02 6.500e-02 6.369e-02
ITEM: TIMESTEP
0
ITEM: NUMBER OF ATOMS
61
ITEM: BOX BOUNDS xy xz yz pp pp pp
                     0.00000000000000e+00 1.06200000000000e+01 0.00000000000000e+00
0.00000000000000e+00	1.06200000000000e+01	0.00000000000000e+00
0.00000000000000e+00	1.06200000000000e+01	0.00000000000000e+00
ITEM: ATOMS id type x y z DisplacementX DisplacementY DisplacementZ
184 1 -5.260e+00 -7.195e-03 -1.795e+00 1.633e-01 1.720e-02 -1.102e-01
185 1 1.767e-02 -5.282e+00 1.735e+00 9.323e-02 -5.679e-02 -5.392e-02
186 1 3.652e-02 5.299e+00 1.759e+00 1.238e-01 -4.217e-02 -4.061e-02
187 1 2.908e-02 5.280e+00 -1.784e+00 1.351e-01 -3.350e-02 -7.277e-02
188 1 1.576e-02 -5.307e+00 -1.777e+00 1.279e-01 -4.556e-02 -4.252e-02
189 1 5.270e+00 -1.505e-03 -1.790e+00 1.275e-01 -3.960e-02 -9.219e-02
190 1 5.302e+00 -2.449e-02 1.750e+00 2.819e-02 1.777e-02 -1.918e-02
191 1 -5.275e+00 1.103e-02 1.753e+00 1.983e-02 -3.146e-02 6.122e-02
192 1 -1.761e+00 -5.304e+00 -2.099e-02 1.142e-01 -8.149e-03 -1.823e-02
193 1 -1.728e+00 5.263e+00 -8.151e-03 1.289e-01 -3.097e-02 -4.319e-02
194 1 5.287e+00 -1.774e+00 -5.092e-03 9.730e-02 2.066e-02 -4.823e-02
195 1 5.273e+00 1.761e+00 -1.504e-02 8.238e-02 8.990e-03 -3.991e-02
196 1 1.782e+00 -5.318e+00 -2.491e-02 7.579e-02 -4.872e-02 -1.162e-02
197 1 1.777e+00 5.299e+00 -3.586e-02 5.324e-02 -6.280e-02 4.096e-03
198 1 -5.266e+00 -1.753e+00 -1.060e-02 1.295e-01 -3.141e-02 -5.026e-02
199 1 -5.252e+00 1.769e+00 -1.259e-02 1.249e-01 -1.771e-02 -6.750e-02
200 1 3.544e+00 3.523e+00 -1.472e-02 5.630e-02 2.965e-02 -7.368e-02
201 1 3.517e+00 -3.531e+00 -9.331e-03 4.436e-02 2.031e-02 -9.680e-02
202 1 -3.489e+00 3.515e+00 -1.993e-02 5.344e-02 2.060e-02 -6.639e-02
203 1 -3.503e+00 -3.523e+00 -1.898e-02 3.981e-02 3.523e-02 -8.093e-02
204 1 -3.495e+00 -1.751e+00 1.732e+00 -2.160e-02 4.772e-02 -2.397e-03
205 1 -3.490e+00 1.757e+00 1.733e+00 -2.123e-02 1.164e-02 2.584e-02
206 1 -3.474e+00 -6.654e-03 3.489e+00 6.212e-02 1.533e-02 -2.305e-02
207 1 -3.483e+00 -1.762e+00 -1.777e+00 3.299e-02 1.653e-02 -6.520e-02
208 1 -3.492e+00 1.767e+00 -1.781e+00 1.453e-02 -8.300e-03 -2.241e-02
209 1 3.522e+00 -1.772e+00 -1.786e+00 3.679e-03 -5.477e-02 -1.115e-02
210 1 3.523e+00 1.750e+00 -1.777e+00 2.350e-05 -5.796e-02 1.111e-02
211 1 3.528e+00 -1.770e+00 1.732e+00 -6.460e-02 2.175e-02 1.221e-02
212 1 3.517e+00 1.753e+00 1.748e+00 -2.578e-02 9.697e-03 2.003e-02
213 1 1.782e+00 3.539e+00 -1.774e+00 9.866e-03 -3.774e-02 -1.742e-02
214 1 1.770e+00 -3.496e+00 -1.797e+00 5.500e-02 -1.384e-02 -5.915e-02
215 1 1.766e+00 -3.535e+00 1.744e+00 -3.702e-02 8.705e-04 2.427e-02
216 1 1.779e+00 3.517e+00 1.742e+00 -3.068e-02 8.607e-03 3.600e-02
217 1 -1.745e+00 3.525e+00 -1.764e+00 7.483e-03 -1.548e-02 -5.506e-02
218 1 -1.748e+00 -3.524e+00 -1.787e+00 2.403e-02 -1.122e-02 -2.952e-02
219 1 -1.744e+00 -3.530e+00 1.741e+00 -9.611e-02 3.603e-02 1.162e-01
220 1 -1.739e+00 3.530e+00 1.740e+00 -8.944e-02 5.851e-02 6.831e-02
221 1 -1.721e-03 -3.520e+00 3.494e+00 7.192e-02 -1.547e-02 -5.127e-02
222 1 1.795e-02 3.520e+00 3.527e+00 7.685e-02 -3.300e-02 -3.881e-02
223 1 3.531e+00 1.627e-03 3.514e+00 1.404e-01 -2.618e-02 -1.289e-01
224 1 -1.736e+00 1.761e+00 3.483e+00 2.074e-02 -1.600e-02 -5.576e-03
225 1 -1.758e+00 -1.743e+00 3.502e+00 5.781e-02 5.479e-03 -3.179e-02
226 1 -1.141e-02 -1.391e-02 -1.637e-02 -8.791e-01 -2.749e-01 1.234e+00
227 1 6.089e-03 2.577e-03 3.476e+00 -1.374e-02 -4.926e-02 7.698e-02
228 1 1.040e-02 1.748e+00 1.750e+00 -7.069e-03 4.603e-02 -3.324e-02
229 1 1.096e-02 -1.751e+00 1.730e+00 -2.649e-02 5.531e-02 -3.872e-02
230 1 1.774e+00 1.758e+00 3.492e+00 2.091e-02 -2.798e-02 -2.057e-02
231 1 1.773e+00 -1.764e+00 3.499e+00 3.590e-02 -2.259e-02 -5.241e-02
232 1 -3.488e+00 1.974e-02 -3.869e-03 -1.417e-01 -3.816e-02 4.046e-02
233 1 -1.754e+00 -1.743e+00 2.603e-03 -1.062e-01 1.428e-01 8.893e-02
234 1 -1.744e+00 1.744e+00 -1.047e-02 -1.478e-01 1.267e-01 6.972e-02
235 1 -1.744e+00 1.203e-02 -1.786e+00 -1.829e-01 -6.840e-02 1.844e-01
236 1 7.833e-03 -1.756e+00 -1.776e+00 -4.335e-02 2.285e-02 1.245e-02
237 1 7.566e-03 1.750e+00 -1.781e+00 -5.887e-02 -2.761e-03 3.481e-02
238 1 1.745e+00 7.243e-03 -1.737e+00 -8.350e-03 -6.137e-03 -3.312e-02
239 1 1.776e+00 -1.294e-02 1.748e+00 -1.712e-01 3.642e-02 1.740e-01
240 1 -1.719e-02 -3.538e+00 -8.839e-03 -2.031e-01 7.571e-03 1.780e-01
241 1 3.560e-02 3.537e+00 -1.410e-02 -2.113e-01 7.047e-03 1.709e-01
242 1 3.528e+00 -1.261e-02 -1.324e-02 -2.241e-01 -5.194e-02 2.625e-01
243 1 1.764e+00 -1.771e+00 -1.430e-02 -1.551e-01 1.830e-01 1.301e-01
244 1 1.762e+00 1.757e+00 -2.679e-03 -1.553e-01 2.262e-01 3.829e-02
ITEM: TIMESTEP
0
ITEM: NUMBER OF ATOMS
61
ITEM: BOX BOUNDS xy xz yz pp pp pp
                     0.00000000000000e+00 1.06200000000000e+01 0.00000000000000e+00
0.00000000000000e+00	1.06200000000000e+01	0.00000000000000e+00
0.00000000000000e+00	1.06200000000000e+01	0.00000000000000e+00
ITEM: ATOMS id type x y z DisplacementX DisplacementY DisplacementZ
245 1 -5.298e+00 1.120e-02 1.761e+00 9.254e-03 1.218e-02 5.822e-02
246 1 3.899e-04 5.295e+00 1.754e+00 -1.372e-01 1.765e-01 4.491e-02
247 1 -7.094e-03 5.292e+00 -1.777e+00 -4.046e-02 4.883e-02 3.916e-02
248 1 -5.298e+00 2.379e-03 -1.762e+00 -1.430e-01 2.036e-01 2.018e-02
249 1 -1.554e-02 -5.266e+00 1.759e+00 -8.091e-02 6.359e-02 4.734e-02
250 1 -1.020e-02 -5.284e+00 -1.774e+00 -1.802e-01 1.923e-01 3.464e-04
251 1 5.265e+00 -6.146e-03 1.746e+00 -1.557e-01 1.524e-01 8.633e-03
252 1 5.250e+00 1.140e-02 -1.777e+00 -8.984e-02 9.376e-02 3.174e-02
253 1 5.261e+00 -1.746e+00 -9.093e-03 -2.596e-02 3.410e-02 4.030e-02
254 1 1.744e+00 -5.307e+00 -1.319e-02 -1.367e-02 4.629e-03 1.660e-02
255 1 3.477e+00 -3.486e+00 -1.462e-02 -6.086e-02 1.665e-02 4.041e-03
256 1 -5.294e+00 1.760e+00 4.773e-03 -4.810e-02 8.630e-02 4.938e-02
257 1 -1.771e+00 5.291e+00 -4.618e-03 -2.511e-02 1.148e-01 4.330e-02
258 1 -5.282e+00 -1.770e+00 1.789e-03 -5.575e-02 1.165e-01 3.678e-02
259 1 1.760e+00 5.319e+00 -1.134e-02 -1.052e-01 9.720e-02 2.711e-02
260 1 -1.782e+00 -5.266e+00 9.852e-04 -2.997e-02 6.208e-02 3.653e-02
261 1 5.265e+00 1.759e+00 6.350e-03 -1.409e-01 1.324e-01 3.632e-02
262 1 -3.539e+00 3.525e+00 1.049e-02 1.071e-02 3.933e-02 1.877e-02
263 1 3.522e+00 3.534e+00 1.462e-02 -9.796e-02 3.356e-02 1.709e-02
264 1 -3.539e+00 -3.523e+00 3.091e-03 -4.657e-02 7.637e-02 3.312e-02
265 1 3.480e+00 -1.746e+00 -1.740e+00 2.034e-02 2.427e-02 -1.179e-02
266 1 3.489e+00 -1.747e+00 1.731e+00 7.834e-03 2.219e-02 6.629e-03
267 1 1.735e+00 -3.517e+00 -1.736e+00 -3.791e-03 2.561e-02 -1.994e-02
268 1 1.731e+00 -3.498e+00 1.731e+00 -1.297e-03 4.243e-02 3.159e-02
269 1 -1.765e+00 -3.510e+00 -1.770e+00 -3.342e-03 -8.928e-04 -1.036e-02
270 1 -1.768e+00 -3.518e+00 1.768e+00 7.217e-02 -3.036e-02 -5.671e-03
271 1 3.502e+00 1.778e+00 -1.749e+00 1.259e-03 2.302e-02 -5.198e-04
272 1 3.517e+00 1.783e+00 1.759e+00 5.671e-02 -5.024e-02 -7.790e-03
273 1 -3.539e+00 1.762e+00 1.742e+00 4.519e-02 2.217e-04 2.789e-02
274 1 -1.750e+00 3.524e+00 -1.765e+00 2.751e-02 -2.452e-02 2.162e-02
275 1 -1.782e+00 3.518e+00 1.756e+00 3.989e-02 -3.044e-02 2.751e-02
276 1 -3.514e+00 1.767e+00 -1.759e+00 9.376e-03 -2.733e-03 -1.666e-02
277 1 -3.539e+00 -1.751e+00 1.763e+00 3.572e-02 9.452e-03 -2.470e-03
278 1 1.774e+00 3.520e+00 1.757e+00 1.707e-02 -4.417e-03 -4.419e-03
279 1 1.745e+00 3.547e+00 -1.753e+00 -2.968e-02 1.759e-02 4.161e-02
280 1 -3.543e+00 -1.732e+00 -1.762e+00 -4.813e-02 -4.257e-04 2.752e-02
281 1 -3.533e+00 4.659e-03 3.522e+00 -7.465e-02 4.438e-02 1.536e-02
282 1 -6.655e-03 3.524e+00 -3.532e+00 -1.026e-01 9.837e-02 1.538e-02
283 1 -2.555e-02 -3.513e+00 -3.528e+00 1.136e-02 -3.034e-02 1.038e-02
284 1 3.502e+00 -1.441e-03 -3.526e+00 -3.937e-02 8.128e-02 -7.004e-03
285 1 1.412e-02 -5.404e-03 -1.889e-03 9.579e-01 -9.828e-01 1.234e-01
286 1 -1.763e+00 -1.759e+00 3.514e+00 -2.834e-02 3.147e-02 1.597e-02
287 1 1.756e+00 1.776e+00 -3.509e+00 -1.432e-02 -3.316e-02 7.478e-03
288 1 -1.776e+00 1.743e+00 3.537e+00 -8.535e-02 4.518e-02 2.815e-02
289 1 -1.668e-02 -1.764e+00 1.726e+00 -4.544e-02 3.655e-02 -7.019e-03
290 1 7.113e-03 -1.774e+00 -1.745e+00 4.108e-02 -1.295e-01 1.323e-02
291 1 1.752e+00 -9.273e-03 1.724e+00 3.476e-02 -1.996e-02 4.815e-05
292 1 1.733e+00 6.725e-03 -1.760e+00 1.070e-01 -1.159e-01 2.366e-02
293 1 7.752e-03 -3.489e+00 -5.187e-03 1.982e-01 -1.636e-01 -1.467e-02
294 1 3.512e+00 7.587e-03 1.058e-02 2.137e-01 -1.612e-01 -3.605e-02
295 1 1.743e+00 -1.734e+00 3.514e+00 7.307e-03 -4.417e-02 3.681e-04
296 1 -2.181e-02 1.242e-03 3.502e+00 6.927e-02 -7.652e-02 3.771e-03
297 1 -1.781e+00 -1.389e-03 -1.783e+00 1.260e-01 -1.976e-01 5.683e-03
298 1 -1.793e+00 -8.787e-04 1.766e+00 2.720e-02 -7.596e-02 -2.678e-02
299 1 -9.332e-03 1.765e+00 1.754e+00 7.253e-02 -7.940e-02 -4.594e-03
300 1 2.668e-03 1.773e+00 -1.751e+00 1.144e-01 -1.295e-01 -1.092e-02
301 1 -3.537e+00 -9.965e-03 -2.438e-03 1.065e-01 -5.484e-02 -4.259e-03
302 1 -1.026e-02 3.522e+00 8.187e-03 1.427e-01 -1.245e-01 -1.149e-03
303 1 -1.769e+00 1.760e+00 -1.524e-02 1.397e-01 -1.280e-02 -6.566e-02
304 1 -1.784e+00 -1.732e+00 8.053e-03 1.705e-01 -6.732e-02 -2.221e-02
305 1 1.723e+00 1.767e+00 -3.276e-03 1.708e-01 -1.479e-01 -5.751e-02
ITEM: TIMESTEP
0
ITEM: NUMBER OF ATOMS
61
ITEM: BOX BOUNDS xy xz yz pp pp pp
                     0.00000000000000e+00 1.06200000000000e+01 0.00000000000000e+00
0.00000000000000e+00	1.06200000000000e+01	0.00000000000000e+00
0.00000000000000e+00	1.06200000000000e+01	0.00000000000000e+00
ITEM: ATOMS id type x y z DisplacementX DisplacementY DisplacementZ
306 1 5.244e-03 -5.262e+00 -1.783e+00 -3.119e-02 1.708e-01 -1.266e-01
307 1 -5.269e+00 -2.453e-02 1.753e+00 9.043e-03 -1.108e-02 -2.837e-02
308 1 5.267e+00 1.771e-02 1.749e+00 5.849e-03 1.302e-01 -1.241e-01
309 1 5.285e+00 -4.404e-03 -1.781e+00 3.263e-02 1.047e-01 -7.640e-02
310 1 -5.265e+00 3.662e-03 -1.784e+00 -2.303e-02 2.086e-01 -1.626e-01
311 1 6.012e-03 5.287e+00 -1.764e+00 9.680e-03 1.191e-01 -1.242e-01
312 1 2.044e-02 5.295e+00 1.754e+00 -2.174e-02 7.443e-02 -3.465e-02
313 1 -1.629e-02 -5.282e+00 1.747e+00 3.880e-02 -3.551e-02 5.373e-02
314 1 -5.276e+00 -1.742e+00 -2.093e-02 5.230e-03 5.634e-02 -5.610e-02
315 1 5.268e+00 -1.771e+00 -1.011e-02 1.689e-02 1.132e-01 -1.113e-01
316 1 -1.758e+00 5.280e+00 -1.144e-02 5.682e-02 6.143e-02 -6.210e-02
317 1 1.792e+00 5.303e+00 -1.132e-02 1.115e-02 7.183e-02 -1.355e-02
318 1 -5.286e+00 1.765e+00 -1.399e-02 2.305e-02 7.517e-02 -4.256e-02
319 1 5.259e+00 1.758e+00 2.353e-04 3.664e-02 6.440e-02 -6.970e-02
320 1 -1.765e+00 -5.274e+00 -1.873e-02 -8.736e-03 5.448e-02 -6.980e-03
321 1 1.729e+00 -5.279e+00 9.502e-03 2.739e-02 5.541e-02 -4.224e-02
322 1 3.523e+00 3.538e+00 -1.859e-02 -1.991e-03 -5.736e-04 -1.105e-02
323 1 -3.536e+00 3.527e+00 -7.057e-03 1.929e-02 1.083e-02 -3.743e-02
324 1 3.516e+00 -3.518e+00 -1.271e-02 3.742e-02 -5.041e-03 -2.142e-02
325 1 -3.509e+00 -3.513e+00 -1.147e-02 4.192e-02 -2.727e-03 -1.839e-02
326 1 -1.746e+00 -3.502e+00 1.720e+00 3.309e-02 2.941e-02 -9.574e-02
327 1 1.737e+00 -3.512e+00 1.740e+00 -6.837e-03 3.218e-02 -5.038e-02
328 1 -2.254e-02 -3.501e+00 3.494e+00 4.590e-02 5.585e-02 -8.674e-02
329 1 -1.762e+00 -3.517e+00 -1.780e+00 -5.456e-04 2.528e-02 -5.221e-02
330 1 1.737e+00 -3.516e+00 -1.773e+00 2.058e-02 1.854e-02 -7.363e-02
331 1 -1.769e+00 3.515e+00 -1.770e+00 -8.596e-03 -2.128e-02 2.303e-02
332 1 1.776e+00 3.553e+00 -1.771e+00 8.793e-03 1.367e-02 -5.815e-03
333 1 -1.756e+00 3.517e+00 1.749e+00 -1.048e-02 -7.180e-02 3.880e-02
334 1 1.775e+00 3.540e+00 1.741e+00 -3.533e-02 -3.021e-02 7.431e-02
335 1 3.528e+00 1.763e+00 -1.772e+00 -2.790e-02 -4.614e-02 6.089e-02
336 1 -3.512e+00 1.748e+00 -1.768e+00 4.739e-03 9.761e-02 -1.376e-01
337 1 -3.519e+00 1.742e+00 1.758e+00 4.862e-02 1.803e-02 -2.739e-02
338 1 3.493e+00 1.769e+00 1.741e+00 3.153e-03 -6.132e-02 6.065e-02
339 1 3.501e+00 -1.763e+00 -1.777e+00 -1.116e-02 -2.537e-02 4.512e-02
340 1 -3.498e+00 -1.760e+00 -1.765e+00 -2.129e-03 6.932e-02 -9.804e-02
341 1 -3.532e+00 -1.761e+00 1.738e+00 2.745e-02 -7.139e-02 6.903e-02
342 1 3.504e+00 -1.769e+00 1.748e+00 -1.328e-02 -1.086e-01 1.084e-01
343 1 -3.513e+00 9.349e-05 3.493e+00 -9.381e-03 -4.099e-02 -1.216e-02
344 1 3.512e+00 6.978e-03 3.495e+00 4.196e-03 6.164e-02 -5.628e-02
345 1 -2.070e-03 3.543e+00 3.517e+00 2.711e-02 7.969e-02 -1.457e-01
346 1 1.746e+00 -1.751e+00 3.478e+00 -1.077e-02 -1.046e-02 2.006e-02
347 1 -1.757e+00 -1.757e+00 3.488e+00 2.099e-02 6.611e-02 -3.888e-02
348 1 -1.177e-02 -7.097e-04 1.924e-03 -5.518e-02 -1.127e+00 1.275e+00
349 1 -4.526e-03 -2.887e-03 3.497e+00 -1.049e-02 -7.511e-02 1.365e-01
350 1 1.743e+00 9.560e-03 1.766e+00 2.471e-02 3.675e-02 -6.276e-04
351 1 -1.731e+00 -6.470e-03 1.751e+00 -3.054e-03 7.337e-03 4.185e-04
352 1 1.777e+00 1.770e+00 3.510e+00 -3.782e-03 -4.720e-02 -2.044e-02
353 1 -1.741e+00 1.769e+00 3.497e+00 -8.169e-03 -3.236e-02 -5.357e-02
354 1 -5.356e-03 -3.512e+00 -5.175e-03 4.413e-02 -8.076e-02 5.866e-02
355 1 -1.741e+00 -1.761e+00 6.920e-03 -4.985e-02 -9.091e-02 1.434e-01
356 1 1.747e+00 -1.745e+00 4.158e-03 -6.181e-03 -3.592e-02 2.609e-02
357 1 -1.636e-02 -1.758e+00 -1.779e+00 -2.882e-02 -1.637e-01 1.681e-01
358 1 -1.769e+00 -5.495e-03 -1.757e+00 -1.211e-02 -1.798e-01 2.028e-01
359 1 1.747e+00 2.502e-02 -1.767e+00 5.821e-02 2.003e-03 -3.323e-02
360 1 -4.507e-03 1.752e+00 -1.777e+00 2.692e-02 -4.973e-02 -5.719e-02
361 1 2.368e-02 1.765e+00 1.757e+00 8.230e-02 -2.480e-02 2.816e-03
362 1 -3.527e+00 1.004e-03 -2.172e-02 -1.305e-02 -8.594e-02 1.267e-01
363 1 3.499e+00 -7.284e-03 -2.695e-02 -5.895e-02 -2.155e-01 2.510e-01
364 1 7.924e-03 3.540e+00 -2.636e-02 -6.929e-02 -2.448e-01 3.042e-01
365 1 -1.753e+00 1.778e+00 -2.791e-02 -5.019e-04 -1.342e-01 1.240e-01
366 1 1.765e+00 1.778e+00 -1.311e-02 4.799e-02 -5.339e-02 -8.073e-02
ITEM: TIMESTEP
0
ITEM: NUMBER OF ATOMS
61
ITEM: BOX BOUNDS xy xz yz pp pp pp
                     0.00000000000000e+00 1.06200000000000e+01 0.00000000000000e+00
0.00000000000000e+00	1.06200000000000e+01	0.00000000000000e+00
0.00000000000000e+00	1.06200000000000e+01	0.00000000000000e+00
ITEM: ATOMS id type x y z DisplacementX DisplacementY DisplacementZ
367 1 1.625e-02 5.272e+00 1.775e+00 -6.499e-03 -7.064e-02 8.019e-02
368 1 -5.293e+00 -4.898e-03 -1.753e+00 5.030e-02 -8.082e-02 1.159e-01
369 1 5.255e+00 -1.416e-02 -1.745e+00 5.026e-03 -6.793e-02 7.180e-02
370 1 5.284e+00 -2.030e-02 1.794e+00 8.530e-03 -9.792e-02 4.539e-02
371 1 -5.279e+00 -1.087e-02 1.780e+00 -2.254e-02 -6.657e-02 1.673e-01
372 1 3.282e-03 -5.314e+00 1.778e+00 2.550e-02 -3.258e-02 1.077e-01
373 1 -1.443e-02 -5.291e+00 -1.730e+00 6.693e-02 -1.023e-03 5.774e-03
374 1 7.666e-03 5.289e+00 -1.745e+00 7.611e-03 4.988e-02 -4.609e-02
375 1 -5.262e+00 1.739e+00 1.209e-02 4.619e-03 -7.195e-02 5.954e-02
376 1 5.283e+00 1.762e+00 1.099e-02 2.388e-03 -1.257e-01 1.120e-01
377 1 -1.746e+00 -5.297e+00 2.126e-02 1.852e-02 3.104e-02 4.939e-02
378 1 1.771e+00 -5.278e+00 3.649e-03 5.849e-02 -1.843e-02 7.576e-02
379 1 -5.281e+00 -1.763e+00 1.474e-02 4.332e-02 -6.337e-02 1.280e-01
380 1 5.256e+00 -1.785e+00 6.257e-03 3.319e-02 -1.463e-01 1.027e-01
381 1 -1.740e+00 5.285e+00 7.871e-03 1.974e-02 -6.497e-02 1.355e-01
382 1 1.768e+00 5.272e+00 2.005e-02 -2.675e-02 -9.138e-02 6.527e-02
383 1 3.506e+00 -3.529e+00 4.976e-03 2.920e-02 -1.477e-01 2.181e-01
384 1 -3.523e+00 -3.533e+00 1.769e-02 2.235e-02 -8.909e-02 1.646e-01
385 1 3.503e+00 3.516e+00 4.039e-03 1.089e-02 -9.507e-02 1.407e-01
386 1 -3.518e+00 3.492e+00 2.827e-03 -1.501e-02 -9.077e-02 1.618e-01
387 1 -1.731e+00 3.496e+00 -1.757e+00 7.674e-03 -1.822e-02 -1.857e-02
388 1 1.770e+00 3.491e+00 -1.749e+00 7.060e-03 1.948e-02 -5.138e-02
389 1 5.441e-03 3.524e+00 -3.491e+00 -1.768e-03 -5.557e-02 7.548e-02
390 1 -1.751e+00 3.510e+00 1.770e+00 -2.331e-02 8.569e-03 -9.575e-02
391 1 1.766e+00 3.511e+00 1.754e+00 3.149e-02 7.977e-03 -3.944e-02
392 1 -1.752e+00 -3.538e+00 1.770e+00 -1.712e-02 3.339e-02 6.665e-02
393 1 1.768e+00 -3.543e+00 1.774e+00 -3.569e-03 -4.603e-02 1.368e-01
394 1 -1.763e+00 -3.520e+00 -1.755e+00 1.880e-02 3.864e-02 -8.699e-03
395 1 1.754e+00 -3.550e+00 -1.738e+00 1.727e-02 3.048e-02 -3.663e-02
396 1 3.500e+00 -1.764e+00 1.772e+00 -4.258e-03 -4.507e-03 3.211e-02
397 1 -3.522e+00 -1.777e+00 1.786e+00 2.138e-03 -2.638e-02 1.145e-01
398 1 -3.502e+00 -1.766e+00 -1.745e+00 2.297e-02 1.522e-02 2.296e-03
399 1 3.498e+00 -1.761e+00 -1.743e+00 8.017e-03 2.369e-02 -5.857e-02
400 1 3.497e+00 1.744e+00 1.777e+00 5.624e-03 5.534e-02 -1.798e-02