ITEM: TIMESTEP
0
ITEM: NUMBER OF ATOMS
49
ITEM: BOX BOUNDS xy xz yz pp pp pp
                     0.00000000000000e+00 1.06200000000000e+01 0.00000000000000e+00
0.00000000000000e+00	1.06200000000000e+01	0.00000000000000e+00
0.00000000000000e+00	1.06200000000000e+01	0.00000000000000e+00
ITEM: ATOMS id type x y z DisplacementX DisplacementY DisplacementZ
1 1 -3.531e+00 -3.500e+00 -5.134e-02 1.495e-03 2.827e-02 6.447e-02
2 1 -3.513e+00 3.433e+00 -4.302e-02 8.705e-03 5.523e-02 7.198e-02
3 1 -1.761e+00 1.705e+00 3.449e+00 -2.476e-02 -9.045e-02 -4.517e-02
4 1 -1.260e-02 5.199e+00 1.696e+00 -5.765e-02 1.443e-02 -2.643e-02
5 1 -7.058e-03 5.195e+00 -1.797e+00 -1.653e-02 -2.061e-01 -1.666e-01
6 1 -6.981e-03 -5.270e+00 -1.810e+00 -2.256e-02 -2.014e-01 -1.214e-01
7 1 -1.335e-03 -5.262e+00 1.707e+00 1.469e-02 -1.537e-01 -5.095e-02
8 1 1.753e+00 5.220e+00 -6.425e-02 -1.173e-04 -2.467e-02 1.561e-02
9 1 1.772e+00 -5.273e+00 -4.929e-02 -1.383e-02 -1.248e-01 -9.945e-02
10 1 5.284e+00 -2.209e-02 1.698e+00 2.402e-02 -1.551e-01 -1.168e-01
11 1 5.302e+00 -3.687e-02 -1.815e+00 1.851e-02 -1.742e-01 -2.971e-02
12 1 5.296e+00 1.731e+00 -3.419e-02 1.284e-02 -1.450e-01 -7.345e-02
13 1 5.304e+00 -1.775e+00 -5.793e-02 2.551e-02 -1.209e-01 -2.787e-02
14 1 -1.752e+00 1.688e+00 -3.777e-02 -1.562e-03 -5.874e-02 -5.851e-02
15 1 -1.750e+00 -1.754e+00 3.457e+00 -2.150e-02 -2.411e-02 -5.489e-02
16 1 -1.750e+00 5.189e+00 -4.802e-02 -3.376e-03 -2.475e-01 -2.150e-01
17 1 -1.766e+00 -5.255e+00 -3.489e-02 -4.628e-03 -2.465e-01 -2.600e-01
18 1 3.526e+00 3.469e+00 -4.788e-02 -9.124e-03 -3.236e-02 -4.612e-02
19 1 3.523e+00 -3.530e+00 -5.181e-02 2.137e-02 -5.639e-02 -6.876e-02
20 1 -1.753e+00 -1.740e+00 -4.588e-02 -1.600e-02 1.605e-01 1.207e-01
21 1 -1.734e+00 3.429e+00 1.718e+00 1.841e-02 7.022e-02 2.436e-02
22 1 1.760e+00 3.441e+00 1.722e+00 -2.030e-02 -1.891e-02 -3.839e-02
23 1 -1.783e+00 -3.498e+00 1.703e+00 5.003e-02 1.242e-01 1.093e-01
24 1 -1.756e+00 -3.488e+00 -1.800e+00 3.015e-02 3.027e-02 2.493e-02
25 1 -1.775e+00 3.432e+00 -1.807e+00 1.823e-02 1.452e-01 1.686e-01
26 1 1.755e+00 3.461e+00 -1.791e+00 -3.102e-03 9.217e-02 7.242e-02
27 1 1.756e+00 -3.494e+00 1.724e+00 -9.776e-03 8.452e-05 5.087e-02
28 1 1.747e+00 -3.508e+00 -1.818e+00 8.560e-04 -1.924e-02 -8.921e-03
29 1 3.559e+00 1.715e+00 1.708e+00 3.651e-02 3.886e-02 1.630e-01
30 1 3.535e+00 1.721e+00 -1.791e+00 3.718e-02 -1.076e-01 -1.557e-02
31 1 3.518e+00 -1.797e+00 1.709e+00 -1.375e-02 -1.835e-02 -6.723e-02
32 1 3.529e+00 -1.765e+00 -1.803e+00 -1.076e-02 3.106e-02 7.573e-02
33 1 1.773e+00 1.721e+00 3.459e+00 1.067e-02 -8.800e-03 3.624e-02
34 1 -1.944e-02 -9.447e-03 -1.063e-03 -1.190e-02 8.735e-01 1.129e+00
35 1 3.516e-03 1.670e-02 3.430e+00 9.962e-03 9.510e-03 3.630e-02
36 1 3.550e+00 -3.222e-02 3.482e+00 2.504e-02 -6.182e-02 -2.136e-02
37 1 -2.816e-02 3.419e+00 3.468e+00 -1.732e-03 -2.773e-02 5.722e-02
38 1 1.758e+00 -1.763e+00 3.477e+00 1.799e-02 4.998e-02 1.205e-01
39 1 1.751e+00 1.710e+00 -3.475e-02 2.039e-02 -2.033e-02 -1.530e-02
40 1 -5.693e-03 -3.493e+00 3.499e+00 -2.878e-02 -4.537e-02 -7.430e-02
41 1 1.781e+00 -7.043e-03 1.712e+00 -3.377e-02 9.483e-02 3.089e-03
42 1 1.767e+00 -1.761e+00 -4.635e-02 2.498e-02 1.984e-01 1.185e-01
43 1 -8.174e-03 -1.763e+00 1.716e+00 8.451e-04 2.137e-01 2.671e-02
44 1 -2.476e-02 -1.725e+00 -1.807e+00 -3.010e-02 2.251e-01 8.013e-02
45 1 -1.376e-02 1.681e+00 -1.816e+00 1.437e-02 3.961e-02 1.168e-01
46 1 6.812e-03 3.421e+00 -4.172e-02 -6.089e-03 2.917e-01 1.960e-01
47 1 3.547e+00 -4.726e-02 -5.301e-02 5.122e-02 7.826e-02 1.650e-01
48 1 1.774e+00 -1.739e-02 -1.815e+00 -2.515e-02 2.098e-01 8.987e-02
49 1 -2.030e-02 -3.488e+00 -5.051e-02 4.862e-02 1.397e-01 2.283e-01
ITEM: TIMESTEP
0
ITEM: NUMBER OF ATOMS
49
ITEM: BOX BOUNDS xy xz yz pp pp pp
                     0.00000000000000e+00 1.06200000000000e+01 0.00000000000000e+00
0.00000000000000e+00	1.06200000000000e+01	0.00000000000000e+00
0.00000000000000e+00	1.06200000000000e+01	0.00000000000000e+00
ITEM: ATOMS id type x y z DisplacementX DisplacementY DisplacementZ
50 1 -3.515e+00 -3.515e+00 6.228e-02 -3.875e-02 6.649e-03 2.391e-02
51 1 -3.527e+00 3.440e+00 4.756e-02 -9.685e-03 -1.439e-02 -4.491e-05
52 1 -1.736e+00 1.710e+00 -3.467e+00 -2.404e-02 -1.448e-01 1.034e-02
53 1 -1.233e-02 5.208e+00 -1.720e+00 1.199e-02 -4.358e-02 1.852e-02
54 1 -1.752e-02 5.199e+00 1.811e+00 -1.405e-02 -2.312e-01 2.193e-01
55 1 -3.909e-03 -5.267e+00 1.804e+00 6.994e-02 -8.893e-02 1.496e-01
56 1 -4.654e-03 -5.262e+00 -1.707e+00 3.087e-02 -1.577e-02 2.922e-02
57 1 1.753e+00 5.213e+00 7.152e-02 -1.541e-02 4.632e-02 1.044e-02
58 1 1.751e+00 -5.254e+00 4.736e-02 4.613e-02 -4.589e-02 1.045e-01
59 1 5.305e+00 -3.082e-02 -1.705e+00 -8.492e-03 1.413e-02 5.436e-02
60 1 5.310e+00 -3.126e-02 1.801e+00 3.446e-02 -7.118e-02 1.135e-01
61 1 5.287e+00 1.730e+00 4.473e-02 2.121e-02 -5.740e-02 1.262e-02
62 1 5.309e+00 -1.787e+00 5.010e-02 2.827e-02 -1.221e-02 9.353e-02
63 1 -1.739e+00 1.709e+00 2.570e-02 3.011e-02 -1.316e-02 2.600e-02
64 1 -1.754e+00 -1.743e+00 -3.467e+00 -4.679e-02 -7.120e-02 1.553e-01
65 1 -1.748e+00 5.189e+00 5.561e-02 -1.566e-02 -2.587e-01 3.278e-01
66 1 -1.769e+00 -5.242e+00 7.618e-02 -3.474e-02 -3.067e-02 5.696e-02
67 1 3.532e+00 3.470e+00 5.319e-02 -8.975e-03 -7.890e-02 1.064e-01
68 1 3.523e+00 -3.542e+00 4.211e-02 5.333e-02 -1.329e-01 2.218e-01
69 1 -1.743e+00 -1.729e+00 5.164e-02 -3.787e-02 1.330e-01 -8.140e-02
70 1 -1.774e+00 3.428e+00 -1.700e+00 -3.425e-02 9.128e-02 -1.095e-01
71 1 1.759e+00 3.446e+00 -1.713e+00 4.525e-03 2.067e-02 -6.147e-03
72 1 -1.767e+00 -3.492e+00 -1.714e+00 -4.395e-02 1.004e-01 -1.326e-01
73 1 -1.767e+00 -3.516e+00 1.813e+00 -1.343e-02 4.070e-02 -3.960e-02
74 1 -1.777e+00 3.429e+00 1.795e+00 7.566e-03 1.583e-01 -1.773e-01
75 1 1.744e+00 3.448e+00 1.794e+00 1.435e-02 4.510e-02 -6.687e-02
76 1 1.756e+00 -3.508e+00 -1.725e+00 1.988e-02 -1.221e-02 2.511e-02
77 1 1.748e+00 -3.513e+00 1.802e+00 5.588e-02 -8.313e-02 1.337e-01
78 1 3.560e+00 1.734e+00 -1.707e+00 -3.105e-02 1.065e-01 -1.119e-01
79 1 3.562e+00 1.719e+00 1.797e+00 -3.658e-02 -1.412e-02 -4.034e-02
80 1 3.516e+00 -1.767e+00 -1.715e+00 6.656e-03 -2.349e-02 4.027e-02
81 1 3.551e+00 -1.773e+00 1.798e+00 6.309e-03 1.021e-01 -8.207e-02
82 1 1.768e+00 1.742e+00 -3.448e+00 -8.399e-03 -1.252e-01 2.943e-02
83 1 -1.141e-02 -6.183e-03 -5.586e-03 8.234e-03 8.824e-01 -9.983e-01
84 1 2.154e-03 -1.376e-02 -3.427e+00 -3.251e-02 9.351e-02 -9.846e-02
85 1 3.548e+00 -2.487e-02 -3.472e+00 -9.658e-03 -3.963e-04 2.803e-02
86 1 -1.021e-02 3.443e+00 -3.445e+00 -2.055e-03 -9.010e-02 8.264e-02
87 1 1.759e+00 -1.770e+00 -3.464e+00 -3.403e-02 4.850e-02 -5.024e-02
88 1 1.770e+00 1.711e+00 4.590e-02 -1.714e-02 -1.894e-01 1.794e-01
89 1 -2.033e-02 -3.492e+00 -3.475e+00 -5.611e-02 -1.052e-03 3.623e-02
90 1 1.781e+00 -1.197e-02 -1.711e+00 -4.410e-02 1.346e-01 -6.711e-02
91 1 1.756e+00 -1.764e+00 4.856e-02 -2.726e-02 2.075e-01 -2.330e-01
92 1 -2.466e-03 -1.762e+00 -1.705e+00 -3.205e-02 1.492e-01 -1.455e-01
93 1 -2.707e-02 -1.714e+00 1.805e+00 -3.301e-02 1.977e-01 -1.745e-01
94 1 -3.377e-02 1.694e+00 1.806e+00 -1.570e-02 7.868e-02 -4.853e-02
95 1 6.832e-03 3.430e+00 4.641e-02 2.056e-02 3.208e-01 -2.981e-01
96 1 3.524e+00 -1.009e-02 5.003e-02 4.021e-02 1.776e-01 -1.971e-01
97 1 1.757e+00 -1.072e-03 1.808e+00 1.246e-02 1.461e-01 -9.650e-02
98 1 -1.144e-02 -3.502e+00 6.161e-02 4.110e-02 1.130e-01 -1.846e-01
ITEM: TIMESTEP
0
ITEM: NUMBER OF ATOMS
53
ITEM: BOX BOUNDS xy xz yz pp pp pp
                     0.00000000000000e+00 1.06200000000000e+01 0.00000000000000e+00
0.00000000000000e+00	1.06200000000000e+01	0.00000000000000e+00
0.00000000000000e+00	1.06200000000000e+01	0.00000000000000e+00
ITEM: ATOMS id type x y z DisplacementX DisplacementY DisplacementZ
99 1 -1.761e+00 -5.190e+00 -1.869e-02 -3.296e-04 -1.199e-02 -3.678e-02
100 1 -5.225e+00 1.792e+00 -1.895e-02 -7.193e-02 2.208e-01 -1.967e-01
101 1 -1.724e+00 5.322e+00 -1.964e-02 -6.529e-02 2.858e-02 -7.071e-02
102 1 5.068e-03 -5.213e+00 1.756e+00 5.080e-02 -7.698e-02 -1.731e-02
103 1 -2.155e-02 -5.149e+00 -1.773e+00 -2.977e-02 1.210e-01 -1.087e-01
104 1 5.310e+00 6.203e-02 1.740e+00 -3.878e-02 1.413e-01 -1.067e-01
105 1 5.328e+00 5.536e-02 -1.774e+00 1.848e-02 1.989e-01 -1.729e-01
106 1 1.222e-02 5.330e+00 -1.789e+00 -3.081e-02 1.628e-01 -1.371e-01
107 1 1.238e-02 5.314e+00 1.747e+00 -6.774e-02 8.728e-02 -9.969e-02
108 1 1.766e+00 -5.197e+00 -1.619e-02 1.827e-02 1.173e-01 -5.270e-02
109 1 5.310e+00 -1.704e+00 -2.069e-02 1.616e-02 5.323e-02 -9.230e-02
110 1 5.324e+00 1.811e+00 -1.996e-02 -2.464e-02 9.128e-02 -7.083e-02
111 1 1.770e+00 5.301e+00 -4.338e-03 -3.266e-02 1.159e-01 -9.207e-02
112 1 -3.494e+00 3.549e+00 -2.685e-02 3.662e-02 -1.322e-02 -3.453e-02
113 1 -1.738e+00 -1.739e+00 -1.869e-02 1.511e-02 -8.646e-02 9.302e-02
114 1 -1.718e+00 -1.727e+00 3.502e+00 -9.228e-03 -1.791e-02 2.138e-02
115 1 -3.500e+00 -4.841e-03 3.515e+00 2.796e-02 5.940e-02 1.985e-03
116 1 3.548e+00 -3.462e+00 3.241e-04 -3.973e-02 -1.887e-02 5.040e-02
117 1 3.531e+00 3.572e+00 -1.747e-02 2.033e-02 2.799e-02 -5.391e-02
118 1 -3.498e+00 9.495e-03 -2.372e-02 3.328e-02 -1.736e-01 2.039e-01
119 1 1.010e-02 -3.444e+00 3.445e+00 2.409e-02 8.062e-02 2.084e-03
120 1 -3.487e+00 1.763e+00 1.745e+00 -5.534e-02 -4.038e-02 -3.950e-03
121 1 -3.494e+00 1.772e+00 -1.766e+00 -2.289e-02 7.956e-02 -7.072e-02
122 1 -1.760e+00 3.527e+00 1.741e+00 -2.919e-02 -6.639e-02 2.804e-02
123 1 -1.741e+00 3.534e+00 -1.768e+00 -1.634e-02 -5.949e-02 5.222e-02
124 1 1.773e+00 -3.442e+00 1.730e+00 1.301e-02 -2.523e-02 4.346e-03
125 1 3.546e+00 -1.682e+00 1.754e+00 -5.754e-02 -9.592e-02 1.226e-01
126 1 3.553e+00 -1.707e+00 -1.776e+00 -2.309e-02 2.977e-02 -6.446e-03
127 1 3.540e+00 1.792e+00 1.751e+00 4.164e-02 -6.809e-02 3.273e-02
128 1 3.536e+00 1.782e+00 -1.783e+00 3.093e-02 7.410e-02 -4.644e-02
129 1 1.765e+00 3.528e+00 1.742e+00 8.586e-03 -3.161e-02 1.183e-01
130 1 1.752e+00 3.549e+00 -1.783e+00 -4.314e-02 -4.605e-02 -5.914e-02
131 1 1.773e+00 -1.739e+00 3.498e+00 -9.359e-02 1.047e-02 -2.354e-02
132 1 3.529e+00 4.594e-02 3.516e+00 3.565e-02 5.937e-02 -1.337e-02
133 1 5.578e-03 3.542e+00 3.517e+00 4.838e-02 1.722e-01 -1.122e-01
134 1 1.778e+00 -3.461e+00 -1.752e+00 4.616e-02 4.867e-02 -3.858e-02
135 1 5.802e-03 -3.433e+00 2.476e-02 -1.075e-02 -1.615e-01 1.429e-01
136 1 1.748e+00 1.614e-02 1.739e+00 -4.034e-02 -1.356e-02 1.479e-03
137 1 1.751e+00 1.788e+00 3.517e+00 4.710e-02 7.796e-02 -1.132e-02
138 1 1.789e+00 -1.715e+00 -1.770e-03 -2.215e-02 -8.354e-02 -3.941e-03
139 1 -1.763e+00 8.634e-03 1.741e+00 1.594e-02 3.772e-02 -4.444e-02
140 1 1.770e+00 2.058e-02 -1.778e+00 7.802e-03 -3.151e-02 9.569e-02
141 1 1.554e-02 1.789e+00 1.752e+00 -6.907e-03 -1.367e-01 6.660e-02
142 1 -4.797e-03 1.768e+00 -1.775e+00 3.069e-02 -7.593e-02 8.073e-02
143 1 1.763e+00 1.772e+00 -1.851e-02 9.972e-03 -1.131e-01 1.699e-01
144 1 1.923e-02 -1.259e-02 3.286e-04 3.458e-02 -8.491e-01 1.050e+00
145 1 1.064e-02 -2.076e-03 3.490e+00 5.682e-02 -6.452e-02 8.058e-02
146 1 -1.752e+00 1.771e+00 3.511e+00 -5.361e-02 7.846e-03 3.789e-02
147 1 -8.912e-03 -1.764e+00 -1.767e+00 -1.016e-02 -1.343e-01 1.100e-01
148 1 -1.751e+00 -6.388e-03 -1.762e+00 2.936e-02 -1.216e-01 8.359e-02
149 1 3.552e+00 4.519e-02 -3.943e-02 -2.113e-02 -2.528e-01 2.258e-01
150 1 2.138e-02 3.539e+00 -2.015e-02 9.121e-04 -2.240e-01 1.799e-01
151 1 -1.759e+00 1.766e+00 -2.715e-02 -3.169e-02 -1.445e-02 8.476e-02
ITEM: TIMESTEP
0
ITEM: NUMBER OF ATOMS
53
ITEM: BOX BOUNDS xy xz yz pp pp pp
                     0.00000000000000e+00 1.06200000000000e+01 0.00000000000000e+00
0.00000000000000e+00	1.06200000000000e+01	0.00000000000000e+00
0.00000000000000e+00	1.06200000000000e+01	0.00000000000000e+00
ITEM: ATOMS id type x y z DisplacementX DisplacementY DisplacementZ
152 1 -1.771e+00 -5.156e+00 5.191e-03 1.715e-02 -1.832e-02 7.144e-02
153 1 -5.233e+00 1.792e+00 1.144e-02 -1.171e-02 2.848e-01 3.092e-01
154 1 -1.733e+00 5.316e+00 1.205e-02 -4.260e-03 2.415e-02 1.008e-01
155 1 -6.003e-03 -5.184e+00 -1.744e+00 -2.958e-02 -2.161e-02 -4.310e-02
156 1 -1.719e-02 -5.153e+00 1.766e+00 6.279e-03 7.393e-02 4.129e-02
157 1 5.307e+00 4.925e-02 -1.749e+00 -1.085e-02 9.990e-02 1.255e-01
158 1 5.306e+00 5.503e-02 1.769e+00 1.855e-02 8.717e-02 9.449e-03
159 1 1.524e-02 5.311e+00 1.769e+00 -2.038e-02 7.943e-02 7.086e-02
160 1 2.233e-02 5.299e+00 -1.759e+00 -2.537e-02 8.671e-02 1.212e-01
161 1 1.776e+00 -5.185e+00 1.632e-02 -2.958e-03 4.323e-02 7.691e-02
162 1 5.314e+00 -1.691e+00 6.396e-03 -1.220e-02 5.204e-02 6.958e-02
163 1 5.293e+00 1.813e+00 1.440e-02 -1.574e-03 6.646e-02 6.111e-02
164 1 1.771e+00 5.302e+00 4.669e-03 -2.348e-02 7.993e-02 7.827e-02
165 1 -3.487e+00 3.538e+00 -8.010e-03 -1.047e-03 -2.600e-03 -3.505e-02
166 1 -1.739e+00 -1.742e+00 -6.018e-03 -3.527e-02 -1.322e-01 -1.030e-01
167 1 -1.753e+00 -1.729e+00 -3.495e+00 -3.499e-03 1.183e-03 -2.082e-02
168 1 -3.500e+00 2.871e-02 -3.497e+00 -1.526e-02 1.266e-02 -5.285e-02
169 1 3.546e+00 -3.456e+00 1.382e-02 -3.023e-02 -8.332e-03 9.618e-02
170 1 3.539e+00 3.545e+00 9.616e-03 -5.310e-03 1.562e-02 9.708e-02
171 1 -3.523e+00 -1.903e-03 1.799e-02 -4.341e-03 -1.851e-01 -2.741e-01
172 1 1.640e-02 -3.419e+00 -3.450e+00 2.594e-02 4.784e-02 3.589e-03
173 1 -3.486e+00 1.777e+00 -1.751e+00 -1.703e-02 4.438e-02 4.318e-02
174 1 -3.516e+00 1.748e+00 1.772e+00 -1.074e-03 1.045e-01 7.347e-02
175 1 -1.739e+00 3.565e+00 -1.755e+00 2.502e-02 -4.895e-02 -7.878e-02
176 1 -1.742e+00 3.535e+00 1.761e+00 5.363e-02 -5.163e-02 -6.228e-02
177 1 1.767e+00 -3.440e+00 -1.738e+00 -9.390e-03 9.460e-03 -2.640e-02
178 1 3.563e+00 -1.690e+00 -1.754e+00 -1.897e-03 -9.021e-02 -1.280e-01
179 1 3.541e+00 -1.710e+00 1.777e+00 1.531e-02 -1.743e-03 2.126e-02
180 1 3.522e+00 1.800e+00 -1.754e+00 9.829e-03 -3.092e-02 -7.230e-02
181 1 3.550e+00 1.790e+00 1.753e+00 3.399e-02 -3.886e-03 2.981e-02
182 1 1.781e+00 3.556e+00 -1.755e+00 5.160e-03 6.627e-03 -2.887e-02
183 1 1.763e+00 3.545e+00 1.777e+00 3.488e-02 1.215e-02 1.374e-03
184 1 1.772e+00 -1.710e+00 -3.501e+00 2.877e-03 1.331e-02 4.360e-02
185 1 3.559e+00 2.750e-02 -3.504e+00 -3.076e-02 2.262e-02 3.448e-02
186 1 5.408e-03 3.547e+00 -3.516e+00 -1.316e-03 6.852e-02 1.063e-01
187 1 1.783e+00 -3.466e+00 1.795e+00 2.703e-02 3.359e-02 -2.189e-02
188 1 6.274e-03 -3.433e+00 -4.339e-02 3.530e-02 -1.601e-01 -1.527e-01
189 1 1.751e+00 1.544e-02 -1.758e+00 1.681e-02 -1.899e-03 2.621e-02
190 1 1.739e+00 1.763e+00 -3.520e+00 1.558e-03 5.801e-02 -8.118e-04
191 1 1.763e+00 -1.699e+00 8.280e-03 -3.914e-02 -8.149e-02 -1.832e-01
192 1 -1.751e+00 -1.145e-02 -1.742e+00 7.828e-03 1.470e-02 2.796e-03
193 1 1.768e+00 3.550e-02 1.761e+00 2.867e-02 -4.281e-02 2.027e-02
194 1 -1.200e-02 1.801e+00 -1.747e+00 2.911e-02 -1.359e-01 -1.463e-01
195 1 1.291e-02 1.751e+00 1.782e+00 1.370e-02 -8.050e-02 -9.473e-02
196 1 1.760e+00 1.778e+00 3.292e-03 -1.300e-02 -1.767e-01 -3.585e-01
197 1 -6.363e-03 5.969e-03 -6.278e-03 5.098e-02 -7.530e-01 -8.196e-01
198 1 6.359e-03 8.167e-03 -3.483e+00 1.485e-03 -2.414e-02 2.459e-02
199 1 -1.728e+00 1.753e+00 -3.498e+00 -1.477e-02 3.641e-02 2.426e-02
200 1 -1.093e-03 -1.733e+00 1.776e+00 -1.080e-02 -1.549e-01 -2.145e-01
201 1 -1.757e+00 1.260e-04 1.782e+00 3.005e-02 -1.019e-01 -6.141e-02
202 1 3.530e+00 4.860e-02 2.355e-02 3.794e-02 -1.761e-01 -2.677e-01
203 1 1.703e-02 3.556e+00 1.164e-02 3.382e-02 -1.730e-01 -2.112e-01
204 1 -1.744e+00 1.770e+00 1.364e-02 1.768e-04 -1.180e-01 -1.631e-01
ITEM: TIMESTEP
0
ITEM: NUMBER OF ATOMS
61
ITEM: BOX BOUNDS xy xz yz pp pp pp
                     0.00000000000000e+00 1.06200000000000e+01 0.00000000000000e+00
0.00000000000000e+00	1.06200000000000e+01	0.00000000000000e+00
0.00000000000000e+00	1.06200000000000e+01	0.00000000000000e+00
ITEM: ATOMS id type x y z DisplacementX DisplacementY DisplacementZ
205 1 -5.275e+00 -9.653e-03 1.756e+00 -6.725e-02 -1.322e-01 -1.664e-04
206 1 5.092e-03 -5.319e+00 1.776e+00 -7.564e-02 -2.075e-01 6.061e-02
207 1 6.323e-03 -5.317e+00 -1.758e+00 1.029e-02 -4.690e-03 -4.307e-02
208 1 -5.278e+00 -1.860e-02 -1.746e+00 3.802e-02 2.220e-02 -5.454e-02
209 1 2.044e-04 5.274e+00 1.764e+00 -1.655e-01 -1.349e-01 1.938e-02
210 1 -1.394e-02 5.256e+00 -1.751e+00 7.270e-02 3.822e-02 -4.444e-02
211 1 5.242e+00 -5.060e-03 1.764e+00 -7.473e-02 -7.265e-02 -5.471e-03
212 1 5.250e+00 -2.697e-04 -1.764e+00 9.355e-03 1.740e-03 -4.174e-02
213 1 5.281e+00 1.770e+00 -5.782e-04 3.235e-02 8.591e-04 -8.759e-03
214 1 1.743e+00 5.288e+00 -4.733e-03 -2.448e-02 -1.353e-02 2.569e-02
215 1 3.493e+00 3.500e+00 -2.593e-03 -1.059e-01 -4.823e-02 4.833e-02
216 1 -5.290e+00 -1.778e+00 1.590e-02 4.816e-02 1.547e-02 -1.887e-02
217 1 -1.743e+00 -5.306e+00 -5.436e-03 -6.605e-02 -2.520e-02 5.271e-02
218 1 -5.272e+00 1.739e+00 1.120e-02 -9.735e-02 -2.460e-02 2.117e-02
219 1 1.759e+00 -5.310e+00 -1.195e-03 -6.450e-02 -3.326e-02 3.299e-03
220 1 -1.762e+00 5.283e+00 -2.117e-02 -8.617e-02 -1.148e-02 -6.640e-02
221 1 5.254e+00 -1.771e+00 3.801e-03 -1.133e-01 -1.044e-01 1.564e-03
222 1 -3.520e+00 -3.524e+00 1.132e-02 -1.113e-01 -5.127e-02 -2.055e-02
223 1 3.505e+00 -3.530e+00 -1.089e-03 -4.621e-02 -8.360e-02 -2.685e-02
224 1 -3.537e+00 3.521e+00 -6.897e-03 -3.873e-02 -8.960e-02 -3.247e-02
225 1 3.488e+00 1.735e+00 -1.741e+00 4.115e-02 -9.112e-03 -1.961e-02
226 1 3.477e+00 1.764e+00 1.755e+00 -7.848e-03 -1.154e-03 2.144e-02
227 1 1.741e+00 3.501e+00 -1.758e+00 8.947e-02 9.000e-02 -2.634e-02
228 1 1.744e+00 3.485e+00 1.753e+00 -3.841e-03 -4.462e-02 1.913e-02
229 1 -1.764e+00 3.514e+00 -1.772e+00 -4.800e-02 1.560e-02 6.387e-02
230 1 -1.764e+00 3.520e+00 1.760e+00 -4.305e-02 -2.111e-02 4.767e-02
231 1 3.535e+00 -1.753e+00 -1.743e+00 4.938e-02 9.254e-02 1.298e-02
232 1 3.497e+00 -1.782e+00 1.753e+00 3.038e-02 9.047e-02 1.983e-02
233 1 -3.516e+00 -1.769e+00 1.760e+00 3.779e-03 -1.891e-02 3.215e-02
234 1 -1.760e+00 -3.526e+00 -1.755e+00 4.919e-02 1.237e-02 3.398e-02
235 1 -1.762e+00 -3.561e+00 1.771e+00 6.049e-02 6.341e-02 -3.645e-02
236 1 -3.510e+00 -1.771e+00 -1.750e+00 2.069e-02 3.571e-02 3.538e-02
237 1 -3.528e+00 1.750e+00 1.763e+00 3.874e-02 7.301e-03 -1.462e-02
238 1 1.757e+00 -3.536e+00 1.771e+00 2.876e-02 4.598e-02 -4.999e-02
239 1 1.761e+00 -3.529e+00 -1.749e+00 2.847e-02 2.735e-02 5.177e-03
240 1 -3.543e+00 1.762e+00 -1.764e+00 -1.457e-02 -1.780e-02 7.315e-03
241 1 -3.523e+00 -8.788e-03 -3.522e+00 -5.941e-02 -6.098e-02 2.050e-02
242 1 -1.428e-02 -3.533e+00 -3.520e+00 -8.947e-02 -8.526e-02 5.714e-02
243 1 -1.326e-02 3.495e+00 -3.518e+00 -1.359e-01 -1.210e-01 5.622e-02
244 1 3.491e+00 3.533e-03 -3.508e+00 -8.941e-02 -8.353e-02 2.821e-02
245 1 -1.760e-03 -2.493e-03 -9.519e-03 9.123e-01 1.014e+00 -1.663e-01
246 1 -1.759e+00 1.759e+00 -3.516e+00 -6.219e-02 -6.615e-02 3.511e-02
247 1 1.745e+00 -1.750e+00 -3.517e+00 9.577e-03 -3.382e-03 -3.056e-02
248 1 -1.780e+00 -1.775e+00 -3.524e+00 -9.485e-02 -5.878e-02 2.907e-03
249 1 1.002e-02 1.745e+00 1.740e+00 2.938e-01 2.118e-01 -2.224e-02
250 1 -1.231e-02 1.762e+00 -1.769e+00 1.261e-01 1.321e-01 -5.951e-02
251 1 1.736e+00 -1.023e-02 1.733e+00 1.014e-01 9.209e-02 1.615e-02
252 1 1.764e+00 -4.070e-03 -1.733e+00 -3.131e-02 6.817e-02 2.899e-02
253 1 7.316e-03 3.508e+00 -6.066e-03 8.956e-02 1.112e-01 3.560e-02
254 1 3.513e+00 -1.831e-02 -2.364e-02 1.313e-01 1.074e-01 4.060e-02
255 1 1.720e+00 1.773e+00 -3.530e+00 -1.444e-01 -7.499e-02 2.698e-02
256 1 5.027e-03 -1.217e-02 -3.530e+00 1.712e-01 1.153e-01 -2.553e-02
257 1 -1.773e+00 -4.453e-03 -1.755e+00 9.299e-02 6.780e-02 4.383e-02
258 1 -1.777e+00 7.272e-03 1.759e+00 1.080e-01 9.955e-02 5.858e-02
259 1 5.164e-03 -1.755e+00 1.767e+00 1.889e-01 1.528e-01 2.321e-02
260 1 -2.491e-03 -1.754e+00 -1.784e+00 1.629e-01 1.187e-01 3.787e-02
261 1 -3.535e+00 -6.772e-03 5.084e-03 6.202e-02 1.292e-01 -1.398e-03
262 1 -1.146e-02 -3.531e+00 1.645e-02 1.067e-01 2.156e-01 -1.008e-01
263 1 -1.752e+00 -1.767e+00 7.839e-03 -9.284e-02 -9.006e-02 2.574e-02
264 1 -1.787e+00 1.747e+00 -1.661e-03 5.448e-02 6.770e-02 1.137e-01
265 1 1.737e+00 -1.786e+00 7.836e-03 -9.258e-02 -8.354e-02 1.560e-01
ITEM: TIMESTEP
0
ITEM: NUMBER OF ATOMS
61
ITEM: BOX BOUNDS xy xz yz pp pp pp
                     0.00000000000000e+00 1.06200000000000e+01 0.00000000000000e+00
0.00000000000000e+00	1.06200000000000e+01	0.00000000000000e+00
0.00000000000000e+00	1.06200000000000e+01	0.00000000000000e+00
ITEM: ATOMS id type x y z DisplacementX DisplacementY DisplacementZ
266 1 2.431e-02 5.252e+00 -1.778e+00 3.831e-02 -1.106e-01 -9.086e-02
267 1 5.292e+00 -1.911e-02 1.736e+00 2.011e-02 -1.438e-01 -6.977e-02
268 1 -5.261e+00 -2.480e-02 1.747e+00 -1.270e-02 -1.585e-01 -1.156e-01
269 1 -5.286e+00 -2.468e-02 -1.785e+00 -5.506e-03 -2.072e-01 -1.103e-01
270 1 5.265e+00 -1.354e-02 -1.771e+00 4.786e-03 -2.127e-01 -1.179e-01
271 1 8.788e-03 -5.309e+00 -1.758e+00 -2.325e-02 -1.150e-01 -1.032e-01
272 1 1.351e-02 -5.317e+00 1.749e+00 6.610e-03 -7.618e-02 -6.508e-02
273 1 7.423e-03 5.292e+00 1.739e+00 2.780e-03 8.038e-03 6.691e-02
274 1 5.275e+00 1.753e+00 -3.443e-02 5.050e-03 -1.226e-01 -1.125e-01
275 1 -5.269e+00 1.754e+00 -1.314e-02 -1.359e-02 -1.184e-01 -1.067e-01
276 1 1.767e+00 -5.301e+00 2.830e-05 -2.322e-02 -1.719e-01 -1.275e-01
277 1 -1.764e+00 -5.300e+00 -7.732e-03 -1.245e-02 -1.363e-01 -1.107e-01
278 1 5.275e+00 -1.767e+00 -6.720e-03 -3.155e-04 -1.347e-01 -1.395e-01
279 1 -5.267e+00 -1.787e+00 -2.285e-02 -3.952e-02 -1.203e-01 -7.709e-02
280 1 1.755e+00 5.272e+00 -4.474e-03 -1.295e-02 -7.428e-02 -4.481e-02
281 1 -1.747e+00 5.275e+00 -1.282e-02 -1.440e-02 -5.705e-02 -5.762e-02
282 1 -3.516e+00 -3.543e+00 -9.804e-03 -1.953e-02 -7.320e-02 -4.265e-02
283 1 3.501e+00 -3.535e+00 -3.696e-03 -2.130e-03 -7.456e-02 -5.840e-02
284 1 -3.504e+00 3.510e+00 -1.607e-02 -1.916e-02 -2.339e-02 -3.661e-02
285 1 3.514e+00 3.513e+00 -1.462e-02 2.732e-02 -2.200e-02 -3.374e-02
286 1 1.735e+00 3.509e+00 1.735e+00 2.315e-02 5.230e-02 1.779e-02
287 1 -1.730e+00 3.491e+00 1.761e+00 5.366e-03 3.081e-02 3.177e-02
288 1 8.477e-03 3.491e+00 3.497e+00 -1.754e-02 -7.163e-02 -4.866e-02
289 1 1.750e+00 3.496e+00 -1.772e+00 -3.146e-02 7.939e-02 6.111e-02
290 1 -1.750e+00 3.505e+00 -1.753e+00 1.810e-02 1.048e-01 8.276e-02
291 1 1.764e+00 -3.547e+00 -1.761e+00 5.159e-03 -5.320e-02 -1.930e-02
292 1 -1.749e+00 -3.556e+00 -1.761e+00 -2.629e-03 -3.023e-02 -1.591e-02
293 1 1.759e+00 -3.549e+00 1.741e+00 3.411e-02 2.477e-02 4.305e-02
294 1 -1.760e+00 -3.544e+00 1.739e+00 -1.246e-02 9.640e-03 2.195e-02
295 1 -3.526e+00 -1.768e+00 -1.791e+00 8.162e-04 1.028e-02 8.729e-03
296 1 3.504e+00 -1.764e+00 -1.769e+00 -9.351e-03 1.030e-02 2.587e-02
297 1 3.512e+00 -1.762e+00 1.755e+00 -2.699e-02 -2.747e-03 1.675e-02
298 1 -3.510e+00 -1.769e+00 1.754e+00 2.074e-02 8.186e-03 2.707e-02
299 1 -3.486e+00 1.765e+00 -1.773e+00 -1.770e-02 -2.283e-02 -1.824e-02
300 1 3.499e+00 1.765e+00 -1.772e+00 -2.023e-02 -4.861e-02 -9.949e-03
301 1 3.541e+00 1.771e+00 1.746e+00 -1.592e-02 1.570e-01 1.547e-01
302 1 -3.528e+00 1.751e+00 1.752e+00 3.388e-03 1.836e-01 1.910e-01
303 1 3.518e+00 -2.269e-03 3.496e+00 1.494e-02 -3.127e-02 -5.123e-02
304 1 -3.486e+00 -2.771e-02 3.504e+00 9.970e-03 -5.579e-03 -2.675e-02
305 1 8.602e-03 -3.549e+00 3.510e+00 -1.007e-02 -6.603e-02 -1.206e-01
306 1 -1.751e+00 1.735e+00 3.508e+00 1.032e-02 -3.796e-02 -1.837e-02
307 1 1.738e+00 1.763e+00 3.499e+00 -4.059e-02 -4.220e-02 8.986e-03
308 1 1.831e-03 -6.672e-03 8.703e-03 -1.562e-02 9.068e-01 1.102e+00
309 1 1.909e-04 -1.138e-02 3.486e+00 -3.595e-02 -9.657e-03 4.166e-02
310 1 -1.755e+00 3.576e-04 1.742e+00 -2.098e-02 -3.501e-02 -3.112e-02
311 1 1.749e+00 -7.367e-03 1.744e+00 5.214e-04 -1.150e-02 -2.677e-02
312 1 -1.754e+00 -1.779e+00 3.509e+00 -2.227e-03 4.367e-02 3.034e-02
313 1 1.768e+00 -1.744e+00 3.499e+00 1.903e-03 6.120e-02 3.886e-02
314 1 -1.431e-02 3.490e+00 9.891e-03 1.583e-02 1.922e-01 8.094e-02
315 1 1.739e+00 1.760e+00 3.134e-03 1.895e-02 -1.003e-02 4.656e-03
316 1 -1.768e+00 1.760e+00 1.016e-02 -6.396e-03 -1.469e-02 2.082e-02
317 1 2.180e-02 1.750e+00 -1.771e+00 -1.072e-02 5.251e-02 8.756e-02
318 1 1.757e+00 1.772e-03 -1.783e+00 -2.793e-02 1.438e-01 1.097e-01
319 1 -1.746e+00 -7.559e-03 -1.767e+00 -2.849e-03 1.327e-01 1.019e-01
320 1 1.212e-02 -1.768e+00 -1.754e+00 -2.958e-02 1.707e-01 1.049e-01
321 1 4.403e-04 -1.780e+00 1.725e+00 1.245e-03 1.156e-01 8.984e-02
322 1 3.501e+00 6.365e-03 -6.171e-03 2.567e-02 2.744e-01 1.930e-01
323 1 -3.534e+00 -2.328e-02 -1.096e-02 2.210e-02 2.714e-01 2.188e-01
324 1 6.560e-03 -3.536e+00 -3.262e-03 1.560e-02 1.229e-01 1.600e-01
325 1 1.746e+00 -1.770e+00 -3.234e-02 9.380e-03 2.004e-01 1.254e-01
326 1 -1.756e+00 -1.769e+00 -3.491e-02 2.991e-02 1.994e-01 1.314e-01
ITEM: TIMESTEP
0
ITEM: NUMBER OF ATOMS
61
ITEM: BOX BOUNDS xy xz yz pp pp pp
                     0.00000000000000e+00 1.06200000000000e+01 0.00000000000000e+00
0.00000000000000e+00	1.06200000000000e+01	0.00000000000000e+00
0.00000000000000e+00	1.06200000000000e+01	0.00000000000000e+00
ITEM: ATOMS id type x y z DisplacementX DisplacementY DisplacementZ
327 1 5.245e+00 -1.589e-02 -1.768e+00 -1.689e-01 -1.552e-02 -1.748e-01
328 1 -2.381e-03 -5.288e+00 1.732e+00 -7.542e-02 -1.175e-02 -3.733e-02
329 1 -2.040e-02 5.304e+00 1.746e+00 -1.333e-01 -1.242e-02 -6.629e-02
330 1 -7.215e-03 5.297e+00 -1.773e+00 -1.201e-01 -4.356e-03 -6.683e-02
331 1 9.424e-04 -5.286e+00 -1.759e+00 -1.985e-01 -7.192e-03 -1.352e-01
332 1 -5.290e+00 -8.966e-05 -1.772e+00 -1.794e-01 -2.661e-02 -1.574e-01
333 1 -5.269e+00 -5.932e-03 1.743e+00 -7.940e-02 -2.090e-02 -7.263e-02
334 1 5.271e+00 1.472e-02 1.740e+00 4.638e-02 -3.345e-03 6.308e-02
335 1 1.744e+00 -5.285e+00 -2.771e-02 -8.530e-02 -2.617e-03 -4.973e-02
336 1 1.755e+00 5.295e+00 -1.363e-02 -1.395e-01 -9.005e-03 -8.507e-02
337 1 -5.294e+00 -1.759e+00 -2.363e-03 -8.395e-02 1.342e-02 -4.534e-02
338 1 -5.299e+00 1.769e+00 -3.717e-02 -1.091e-01 -3.663e-02 -7.755e-02
339 1 -1.749e+00 -5.307e+00 -1.350e-02 -1.279e-01 -4.099e-02 -3.749e-02
340 1 -1.765e+00 5.272e+00 -1.192e-02 -1.087e-01 -3.325e-02 -6.597e-02
341 1 5.261e+00 -1.752e+00 -9.735e-03 -1.402e-01 -4.440e-02 -1.015e-01
342 1 5.260e+00 1.751e+00 -8.312e-03 -1.020e-01 -2.023e-02 -6.885e-02
343 1 -3.536e+00 3.525e+00 1.702e-03 -4.512e-02 1.025e-04 5.429e-03
344 1 -3.526e+00 -3.527e+00 -1.893e-02 -5.414e-02 9.939e-03 -6.452e-02
345 1 3.493e+00 3.506e+00 -2.271e-02 4.744e-03 9.285e-03 -3.520e-02
346 1 3.496e+00 -3.508e+00 -1.189e-02 -4.978e-02 -1.152e-02 -4.245e-02
347 1 3.487e+00 -1.751e+00 1.746e+00 5.972e-02 4.871e-02 5.448e-02
348 1 3.502e+00 1.747e+00 1.758e+00 8.113e-02 1.736e-02 2.826e-02
349 1 3.500e+00 3.387e-03 3.484e+00 -8.028e-02 3.562e-02 -8.188e-02
350 1 3.511e+00 -1.767e+00 -1.779e+00 4.846e-02 -4.509e-03 4.098e-02
351 1 3.500e+00 1.745e+00 -1.753e+00 5.191e-02 1.239e-02 2.861e-02
352 1 -3.535e+00 -1.766e+00 -1.794e+00 -1.564e-02 -5.851e-02 3.533e-02
353 1 -3.527e+00 1.747e+00 -1.782e+00 -2.031e-02 6.586e-04 -5.380e-03
354 1 -3.531e+00 -1.747e+00 1.737e+00 3.214e-02 -6.236e-03 1.953e-02
355 1 -3.543e+00 1.773e+00 1.749e+00 3.818e-02 2.035e-02 4.264e-02
356 1 -1.775e+00 3.513e+00 -1.774e+00 1.274e-02 1.032e-02 2.164e-02
357 1 -1.757e+00 -3.506e+00 -1.775e+00 -1.026e-01 -6.937e-02 -2.935e-02
358 1 -1.762e+00 -3.518e+00 1.745e+00 6.757e-02 -3.435e-04 5.198e-02
359 1 -1.761e+00 3.504e+00 1.743e+00 1.052e-01 5.222e-02 6.080e-02
360 1 1.739e+00 3.531e+00 -1.785e+00 8.403e-02 4.635e-02 1.101e-01
361 1 1.762e+00 -3.523e+00 -1.769e+00 -1.443e-02 -3.911e-02 -7.300e-02
362 1 1.769e+00 -3.554e+00 1.749e+00 7.856e-02 -1.284e-02 8.168e-02
363 1 1.721e+00 3.531e+00 1.735e+00 1.081e-01 2.636e-02 1.353e-01
364 1 -7.869e-03 -3.525e+00 3.513e+00 -6.844e-02 1.689e-02 -4.282e-02
365 1 -2.669e-03 3.525e+00 3.514e+00 -5.229e-02 1.849e-02 -6.712e-02
366 1 -3.517e+00 1.010e-02 3.509e+00 -1.312e-01 3.596e-02 -1.104e-01
367 1 1.739e+00 1.742e+00 3.506e+00 -3.389e-02 -2.413e-02 2.753e-02
368 1 1.735e+00 -1.748e+00 3.491e+00 -6.830e-02 -2.670e-02 -2.621e-02
369 1 -8.190e-03 7.706e-03 1.059e-02 9.362e-01 -3.877e-02 1.119e+00
370 1 -7.599e-03 9.306e-03 3.468e+00 6.042e-02 -8.566e-03 9.655e-02
371 1 -9.545e-03 1.743e+00 1.733e+00 -5.559e-02 1.687e-02 -3.434e-02
372 1 -9.023e-03 -1.756e+00 1.733e+00 -4.494e-03 -4.826e-03 -3.669e-02
373 1 -1.772e+00 1.758e+00 3.517e+00 -2.113e-02 -3.750e-02 -1.869e-02
374 1 -1.732e+00 -1.769e+00 3.483e+00 1.682e-02 2.261e-03 -1.601e-03
375 1 3.486e+00 1.665e-02 1.241e-02 1.453e-01 -4.671e-03 7.867e-02
376 1 1.737e+00 -1.743e+00 -1.026e-02 7.974e-02 8.206e-02 2.570e-02
377 1 1.739e+00 1.764e+00 -1.670e-03 -7.889e-02 -3.894e-03 -8.016e-02
378 1 1.747e+00 4.854e-03 -1.781e+00 1.525e-01 1.693e-02 2.000e-01
379 1 -1.771e-02 -1.749e+00 -1.775e+00 1.877e-01 3.063e-02 1.837e-01
380 1 3.482e-03 1.760e+00 -1.779e+00 -1.325e-02 -5.366e-02 1.728e-02
381 1 -1.765e+00 -7.286e-03 -1.803e+00 1.355e-01 2.086e-02 1.126e-01
382 1 -1.786e+00 2.677e-04 1.740e+00 1.989e-01 4.354e-02 1.523e-01
383 1 2.847e-03 -3.534e+00 -1.534e-02 1.063e-01 -4.907e-02 1.301e-01
384 1 -2.556e-02 3.521e+00 -1.615e-02 2.839e-01 1.887e-02 2.465e-01
385 1 -3.509e+00 1.269e-03 -7.813e-03 1.645e-01 1.388e-02 1.667e-01
386 1 -1.753e+00 -1.747e+00 -6.651e-03 1.719e-01 6.753e-02 9.007e-02
387 1 -1.768e+00 1.753e+00 -1.646e-02 1.122e-01 3.222e-02 5.636e-02
ITEM: TIMESTEP
0
ITEM: NUMBER OF ATOMS
61
ITEM: BOX BOUNDS xy xz yz pp pp pp
                     0.00000000000000e+00 1.06200000000000e+01 0.00000000000000e+00
0.00000000000000e+00	1.06200000000000e+01	0.00000000000000e+00
0.00000000000000e+00	1.06200000000000e+01	0.00000000000000e+00
ITEM: ATOMS id type x y z DisplacementX DisplacementY DisplacementZ
388 1 -5.285e+00 1.152e-02 1.749e+00 3.633e-03 5.137e-02 -1.366e-03
389 1 -2.259e-02 5.301e+00 1.761e+00 1.384e-02 2.375e-03 4.502e-02
390 1 -1.064e-03 5.285e+00 -1.772e+00 -1.464e-01 2.396e-01 -3.699e-02
391 1 -5.295e+00 1.439e-02 -1.762e+00 -1.593e-01 2.212e-01 -5.433e-03
392 1 4.841e-03 -5.279e+00 1.755e+00 -6.123e-02 1.760e-01 -2.472e-02
393 1 3.616e-03 -5.280e+00 -1.753e+00 -7.382e-02 1.090e-01 1.308e-02
394 1 5.271e+00 -5.814e-03 1.774e+00 -7.974e-02 1.317e-01 1.715e-02
395 1 5.243e+00 1.429e-02 -1.748e+00 -8.793e-02 7.678e-02 1.772e-02