ITEM: TIMESTEP
0
ITEM: NUMBER OF ATOMS
69
ITEM: BOX BOUNDS xy xz yz pp pp pp
                     0.00000000000000e+00 1.06200000000000e+01 0.00000000000000e+00
0.00000000000000e+00	1.06200000000000e+01	0.00000000000000e+00
0.00000000000000e+00	1.06200000000000e+01	0.00000000000000e+00
ITEM: ATOMS id type x y z DisplacementX DisplacementY DisplacementZ
1 1 -1.726e+00 5.281e+00 -2.994e-03 -2.395e-03 -1.693e-01 -2.180e-01
2 1 3.463e+00 3.526e+00 -1.222e-04 -1.929e-02 3.199e-02 -5.060e-02
3 1 1.773e-02 3.511e+00 3.499e+00 -1.613e-02 -1.278e-02 -7.711e-02
4 1 3.276e-02 3.533e+00 -3.530e+00 -1.882e-02 -7.650e-02 -2.004e-02
5 1 5.243e+00 3.905e-03 1.750e+00 -3.695e-02 -8.141e-02 -3.867e-02
6 1 5.231e+00 9.165e-03 -1.768e+00 -6.154e-03 -1.958e-02 -5.571e-03
7 1 5.252e+00 -1.766e+00 -1.034e-02 2.953e-02 -3.598e-02 -8.200e-02
8 1 1.748e+00 -5.302e+00 -1.052e-02 -1.908e-02 -5.346e-02 -6.200e-02
9 1 -5.265e+00 -1.763e+00 -1.065e-02 -7.099e-03 -3.363e-02 -6.255e-02
10 1 -1.767e+00 -5.301e+00 -9.777e-03 2.317e-02 -1.499e-01 -1.501e-01
11 1 -5.258e+00 1.761e+00 -1.070e-02 1.128e-02 -2.725e-02 -8.983e-02
12 1 -5.263e+00 -1.687e-03 1.750e+00 1.031e-02 -7.978e-02 -9.868e-02
13 1 -5.259e+00 1.173e-03 -1.767e+00 -1.292e-02 -1.188e-01 -1.118e-02
14 1 -8.946e-03 -5.302e+00 1.752e+00 2.002e-02 -3.115e-02 -1.449e-02
15 1 -9.558e-03 -5.301e+00 -1.770e+00 3.479e-02 9.588e-04 -1.567e-02
16 1 1.827e-02 3.514e+00 4.303e-03 6.218e-03 2.299e-01 9.848e-02
17 1 3.486e+00 8.121e-04 3.506e+00 2.696e-02 -3.693e-03 -4.439e-02
18 1 3.488e+00 1.375e-03 -3.530e+00 6.683e-02 -5.665e-02 -1.150e-01
19 1 -3.497e+00 6.786e-03 3.510e+00 -8.136e-03 1.632e-02 -4.003e-02
20 1 -3.496e+00 7.597e-03 -3.529e+00 2.665e-02 -9.594e-02 -1.282e-01
21 1 -9.706e-03 -3.543e+00 3.512e+00 -1.028e-02 -3.198e-02 3.999e-03
22 1 -6.967e-03 -3.541e+00 -3.529e+00 7.080e-02 -1.692e-02 -4.956e-02
23 1 5.230e+00 1.776e+00 -1.098e-02 3.935e-02 -1.477e-01 -2.115e-01
24 1 3.504e+00 -3.537e+00 -1.036e-02 2.964e-02 -1.651e-01 -1.167e-01
25 1 -3.518e+00 -3.530e+00 -8.920e-03 9.099e-03 -2.223e-02 -6.817e-02
26 1 -1.712e+00 3.520e+00 1.750e+00 -5.642e-02 -1.113e-02 -7.503e-02
27 1 1.718e+00 1.766e+00 3.467e+00 -4.276e-02 8.455e-02 4.885e-02
28 1 -3.482e+00 3.525e+00 -6.789e-03 7.275e-03 -4.673e-02 -1.714e-02
29 1 -1.716e+00 1.771e+00 3.497e+00 1.300e-02 9.747e-03 6.794e-02
30 1 -1.758e+00 -1.768e+00 3.510e+00 1.733e-02 -1.614e-02 3.047e-02
31 1 -1.755e+00 -1.763e+00 -3.529e+00 -6.023e-02 -1.992e-02 -3.893e-02
32 1 1.747e+00 -1.778e+00 3.509e+00 6.665e-02 4.136e-02 3.522e-02
33 1 1.745e+00 -1.775e+00 -3.531e+00 -4.190e-03 -6.934e-02 -1.709e-02
34 1 -1.717e+00 3.537e+00 -1.763e+00 3.086e-03 4.318e-02 8.774e-03
35 1 3.492e+00 1.768e+00 1.751e+00 -1.595e-02 -2.871e-03 4.724e-02
36 1 3.454e+00 1.779e+00 -1.756e+00 -3.576e-02 2.175e-02 6.214e-02
37 1 1.750e+00 1.764e+00 -3.530e+00 -1.190e-02 4.960e-02 -9.678e-03
38 1 3.499e+00 -1.769e+00 1.751e+00 -2.095e-02 5.943e-02 -2.422e-02
39 1 3.498e+00 -1.773e+00 -1.770e+00 -3.735e-02 4.542e-02 1.059e-01
40 1 1.751e+00 -3.541e+00 1.750e+00 -2.855e-03 5.084e-02 5.445e-02
41 1 1.746e+00 -3.538e+00 -1.770e+00 -4.205e-02 4.594e-02 6.463e-02
42 1 -3.507e+00 -1.761e+00 1.750e+00 5.913e-03 -3.034e-02 1.331e-02
43 1 -3.508e+00 -1.763e+00 -1.768e+00 6.810e-02 7.599e-02 1.378e-01
44 1 -1.766e+00 -3.540e+00 1.750e+00 1.111e-02 4.841e-02 -1.540e-02
45 1 -1.764e+00 -3.536e+00 -1.770e+00 -7.836e-03 1.181e-02 6.927e-02
46 1 -3.503e+00 1.768e+00 1.751e+00 -1.084e-02 5.368e-02 6.011e-02
47 1 -3.485e+00 1.769e+00 -1.764e+00 -2.807e-04 7.803e-02 4.121e-02
48 1 1.721e+00 1.765e+00 3.306e-02 -2.070e-02 -3.161e-02 2.354e-03
49 1 -1.738e+00 8.010e-03 5.268e+00 -1.117e-02 -1.746e-02 -9.342e-02
50 1 -6.397e-03 -1.772e+00 5.269e+00 -6.815e-02 -9.539e-02 -6.321e-02
51 1 -1.727e+00 1.775e+00 -3.530e+00 -1.048e-02 -4.721e-02 -3.293e-02
52 1 2.456e-03 -1.512e-03 3.501e+00 -2.412e-02 1.201e-01 1.468e-01
53 1 5.514e-04 1.089e-04 1.935e-03 4.671e-02 1.267e+00 1.186e+00
54 1 -1.735e+00 1.055e-02 1.752e+00 5.291e-02 1.732e-02 -2.636e-02
55 1 1.741e+00 -1.431e-02 5.261e+00 8.756e-03 -6.343e-02 -8.702e-02
56 1 2.970e-02 1.778e+00 5.273e+00 4.856e-02 -3.479e-02 -1.298e-02
57 1 -1.716e+00 1.771e+00 5.282e-03 3.547e-02 5.560e-02 9.463e-02
58 1 1.744e+00 -1.778e+00 -4.632e-03 -3.309e-02 5.882e-02 4.054e-02
59 1 -1.756e+00 -1.767e+00 -8.344e-03 -4.120e-02 6.268e-02 1.119e-01
60 1 4.143e-03 -3.134e-03 -3.531e+00 1.898e-02 2.824e-02 7.863e-02
61 1 -1.739e+00 9.336e-03 -1.768e+00 -9.984e-04 5.058e-02 2.689e-02
62 1 -9.710e-03 -1.788e+00 1.751e+00 3.612e-02 2.791e-02 -2.494e-02
63 1 -7.541e-03 -1.771e+00 -1.766e+00 6.685e-03 8.793e-02 2.828e-02
64 1 1.734e+00 -1.582e-02 1.751e+00 -1.655e-02 -7.101e-02 -2.005e-02
65 1 2.988e-02 1.776e+00 -1.773e+00 -3.587e-02 6.001e-02 -1.785e-02
66 1 3.486e+00 8.551e-04 -4.974e-03 -5.989e-03 2.435e-01 2.108e-01
67 1 -3.494e+00 5.858e-03 -8.340e-03 -5.407e-02 1.689e-01 1.386e-01
68 1 -8.471e-03 -3.541e+00 -9.717e-03 -5.264e-02 1.602e-01 1.762e-01
69 1 1.744e+00 -1.303e-02 -1.762e+00 -1.280e-02 -1.771e-02 1.942e-02
ITEM: TIMESTEP
0
ITEM: NUMBER OF ATOMS
66
ITEM: BOX BOUNDS xy xz yz pp pp pp
                     0.00000000000000e+00 1.06200000000000e+01 0.00000000000000e+00
0.00000000000000e+00	1.06200000000000e+01	0.00000000000000e+00
0.00000000000000e+00	1.06200000000000e+01	0.00000000000000e+00
ITEM: ATOMS id type x y z DisplacementX DisplacementY DisplacementZ
70 1 5.178e+00 1.754e+00 -5.292e-03 -5.699e-02 5.743e-02 -4.805e-02
71 1 -1.776e+00 5.235e+00 -1.434e-02 -1.438e-01 1.859e-02 -1.797e-01
72 1 -9.142e-03 3.510e+00 3.498e+00 -5.619e-02 2.623e-03 -1.263e-01
73 1 -1.276e-02 3.514e+00 -3.534e+00 -6.298e-02 3.768e-02 -7.488e-02
74 1 3.436e+00 -5.018e-03 3.462e+00 1.358e-02 -2.264e-02 -5.082e-02
75 1 5.204e+00 -1.771e+00 -8.813e-03 -2.582e-02 -1.432e-02 -1.666e-01
76 1 5.170e+00 8.313e-03 -1.759e+00 -4.551e-02 -4.040e-02 -1.264e-01
77 1 -5.311e+00 1.731e+00 -1.397e-02 -1.088e-01 -2.952e-02 -4.805e-02
78 1 1.707e+00 -5.313e+00 -1.542e-02 -5.554e-02 -1.162e-02 -8.197e-02
79 1 -1.802e+00 -5.302e+00 -1.438e-02 -1.364e-01 -1.135e-02 -1.451e-01
80 1 -5.311e+00 -1.776e+00 -1.397e-02 3.391e-03 1.705e-02 -5.572e-02
81 1 -4.971e-02 -5.310e+00 1.746e+00 -3.669e-02 -1.625e-03 -4.012e-02
82 1 -4.763e-02 -5.306e+00 -1.773e+00 -6.422e-02 -1.583e-02 -8.605e-02
83 1 -5.309e+00 -1.904e-02 1.748e+00 -8.953e-02 -4.024e-02 -6.831e-02
84 1 -5.306e+00 -1.920e-02 -1.776e+00 -9.992e-02 -1.769e-04 -9.764e-02
85 1 5.206e+00 -4.148e-03 1.746e+00 -3.128e-02 7.027e-03 -7.218e-02
86 1 -3.544e+00 3.490e+00 -1.471e-02 -3.497e-02 -4.985e-02 -8.776e-02
87 1 1.732e+00 1.743e+00 -1.578e-03 6.164e-02 -2.447e-02 5.278e-02
88 1 3.466e+00 -1.021e-02 -3.534e+00 -9.213e-02 2.007e-02 -1.730e-02
89 1 -3.916e-02 -3.539e+00 3.503e+00 2.038e-02 1.513e-02 -2.558e-02
90 1 -3.940e-02 -3.535e+00 -3.534e+00 -1.060e-01 1.653e-02 -7.410e-02
91 1 -3.541e+00 -1.131e-02 3.509e+00 -2.166e-02 2.092e-02 -4.159e-02
92 1 -3.535e+00 -6.945e-03 -3.535e+00 -6.118e-02 3.434e-02 -4.396e-02
93 1 1.734e+00 1.741e+00 3.494e+00 8.610e-02 1.905e-02 1.386e-03
94 1 3.462e+00 -3.548e+00 -1.207e-02 -1.064e-01 -4.216e-02 -8.066e-02
95 1 -3.550e+00 -3.534e+00 -1.566e-02 1.098e-02 -6.173e-02 -3.134e-02
96 1 -9.407e-03 3.510e+00 -6.504e-03 5.559e-02 -1.779e-03 1.093e-01
97 1 1.748e+00 1.763e+00 -3.534e+00 -6.391e-03 -8.718e-02 6.921e-02
98 1 1.715e+00 -1.770e+00 3.499e+00 -3.420e-02 2.624e-02 4.236e-02
99 1 -1.764e+00 3.505e+00 1.747e+00 -2.509e-02 -2.085e-02 -4.230e-02
100 1 -1.765e+00 3.510e+00 -1.771e+00 2.847e-02 1.616e-03 3.658e-02
101 1 1.720e+00 -1.774e+00 -3.535e+00 -1.700e-02 4.726e-02 -2.142e-02
102 1 -1.780e+00 -1.767e+00 3.503e+00 -3.028e-02 -3.542e-02 8.691e-02
103 1 -1.780e+00 -1.764e+00 -3.535e+00 7.018e-03 -1.777e-02 -3.679e-02
104 1 -3.540e+00 1.745e+00 1.746e+00 1.215e-01 1.949e-02 6.063e-02
105 1 -3.537e+00 1.744e+00 -1.773e+00 4.065e-02 -9.430e-03 1.080e-01
106 1 1.706e+00 -3.557e+00 1.745e+00 3.968e-02 5.329e-02 6.158e-02
107 1 1.710e+00 -3.544e+00 -1.771e+00 6.204e-02 -2.395e-02 3.015e-02
108 1 -1.789e+00 -3.530e+00 1.746e+00 -1.422e-02 1.974e-02 -3.893e-03
109 1 -1.791e+00 -3.532e+00 -1.773e+00 5.553e-02 3.047e-02 8.755e-02
110 1 -3.546e+00 -1.773e+00 1.746e+00 -4.500e-02 8.731e-02 2.014e-02
111 1 -3.541e+00 -1.769e+00 -1.775e+00 5.662e-02 -9.798e-03 5.764e-02
112 1 3.449e+00 -1.786e+00 1.746e+00 -3.586e-02 1.568e-02 -9.643e-03
113 1 -2.417e-02 -1.763e+00 5.262e+00 -3.694e-02 -1.730e-02 -9.832e-02
114 1 -1.767e+00 -1.567e-03 5.259e+00 -3.584e-02 -4.913e-02 -9.411e-02
115 1 -1.766e+00 1.753e+00 3.504e+00 3.732e-02 5.954e-02 1.820e-02
116 1 -1.765e+00 1.757e+00 -3.535e+00 -4.685e-02 -3.281e-03 -3.103e-02
117 1 3.460e+00 -1.784e+00 -1.763e+00 5.490e-02 4.704e-02 9.003e-02
118 1 3.439e+00 -5.173e-03 2.935e-02 2.107e-01 -2.644e-02 1.652e-01
119 1 1.716e+00 -1.771e+00 -4.014e-03 -4.274e-02 2.335e-02 2.785e-02
120 1 -2.013e-02 -1.760e+00 1.747e+00 -1.332e-02 -6.012e-02 -9.048e-02
121 1 5.184e-03 1.749e+00 1.746e+00 -6.636e-02 2.676e-02 -1.086e-02
122 1 1.746e+00 5.858e-03 5.269e+00 -9.347e-02 9.015e-04 -2.954e-02
123 1 -1.624e-03 1.765e+00 5.261e+00 -1.080e-01 -5.206e-02 -1.964e-02
124 1 1.744e+00 6.408e-03 -1.778e+00 1.686e-02 -1.821e-02 -8.435e-02
125 1 -1.915e-04 -7.450e-04 1.073e-03 1.220e+00 3.768e-02 1.154e+00
126 1 4.403e-05 7.152e-04 3.492e+00 1.233e-01 5.804e-02 1.511e-01
127 1 -1.779e+00 -1.764e+00 -1.264e-02 2.657e-02 -6.324e-02 8.479e-02
128 1 -2.362e-02 -1.763e+00 -1.772e+00 1.367e-02 -1.216e-02 9.498e-02
129 1 -1.786e+00 -4.271e-03 1.745e+00 1.825e-02 -1.917e-02 -2.178e-02
130 1 -1.768e+00 -1.738e-03 -1.769e+00 2.072e-02 -4.070e-02 1.242e-02
131 1 -1.110e-03 1.764e+00 -1.771e+00 1.796e-02 3.102e-02 -1.703e-02
132 1 -4.003e-02 -3.538e+00 -1.153e-02 2.505e-01 2.460e-02 2.760e-01
133 1 -3.541e+00 -1.016e-02 -1.601e-02 1.794e-01 1.992e-02 1.530e-01
134 1 -1.763e+00 1.754e+00 -1.268e-02 1.054e-01 -2.220e-03 8.668e-02
135 1 -9.069e-03 6.029e-03 -3.532e+00 5.566e-03 -1.377e-02 1.641e-02
ITEM: TIMESTEP
0
ITEM: NUMBER OF ATOMS
60
ITEM: BOX BOUNDS xy xz yz pp pp pp
                     0.00000000000000e+00 1.06200000000000e+01 0.00000000000000e+00
0.00000000000000e+00	1.06200000000000e+01	0.00000000000000e+00
0.00000000000000e+00	1.06200000000000e+01	0.00000000000000e+00
ITEM: ATOMS id type x y z DisplacementX DisplacementY DisplacementZ
136 1 -3.444e+00 3.514e+00 -3.548e-02 -6.589e-02 5.690e-02 -3.774e-02
137 1 -1.705e+00 1.747e+00 3.463e+00 -8.414e-03 8.667e-03 -6.824e-02
138 1 3.505e+00 3.522e+00 -4.301e-02 5.213e-02 -3.329e-02 -6.694e-02
139 1 -1.690e+00 1.768e+00 -3.563e+00 3.341e-02 2.841e-02 -2.094e-02
140 1 1.744e+00 1.759e+00 3.469e+00 4.602e-03 2.878e-02 -3.974e-02
141 1 1.742e+00 1.764e+00 -3.563e+00 5.586e-02 -2.263e-02 -9.411e-02
142 1 -5.222e+00 1.809e-03 1.717e+00 8.614e-02 -1.700e-02 -1.253e-01
143 1 -5.204e+00 4.191e-03 -1.800e+00 9.052e-02 1.972e-02 -1.304e-01
144 1 5.267e+00 3.088e-03 1.717e+00 4.445e-02 -4.913e-02 -1.063e-01
145 1 5.263e+00 4.735e-03 -1.806e+00 1.450e-01 7.745e-03 -9.637e-02
146 1 -5.218e+00 -1.761e+00 -4.170e-02 -4.089e-02 -5.295e-03 4.273e-03
147 1 5.278e+00 -1.759e+00 -4.545e-02 -4.088e-02 1.196e-02 6.446e-02
148 1 -1.729e+00 -5.308e+00 -4.530e-02 7.580e-02 8.159e-03 -5.986e-02
149 1 1.782e+00 -5.302e+00 -4.289e-02 2.573e-02 -4.459e-03 -5.186e-02
150 1 2.813e-02 -5.310e+00 1.715e+00 3.686e-02 -1.653e-02 -4.044e-02
151 1 2.559e-02 -5.305e+00 -1.805e+00 2.542e-02 -4.089e-02 -4.007e-02
152 1 -1.703e+00 1.748e+00 -3.170e-02 -4.189e-04 -5.612e-04 -1.662e-03
153 1 -3.436e+00 4.743e-03 3.462e+00 1.462e-02 -1.423e-03 -1.247e-02
154 1 2.482e-02 -3.545e+00 3.475e+00 5.393e-02 -9.937e-03 -2.672e-02
155 1 2.607e-02 -3.540e+00 -3.565e+00 7.796e-02 1.215e-02 -9.389e-02
156 1 -5.203e+00 1.760e+00 -4.113e-02 1.416e-01 3.415e-03 -1.936e-01
157 1 5.262e+00 1.764e+00 -4.410e-02 1.168e-01 1.407e-02 -1.874e-01
158 1 -3.478e+00 -3.533e+00 -4.152e-02 9.471e-02 3.046e-02 -5.484e-02
159 1 3.530e+00 -3.528e+00 -4.240e-02 8.288e-02 -5.710e-02 -9.529e-02
160 1 -1.722e+00 -1.765e+00 3.466e+00 -6.634e-02 2.672e-02 5.660e-03
161 1 1.742e+00 1.759e+00 -3.339e-02 -1.868e-01 -9.998e-03 3.236e-02
162 1 -3.430e+00 1.753e+00 1.718e+00 -1.991e-02 1.645e-02 -3.947e-04
163 1 -3.446e+00 1.046e-02 -3.564e+00 1.411e-02 1.865e-02 -8.836e-02
164 1 3.510e+00 7.515e-03 3.479e+00 3.328e-02 4.039e-02 -6.115e-02
165 1 3.494e+00 1.343e-02 -3.562e+00 -1.230e-02 -5.756e-02 -2.185e-02
166 1 -3.457e+00 -1.755e+00 1.716e+00 8.021e-03 4.828e-02 -5.596e-02
167 1 -1.718e+00 -1.769e+00 -3.564e+00 1.795e-02 2.525e-02 2.303e-02
168 1 1.766e+00 -1.766e+00 3.472e+00 -1.035e-01 2.823e-02 1.263e-01
169 1 1.766e+00 -1.765e+00 -3.563e+00 -5.715e-02 3.396e-03 -1.093e-02
170 1 -3.437e+00 1.770e+00 -1.799e+00 -5.659e-02 -6.999e-03 3.674e-02
171 1 3.500e+00 1.772e+00 1.716e+00 -9.188e-02 1.733e-02 2.992e-02
172 1 3.491e+00 1.770e+00 -1.802e+00 -1.017e-01 2.061e-02 1.148e-01
173 1 -3.460e+00 -1.758e+00 -1.802e+00 -3.369e-02 3.676e-02 5.136e-03
174 1 3.523e+00 -1.764e+00 1.717e+00 1.106e-02 1.160e-02 -2.068e-02
175 1 3.512e+00 -1.755e+00 -1.804e+00 -3.674e-02 5.569e-02 5.539e-04
176 1 -1.729e+00 -3.553e+00 1.718e+00 -1.770e-02 -2.338e-02 -2.378e-02
177 1 -1.728e+00 -3.539e+00 -1.801e+00 1.600e-02 -2.874e-02 1.025e-02
178 1 1.776e+00 -3.538e+00 1.717e+00 1.872e-02 5.306e-02 -4.179e-02
179 1 1.780e+00 -3.537e+00 -1.804e+00 -1.873e-02 -2.477e-02 3.373e-02
180 1 7.934e-05 -3.835e-04 5.286e-04 -1.271e+00 4.661e-02 1.254e+00
181 1 -1.691e+00 1.158e-02 5.241e+00 5.059e-02 4.141e-02 -7.506e-03
182 1 -8.210e-04 -2.717e-03 3.433e+00 -4.498e-02 -8.924e-02 8.481e-02
183 1 1.732e+00 1.355e-02 5.222e+00 -3.869e-03 -3.208e-02 -4.001e-02
184 1 -1.721e+00 -1.767e+00 -3.386e-02 -1.981e-02 -2.059e-02 -2.055e-02
185 1 2.347e-02 -1.779e+00 5.227e+00 8.077e-02 5.958e-03 -6.146e-02
186 1 2.759e-02 -2.124e-03 -3.564e+00 1.903e-02 -3.028e-02 -2.913e-02
187 1 1.767e+00 -1.765e+00 -3.942e-02 -4.595e-03 -2.217e-02 2.817e-02
188 1 1.249e-02 -1.781e+00 1.718e+00 8.914e-03 -3.579e-02 -5.958e-02
189 1 -1.691e+00 1.187e-02 -1.805e+00 -1.057e-03 -7.377e-02 2.941e-02
190 1 1.770e+00 1.182e-03 1.715e+00 -3.478e-02 6.865e-03 -2.995e-02
191 1 1.733e+00 1.437e-02 -1.789e+00 -5.825e-02 3.090e-02 3.746e-02
192 1 -3.437e+00 7.216e-03 -2.959e-02 -1.894e-01 -1.769e-02 3.193e-01
193 1 2.352e-02 -3.546e+00 -4.232e-02 -1.769e-01 2.313e-02 2.782e-01
194 1 2.264e-02 -1.778e+00 -1.793e+00 -5.047e-02 1.518e-02 2.697e-02
195 1 3.510e+00 1.002e-02 -4.621e-02 -1.744e-01 1.616e-02 1.968e-01
ITEM: TIMESTEP
0
ITEM: NUMBER OF ATOMS
60
ITEM: BOX BOUNDS xy xz yz pp pp pp
                     0.00000000000000e+00 1.06200000000000e+01 0.00000000000000e+00
0.00000000000000e+00	1.06200000000000e+01	0.00000000000000e+00
0.00000000000000e+00	1.06200000000000e+01	0.00000000000000e+00
ITEM: ATOMS id type x y z DisplacementX DisplacementY DisplacementZ
196 1 -3.446e+00 3.517e+00 -3.546e-02 3.234e-02 -7.356e-02 -2.670e-02
197 1 -1.704e+00 1.747e+00 3.462e+00 1.428e-02 -4.471e-02 -7.222e-03
198 1 3.504e+00 3.522e+00 -4.268e-02 -1.465e-02 -1.314e-02 8.258e-03
199 1 -1.689e+00 1.765e+00 -3.563e+00 -1.610e-02 -5.456e-02 4.472e-02
200 1 1.742e+00 1.758e+00 3.468e+00 3.212e-03 2.748e-02 2.309e-02
201 1 1.740e+00 1.763e+00 -3.566e+00 -7.867e-02 -2.636e-02 3.438e-02
202 1 -5.222e+00 2.052e-03 1.718e+00 -4.064e-02 -4.150e-02 -2.000e-02
203 1 -5.205e+00 2.651e-03 -1.798e+00 1.646e-02 -1.120e-01 2.444e-02
204 1 5.268e+00 2.914e-03 1.716e+00 3.487e-02 -5.015e-03 3.071e-02
205 1 5.264e+00 4.342e-03 -1.805e+00 -2.077e-02 -2.933e-02 5.211e-02
206 1 -5.216e+00 -1.760e+00 -4.244e-02 -1.393e-02 1.600e-02 3.387e-02
207 1 5.276e+00 -1.760e+00 -4.722e-02 3.773e-02 -7.331e-03 3.238e-02
208 1 -1.730e+00 -5.310e+00 -4.623e-02 2.833e-02 -4.558e-02 3.416e-02
209 1 1.781e+00 -5.304e+00 -4.675e-02 5.371e-02 -1.105e-01 4.979e-02
210 1 2.625e-02 -5.310e+00 1.717e+00 -4.534e-02 -5.779e-02 1.013e-01
211 1 2.529e-02 -5.303e+00 -1.802e+00 -3.100e-02 -6.352e-02 2.555e-02
212 1 -1.701e+00 1.747e+00 -3.179e-02 4.138e-02 -5.144e-02 -3.202e-02
213 1 -3.437e+00 6.067e-03 3.461e+00 -1.919e-02 -3.764e-02 -1.004e-02
214 1 2.573e-02 -3.544e+00 3.476e+00 1.850e-02 -6.900e-02 1.667e-02
215 1 2.559e-02 -3.539e+00 -3.564e+00 -2.470e-02 -1.461e-01 9.154e-02
216 1 -5.204e+00 1.760e+00 -4.145e-02 -2.172e-02 -1.463e-01 2.150e-01
217 1 5.261e+00 1.764e+00 -4.589e-02 -6.026e-02 -1.884e-01 1.888e-01
218 1 -3.478e+00 -3.533e+00 -4.245e-02 -1.390e-02 -7.149e-02 7.285e-02
219 1 3.529e+00 -3.529e+00 -4.539e-02 1.242e-02 -9.625e-02 9.283e-02
220 1 -1.722e+00 -1.767e+00 3.468e+00 -4.985e-02 7.653e-02 -7.005e-02
221 1 1.741e+00 1.760e+00 -3.442e-02 2.677e-02 1.247e-01 -7.963e-02
222 1 -3.430e+00 1.752e+00 1.717e+00 2.340e-03 1.693e-02 -7.135e-02
223 1 -3.449e+00 1.012e-02 -3.563e+00 -2.607e-02 -2.382e-02 1.032e-02
224 1 3.509e+00 7.224e-03 3.477e+00 -2.792e-02 -4.374e-02 -1.521e-02
225 1 3.494e+00 1.177e-02 -3.564e+00 1.838e-02 -4.015e-02 9.238e-02
226 1 -3.458e+00 -1.755e+00 1.715e+00 2.806e-02 -2.121e-02 2.295e-02
227 1 -1.716e+00 -1.769e+00 -3.564e+00 2.367e-02 -1.328e-03 1.116e-02
228 1 1.766e+00 -1.765e+00 3.472e+00 -3.777e-02 6.896e-02 -1.168e-01
229 1 1.767e+00 -1.764e+00 -3.563e+00 2.764e-02 3.384e-02 6.526e-02
230 1 -3.436e+00 1.770e+00 -1.800e+00 4.219e-02 1.018e-01 -3.088e-02
231 1 3.503e+00 1.773e+00 1.716e+00 -7.104e-02 2.835e-02 -6.135e-02
232 1 3.492e+00 1.771e+00 -1.801e+00 -2.349e-02 6.506e-02 -1.468e-01
233 1 -3.461e+00 -1.757e+00 -1.799e+00 -1.460e-02 1.343e-03 -2.046e-02
234 1 3.524e+00 -1.763e+00 1.716e+00 -4.086e-02 -8.905e-03 -1.831e-02
235 1 3.512e+00 -1.756e+00 -1.802e+00 -4.441e-02 3.283e-02 -4.736e-02
236 1 -1.728e+00 -3.554e+00 1.717e+00 4.734e-02 -8.657e-03 -5.655e-02
237 1 -1.725e+00 -3.539e+00 -1.800e+00 2.167e-02 5.955e-02 1.154e-02
238 1 1.778e+00 -3.537e+00 1.717e+00 -4.068e-02 4.745e-02 -3.158e-02
239 1 1.777e+00 -3.538e+00 -1.801e+00 -3.210e-02 2.531e-02 -9.256e-02
240 1 -8.916e-04 -1.189e-03 2.032e-04 -4.591e-02 1.386e+00 -1.337e+00
241 1 -1.691e+00 1.154e-02 5.240e+00 -3.645e-02 -3.195e-02 5.944e-02
242 1 -1.061e-03 5.620e-04 3.432e+00 1.676e-02 9.991e-02 -1.349e-01
243 1 1.734e+00 1.385e-02 5.223e+00 3.265e-02 -6.303e-02 5.788e-02
244 1 -1.720e+00 -1.767e+00 -3.339e-02 -1.673e-02 -1.548e-02 -3.362e-02
245 1 2.311e-02 -1.777e+00 5.226e+00 -3.583e-02 -3.928e-02 5.831e-02
246 1 2.687e-02 -4.412e-03 -3.563e+00 6.452e-03 -6.445e-04 -8.141e-02
247 1 1.766e+00 -1.765e+00 -3.909e-02 -3.250e-02 4.156e-02 1.411e-02
248 1 1.187e-02 -1.781e+00 1.717e+00 7.281e-03 8.203e-03 4.034e-02
249 1 -1.688e+00 9.957e-03 -1.805e+00 2.187e-03 3.046e-02 -1.369e-01
250 1 1.769e+00 1.496e-04 1.715e+00 1.331e-02 -3.138e-02 -5.045e-02
251 1 1.735e+00 1.192e-02 -1.788e+00 9.568e-03 1.704e-02 -9.660e-02
252 1 -3.437e+00 6.823e-03 -2.920e-02 -6.258e-03 2.182e-01 -2.720e-01
253 1 2.356e-02 -3.545e+00 -4.182e-02 6.336e-03 3.360e-01 -2.038e-01
254 1 2.386e-02 -1.779e+00 -1.795e+00 1.599e-02 5.465e-02 -7.767e-02
255 1 3.508e+00 7.071e-03 -4.541e-02 -1.059e-03 2.166e-01 -2.832e-01
ITEM: TIMESTEP
0
ITEM: NUMBER OF ATOMS
72
ITEM: BOX BOUNDS xy xz yz pp pp pp
                     0.00000000000000e+00 1.06200000000000e+01 0.00000000000000e+00
0.00000000000000e+00	1.06200000000000e+01	0.00000000000000e+00
0.00000000000000e+00	1.06200000000000e+01	0.00000000000000e+00
ITEM: ATOMS id type x y z DisplacementX DisplacementY DisplacementZ
256 1 5.224e+00 1.754e+00 2.042e-04 -3.128e-02 -2.768e-02 4.140e-02
257 1 5.223e+00 -1.030e-02 1.756e+00 -5.063e-02 -1.101e-01 6.825e-04
258 1 5.223e+00 -9.295e-03 -1.755e+00 -4.963e-02 -5.025e-02 -7.684e-03
259 1 1.726e+00 -5.312e+00 3.366e-04 -5.403e-02 -4.485e-02 1.634e-02
260 1 -5.290e+00 -1.534e-02 -1.762e+00 -7.114e-02 -3.638e-02 -1.804e-02
261 1 -5.290e+00 -1.549e-02 1.760e+00 1.228e-02 -5.999e-03 -1.377e-02
262 1 -3.181e-02 -5.312e+00 -1.760e+00 -4.746e-02 -5.790e-02 9.725e-02
263 1 -3.241e-02 -5.313e+00 1.760e+00 -4.995e-02 -4.850e-02 -1.252e-02
264 1 -5.292e+00 -1.777e+00 5.675e-04 -8.209e-02 -6.816e-02 1.354e-02
265 1 -1.790e+00 -5.309e+00 5.960e-05 -6.317e-02 -7.866e-02 -3.344e-02
266 1 5.234e+00 -1.780e+00 3.807e-04 -5.942e-02 -8.354e-02 -4.022e-02
267 1 -5.289e+00 1.741e+00 1.217e-05 -5.411e-02 -1.169e-01 -1.239e-02
268 1 1.114e-02 5.271e+00 1.754e+00 -1.208e-01 -1.254e-01 6.106e-02
269 1 1.090e-02 5.270e+00 -1.753e+00 -6.596e-02 -5.949e-02 -4.902e-02
270 1 -3.537e+00 -3.537e+00 -2.879e-03 -1.176e-01 -8.375e-02 -3.338e-02
271 1 -2.646e-02 -3.545e+00 3.520e+00 -1.060e-01 -9.660e-02 1.010e-02
272 1 -2.606e-02 -3.545e+00 -3.519e+00 -1.801e-02 5.525e-03 2.235e-02
273 1 3.483e+00 -3.555e+00 1.526e-03 -1.058e-01 -8.697e-02 1.521e-02
274 1 -3.523e+00 -7.785e-03 3.521e+00 -9.729e-02 -8.361e-02 -1.127e-02
275 1 -3.521e+00 -7.789e-03 -3.519e+00 -7.158e-02 -5.409e-02 -5.281e-02
276 1 -3.519e+00 3.506e+00 -2.172e-03 -1.261e-01 -1.045e-01 -5.423e-03
277 1 1.753e+00 3.503e+00 -1.750e+00 -2.986e-02 -2.836e-02 2.072e-02
278 1 1.753e+00 3.502e+00 1.750e+00 -1.546e-02 1.795e-03 -6.251e-02
279 1 -1.747e+00 5.267e+00 -1.259e-03 -4.151e-02 -9.881e-03 -4.716e-02
280 1 3.479e+00 -2.471e-02 3.509e+00 -4.461e-02 -5.678e-02 -2.940e-02
281 1 3.478e+00 -2.466e-02 -3.513e+00 -5.241e-02 -2.667e-02 -8.024e-02
282 1 1.902e-02 3.526e+00 3.513e+00 -6.117e-02 3.432e-03 2.224e-02
283 1 1.760e-02 3.524e+00 -3.515e+00 -7.334e-02 -1.380e-02 -1.569e-02
284 1 3.458e+00 1.754e+00 1.716e+00 -1.282e-02 2.071e-03 1.758e-02
285 1 3.457e+00 1.756e+00 -1.716e+00 5.224e-03 -4.129e-02 -9.034e-02
286 1 -1.749e+00 1.760e+00 -3.516e+00 3.898e-02 -3.237e-02 3.763e-02
287 1 -1.750e+00 1.759e+00 3.516e+00 -2.922e-03 4.045e-02 -4.917e-02
288 1 1.729e+00 -1.784e+00 -3.518e+00 3.218e-02 5.921e-02 2.563e-02
289 1 1.730e+00 -1.784e+00 3.517e+00 -4.200e-02 -2.803e-02 -5.099e-03
290 1 3.482e+00 -1.789e+00 1.757e+00 9.638e-02 1.099e-01 1.376e-02
291 1 3.482e+00 -1.789e+00 -1.758e+00 8.956e-02 2.678e-02 5.390e-02
292 1 -1.771e+00 -1.771e+00 -3.520e+00 8.242e-02 5.193e-02 2.042e-02
293 1 -1.772e+00 -1.771e+00 3.520e+00 3.487e-02 2.299e-02 -2.866e-02
294 1 -3.529e+00 -1.772e+00 1.760e+00 7.402e-02 3.044e-03 -2.816e-02
295 1 -3.530e+00 -1.772e+00 -1.761e+00 5.976e-02 4.937e-02 4.518e-02
296 1 -1.781e+00 -3.541e+00 -1.762e+00 1.926e-04 3.875e-02 -3.942e-02
297 1 -1.783e+00 -3.541e+00 1.760e+00 9.959e-02 7.434e-02 7.042e-02
298 1 1.726e+00 -3.552e+00 1.761e+00 2.314e-02 2.410e-02 -7.068e-03
299 1 1.727e+00 -3.554e+00 -1.763e+00 3.314e-02 -8.434e-02 -3.898e-03
300 1 -3.521e+00 1.751e+00 1.760e+00 -1.620e-02 -1.625e-02 3.435e-02
301 1 -3.520e+00 1.751e+00 -1.760e+00 5.134e-02 4.501e-02 3.080e-02
302 1 1.740e+00 -1.278e-02 -5.280e+00 -6.440e-02 -1.354e-01 2.939e-03
303 1 1.765e+00 1.768e+00 -3.524e+00 1.647e-02 5.322e-02 -3.666e-02
304 1 1.767e+00 1.768e+00 3.525e+00 1.708e-02 3.924e-02 -4.373e-02
305 1 -1.873e-02 -1.776e+00 -5.279e+00 -8.934e-02 -4.346e-02 -2.441e-02
306 1 -1.761e+00 -4.688e-03 -5.279e+00 -1.123e-01 -8.888e-02 2.373e-02
307 1 -1.745e+00 3.514e+00 -1.758e+00 3.813e-02 7.800e-02 -2.333e-02
308 1 -1.746e+00 3.516e+00 1.757e+00 1.007e-01 5.980e-02 -3.972e-02
309 1 7.702e-04 -3.057e-04 4.049e-04 1.234e+00 1.200e+00 -4.320e-02
310 1 7.934e-03 1.763e+00 5.279e+00 -1.015e-01 -1.301e-01 4.930e-02
311 1 1.736e+00 -1.129e-02 -1.750e+00 -1.492e-02 5.677e-02 5.855e-02
312 1 1.736e+00 -1.213e-02 1.750e+00 2.324e-03 1.880e-02 4.957e-02
313 1 2.526e-02 3.508e+00 1.049e-04 1.071e-01 1.875e-01 -5.913e-02
314 1 -3.527e+00 -1.136e-02 -1.058e-03 1.952e-01 2.262e-01 7.451e-02
315 1 -2.890e-02 -3.550e+00 -1.168e-05 1.868e-01 2.225e-01 -9.290e-02
316 1 -2.195e-03 -3.117e-03 3.516e+00 8.339e-02 4.738e-02 -7.433e-02
317 1 -3.154e-03 -4.076e-03 -3.517e+00 1.546e-01 1.490e-01 -1.804e-02
318 1 3.470e+00 -2.589e-02 6.092e-04 1.404e-01 1.917e-01 -3.674e-02
319 1 -1.771e+00 -1.772e+00 -9.725e-04 4.169e-02 -3.002e-02 7.787e-02
320 1 -1.934e-02 -1.778e+00 1.759e+00 3.020e-02 1.999e-02 3.154e-02
321 1 -2.095e-02 -1.777e+00 -1.758e+00 -3.180e-02 7.037e-03 -1.356e-04
322 1 1.727e+00 -1.799e+00 1.179e-03 3.445e-02 1.634e-01 -1.659e-02
323 1 -1.759e+00 -3.032e-03 -1.759e+00 6.315e-02 -7.856e-03 -7.132e-03
324 1 -1.762e+00 -4.059e-03 1.758e+00 -2.094e-02 5.973e-02 3.239e-02
325 1 -1.766e+00 1.757e+00 -4.242e-04 6.356e-02 9.159e-02 -4.040e-02
326 1 1.906e-02 1.761e+00 1.748e+00 8.136e-02 7.047e-02 -1.587e-02
327 1 1.893e-02 1.760e+00 -1.746e+00 -8.061e-03 -1.337e-02 -3.775e-02
ITEM: TIMESTEP
0
ITEM: NUMBER OF ATOMS
69
ITEM: BOX BOUNDS xy xz yz pp pp pp
                     0.00000000000000e+00 1.06200000000000e+01 0.00000000000000e+00
0.00000000000000e+00	1.06200000000000e+01	0.00000000000000e+00
0.00000000000000e+00	1.06200000000000e+01	0.00000000000000e+00
ITEM: ATOMS id type x y z DisplacementX DisplacementY DisplacementZ
328 1 -1.724e+00 5.281e+00 7.246e-04 -4.116e-02 -1.278e-01 1.668e-01
329 1 3.463e+00 3.524e+00 -5.264e-04 -8.717e-03 -2.753e-02 1.176e-01
330 1 1.745e-02 3.513e+00 -3.499e+00 -3.087e-02 -2.417e-02 -1.631e-02
331 1 2.927e-02 3.532e+00 3.530e+00 2.031e-02 -8.495e-02 2.905e-02
332 1 5.245e+00 1.625e-03 -1.752e+00 5.267e-02 -6.126e-02 2.776e-02
333 1 5.234e+00 9.318e-03 1.769e+00 -6.144e-02 -2.889e-02 1.966e-02
334 1 5.250e+00 -1.764e+00 9.136e-03 1.353e-02 -1.597e-02 6.247e-02
335 1 1.748e+00 -5.303e+00 1.006e-02 1.171e-02 -5.813e-02 1.236e-02
336 1 -5.265e+00 -1.762e+00 9.370e-03 -3.014e-02 -3.190e-02 1.398e-02
337 1 -1.768e+00 -5.301e+00 9.489e-03 4.000e-02 -1.083e-01 1.313e-01
338 1 -5.256e+00 1.761e+00 1.142e-02 -6.474e-02 -5.420e-02 1.089e-01
339 1 -5.263e+00 -1.109e-03 -1.751e+00 2.498e-03 -7.726e-02 1.094e-01
340 1 -5.259e+00 2.176e-03 1.769e+00 1.306e-02 -1.118e-01 9.784e-02
341 1 -1.008e-02 -5.303e+00 -1.751e+00 -1.581e-02 -5.445e-02 6.252e-02
342 1 -1.178e-02 -5.303e+00 1.771e+00 1.370e-02 -3.931e-03 3.824e-02
343 1 1.658e-02 3.513e+00 -2.045e-03 3.229e-02 1.746e-01 -1.674e-01
344 1 3.488e+00 5.456e-04 -3.506e+00 -2.450e-02 -8.114e-02 1.206e-02
345 1 3.486e+00 1.900e-03 3.528e+00 1.006e-02 -1.133e-01 2.399e-03
346 1 -3.498e+00 5.656e-03 -3.509e+00 -2.261e-02 -3.244e-02 -1.722e-02
347 1 -3.495e+00 7.836e-03 3.528e+00 1.494e-02 -1.328e-01 1.393e-01
348 1 -9.797e-03 -3.542e+00 -3.513e+00 3.124e-02 -4.042e-02 3.971e-02
349 1 -9.216e-03 -3.535e+00 3.531e+00 3.351e-03 -7.721e-02 2.816e-02
350 1 5.231e+00 1.775e+00 1.103e-02 4.047e-02 -1.216e-01 9.252e-02
351 1 3.502e+00 -3.536e+00 9.309e-03 -1.204e-02 -8.468e-02 8.484e-02
352 1 -3.518e+00 -3.531e+00 1.003e-02 -1.346e-02 -9.902e-03 7.574e-02
353 1 -1.711e+00 3.517e+00 -1.749e+00 -8.592e-03 -2.953e-02 5.309e-02
354 1 1.721e+00 1.765e+00 -3.467e+00 -2.038e-02 5.756e-02 -1.017e-01
355 1 -3.481e+00 3.525e+00 6.609e-03 3.145e-02 7.720e-03 -8.515e-02
356 1 -1.715e+00 1.772e+00 -3.498e+00 3.058e-02 -6.715e-03 -1.185e-02
357 1 -1.757e+00 -1.766e+00 -3.511e+00 8.991e-03 5.916e-02 -1.948e-02
358 1 -1.754e+00 -1.766e+00 3.529e+00 -4.253e-02 -3.085e-02 4.715e-02
359 1 1.746e+00 -1.777e+00 -3.509e+00 -7.794e-03 6.157e-02 -9.532e-02
360 1 1.746e+00 -1.773e+00 3.530e+00 5.120e-03 -6.626e-02 7.739e-02
361 1 -1.718e+00 3.535e+00 1.765e+00 -2.865e-02 -8.597e-03 -2.435e-02
362 1 3.491e+00 1.767e+00 -1.751e+00 -2.556e-02 7.414e-02 -8.545e-02
363 1 3.453e+00 1.781e+00 1.756e+00 -1.292e-02 5.655e-02 -4.835e-02
364 1 1.748e+00 1.764e+00 3.528e+00 -1.188e-02 -1.624e-02 7.825e-03
365 1 3.499e+00 -1.771e+00 -1.749e+00 -3.193e-03 1.954e-02 4.769e-02
366 1 3.497e+00 -1.770e+00 1.770e+00 -6.458e-03 7.216e-02 -3.554e-02
367 1 1.748e+00 -3.544e+00 -1.751e+00 -1.642e-02 -3.610e-03 8.274e-03
368 1 1.746e+00 -3.539e+00 1.771e+00 -7.629e-03 2.506e-02 -5.272e-02
369 1 -3.507e+00 -1.761e+00 -1.751e+00 4.062e-02 -4.757e-02 3.251e-03
370 1 -3.508e+00 -1.762e+00 1.770e+00 2.694e-02 3.439e-02 -1.349e-01
371 1 -1.768e+00 -3.538e+00 -1.750e+00 -5.724e-03 -5.280e-03 -2.136e-02
372 1 -1.764e+00 -3.535e+00 1.768e+00 -4.766e-02 4.138e-02 -1.336e-02
373 1 -3.502e+00 1.769e+00 -1.750e+00 -1.316e-02 9.549e-02 -8.353e-02
374 1 -3.485e+00 1.770e+00 1.765e+00 -9.798e-04 9.521e-02 -9.530e-02
375 1 1.719e+00 1.765e+00 -3.365e-02 -1.011e-02 1.884e-02 -1.068e-01
376 1 -1.739e+00 8.783e-03 -5.266e+00 -3.376e-02 -2.914e-02 3.429e-03
377 1 -6.954e-03 -1.771e+00 -5.266e+00 1.376e-02 -1.011e-01 6.616e-02
378 1 -1.726e+00 1.776e+00 3.529e+00 -1.280e-02 -5.588e-02 -9.579e-03
379 1 9.145e-04 -1.489e-04 -3.502e+00 -1.728e-02 1.609e-01 -1.405e-01
380 1 5.057e-04 2.368e-03 1.116e-03 -9.513e-04 1.202e+00 -1.240e+00
381 1 -1.737e+00 1.100e-02 -1.752e+00 -6.485e-03 -1.244e-02 8.851e-02
382 1 1.742e+00 -1.276e-02 -5.260e+00 1.524e-02 -5.179e-02 8.693e-02
383 1 2.902e-02 1.778e+00 -5.273e+00 4.222e-02 -4.422e-02 -2.781e-02
384 1 -1.716e+00 1.771e+00 -6.305e-03 -3.147e-03 2.180e-02 -8.752e-02
385 1 1.744e+00 -1.780e+00 6.448e-03 2.758e-02 5.605e-02 -4.414e-02
386 1 -1.756e+00 -1.769e+00 8.201e-03 4.082e-03 8.695e-02 -1.151e-01
387 1 3.913e-03 -2.737e-03 3.530e+00 -1.259e-02 1.219e-01 -8.089e-02
388 1 -1.739e+00 9.342e-03 1.767e+00 3.812e-02 8.316e-02 -4.861e-02
389 1 -8.486e-03 -1.786e+00 -1.751e+00 -3.214e-02 1.028e-01 -6.855e-02
390 1 -7.119e-03 -1.773e+00 1.766e+00 3.803e-02 4.145e-02 -4.694e-02
391 1 1.733e+00 -1.405e-02 -1.752e+00 -1.809e-02 -5.495e-02 6.024e-02
392 1 3.083e-02 1.777e+00 1.772e+00 -3.863e-02 1.018e-01 -4.208e-02
393 1 3.487e+00 6.016e-04 4.798e-03 -2.722e-02 1.515e-01 -2.092e-01
394 1 -3.495e+00 6.634e-03 6.144e-03 7.626e-02 2.157e-01 -1.544e-01
395 1 -9.683e-03 -3.540e+00 1.195e-02 6.545e-03 1.802e-01 -1.561e-01
396 1 1.744e+00 -1.207e-02 1.760e+00 1.640e-02 4.023e-02 -6.661e-02
ITEM: TIMESTEP
0
ITEM: NUMBER OF ATOMS
66
ITEM: BOX BOUNDS xy xz yz pp pp pp
                     0.00000000000000e+00 1.06200000000000e+01 0.00000000000000e+00
0.00000000000000e+00	1.06200000000000e+01	0.00000000000000e+00
0.00000000000000e+00	1.06200000000000e+01	0.00000000000000e+00
ITEM: ATOMS id type x y z DisplacementX DisplacementY DisplacementZ
397 1 5.179e+00 1.754e+00 2.802e-03 -1.718e-02 1.477e-02 6.607e-03
398 1 -1.776e+00 5.235e+00 1.353e-02 -1.629e-01 2.809e-04 1.775e-01