ITEM: TIMESTEP
0
ITEM: NUMBER OF ATOMS
49
ITEM: BOX BOUNDS xy xz yz pp pp pp
                     0.00000000000000e+00 1.06200000000000e+01 0.00000000000000e+00
0.00000000000000e+00	1.06200000000000e+01	0.00000000000000e+00
0.00000000000000e+00	1.06200000000000e+01	0.00000000000000e+00
ITEM: ATOMS id type x y z DisplacementX DisplacementY DisplacementZ
1 1 -3.519e+00 -3.504e+00 -4.900e-02 7.126e-03 3.105e-02 7.939e-03
2 1 -3.513e+00 3.442e+00 -4.455e-02 8.608e-04 4.822e-03 1.540e-02
3 1 -1.752e+00 1.700e+00 3.458e+00 -4.808e-03 -4.905e-02 1.110e-03
4 1 -1.555e-03 5.215e+00 1.710e+00 -3.264e-03 -1.963e-03 2.242e-02
5 1 -5.245e-03 5.196e+00 -1.810e+00 -3.553e-03 -1.818e-02 -1.446e-02
6 1 -2.998e-03 -5.266e+00 -1.809e+00 1.220e-03 -1.650e-04 -1.590e-02
7 1 -2.280e-03 -5.262e+00 1.711e+00 -1.567e-03 1.768e-02 7.973e-03
8 1 1.760e+00 5.212e+00 -4.875e-02 1.860e-04 -4.855e-03 2.199e-03
9 1 1.760e+00 -5.274e+00 -4.997e-02 7.537e-04 2.644e-03 -5.954e-03
10 1 5.309e+00 -2.892e-02 1.711e+00 4.124e-03 1.349e-02 1.344e-02
11 1 5.306e+00 -2.987e-02 -1.808e+00 7.596e-03 -1.942e-02 -1.558e-02
12 1 5.307e+00 1.729e+00 -5.142e-02 2.078e-03 6.896e-03 7.834e-03
13 1 5.304e+00 -1.785e+00 -4.957e-02 8.369e-03 1.770e-03 2.094e-03
14 1 -1.751e+00 1.699e+00 -3.752e-02 3.189e-03 -4.452e-02 -2.201e-02
15 1 -1.758e+00 -1.739e+00 3.465e+00 2.912e-03 -9.131e-03 -1.161e-02
16 1 -1.757e+00 5.195e+00 -4.815e-02 -6.537e-03 -9.623e-03 3.454e-03
17 1 -1.765e+00 -5.260e+00 -4.961e-02 1.446e-03 9.472e-04 -1.071e-02
18 1 3.532e+00 3.473e+00 -4.966e-02 -3.847e-03 -1.974e-02 -7.757e-03
19 1 3.528e+00 -3.528e+00 -5.053e-02 3.003e-04 -1.215e-02 -1.400e-02
20 1 -1.757e+00 -1.738e+00 -4.372e-02 1.482e-02 2.783e-03 -1.210e-02
21 1 -1.750e+00 3.427e+00 1.712e+00 -1.253e-02 -2.315e-02 -6.990e-03
22 1 1.756e+00 3.453e+00 1.711e+00 8.335e-04 -2.736e-02 -1.682e-02
23 1 -1.774e+00 -3.497e+00 1.711e+00 6.032e-03 8.942e-03 -1.495e-02
24 1 -1.770e+00 -3.488e+00 -1.811e+00 5.812e-03 8.551e-03 -2.199e-03
25 1 -1.768e+00 3.431e+00 -1.810e+00 -1.654e-03 -1.462e-02 3.399e-03
26 1 1.755e+00 3.454e+00 -1.808e+00 -3.784e-03 2.521e-02 2.883e-02
27 1 1.760e+00 -3.516e+00 1.710e+00 -5.534e-03 5.444e-03 -1.381e-02
28 1 1.753e+00 -3.511e+00 -1.810e+00 -3.758e-03 3.206e-02 1.981e-02
29 1 3.553e+00 1.727e+00 1.712e+00 -8.021e-03 -1.529e-02 -7.137e-03
30 1 3.537e+00 1.724e+00 -1.809e+00 8.565e-03 -2.048e-02 -1.550e-02
31 1 3.535e+00 -1.778e+00 1.712e+00 1.056e-02 -1.559e-02 -1.241e-02
32 1 3.536e+00 -1.777e+00 -1.809e+00 8.439e-03 -1.069e-02 -4.431e-03
33 1 1.767e+00 1.718e+00 3.463e+00 8.922e-04 -5.109e-03 1.245e-02
34 1 9.036e-05 -5.777e-04 5.742e-04 -1.131e-02 1.643e+00 1.672e+00
35 1 4.964e-04 -4.411e-04 3.423e+00 1.279e-02 -1.833e-02 5.604e-02
36 1 3.545e+00 -2.631e-02 3.472e+00 8.922e-03 -4.480e-02 -3.007e-02
37 1 -5.102e-03 3.430e+00 3.456e+00 -5.601e-03 3.127e-04 2.864e-02
38 1 1.764e+00 -1.764e+00 3.472e+00 6.048e-03 4.681e-03 2.925e-03
39 1 1.769e+00 1.718e+00 -4.118e-02 -3.539e-03 -3.003e-02 -1.277e-02
40 1 -1.006e-02 -3.503e+00 3.477e+00 -2.784e-04 4.132e-02 -8.252e-04
41 1 1.783e+00 -1.316e-02 1.712e+00 9.892e-03 4.545e-03 8.752e-03
42 1 1.762e+00 -1.764e+00 -5.116e-02 1.270e-03 9.683e-03 -3.421e-04
43 1 -2.075e-03 -1.771e+00 1.710e+00 -8.593e-03 5.299e-02 -3.355e-02
44 1 -1.737e-02 -1.714e+00 -1.809e+00 7.199e-03 9.179e-03 3.110e-02
45 1 -1.391e-02 1.680e+00 -1.810e+00 1.633e-03 -6.076e-03 4.625e-02
46 1 -5.095e-03 3.431e+00 -3.558e-02 -3.564e-03 -1.025e-02 -2.640e-02
47 1 3.544e+00 -2.565e-02 -5.004e-02 1.940e-02 1.243e-02 1.358e-02
48 1 1.774e+00 -2.076e-02 -1.810e+00 2.117e-02 -3.129e-02 -1.272e-02
49 1 -1.037e-02 -3.503e+00 -5.850e-02 2.575e-03 -9.021e-03 -3.654e-03
ITEM: TIMESTEP
0
ITEM: NUMBER OF ATOMS
49
ITEM: BOX BOUNDS xy xz yz pp pp pp
                     0.00000000000000e+00 1.06200000000000e+01 0.00000000000000e+00
0.00000000000000e+00	1.06200000000000e+01	0.00000000000000e+00
0.00000000000000e+00	1.06200000000000e+01	0.00000000000000e+00
ITEM: ATOMS id type x y z DisplacementX DisplacementY DisplacementZ
50 1 -3.521e+00 -3.503e+00 4.892e-02 6.987e-03 3.416e-02 -1.359e-02
51 1 -3.513e+00 3.442e+00 4.578e-02 -1.853e-03 2.525e-03 -3.702e-03
52 1 -1.750e+00 1.698e+00 -3.459e+00 -4.518e-03 -4.932e-02 5.963e-03
53 1 -2.269e-03 5.216e+00 -1.714e+00 -5.398e-03 -7.712e-03 -1.161e-02
54 1 -3.307e-03 5.194e+00 1.809e+00 1.534e-04 -1.732e-02 1.786e-02
55 1 -4.035e-03 -5.267e+00 1.810e+00 -9.197e-04 3.262e-03 7.160e-03
56 1 -3.829e-03 -5.264e+00 -1.710e+00 -5.742e-04 1.839e-02 -1.225e-02
57 1 1.758e+00 5.211e+00 4.987e-02 -2.367e-03 -6.356e-03 1.453e-03
58 1 1.759e+00 -5.275e+00 5.150e-02 -6.686e-04 1.956e-03 -1.820e-03
59 1 5.307e+00 -3.102e-02 -1.711e+00 5.781e-03 1.613e-02 -1.661e-02
60 1 5.306e+00 -2.679e-02 1.809e+00 9.354e-03 -2.026e-02 1.559e-02
61 1 5.307e+00 1.727e+00 5.126e-02 4.031e-03 7.554e-03 -7.793e-03
62 1 5.302e+00 -1.785e+00 4.648e-02 1.157e-02 2.001e-03 -5.239e-03
63 1 -1.751e+00 1.697e+00 3.673e-02 3.888e-03 -4.430e-02 2.762e-02
64 1 -1.760e+00 -1.739e+00 -3.466e+00 2.813e-03 -9.157e-03 8.421e-03
65 1 -1.756e+00 5.196e+00 4.924e-02 -6.513e-03 -8.684e-03 5.667e-03
66 1 -1.763e+00 -5.261e+00 5.149e-02 1.692e-03 3.876e-03 6.285e-04
67 1 3.532e+00 3.475e+00 4.844e-02 -3.884e-03 -2.003e-02 7.122e-03
68 1 3.527e+00 -3.530e+00 5.083e-02 4.678e-04 -1.292e-02 7.900e-03
69 1 -1.759e+00 -1.737e+00 4.281e-02 1.422e-02 3.275e-03 8.168e-03
70 1 -1.753e+00 3.429e+00 -1.711e+00 -1.251e-02 -2.165e-02 1.583e-02
71 1 1.754e+00 3.451e+00 -1.711e+00 4.698e-04 -2.480e-02 1.700e-02
72 1 -1.773e+00 -3.499e+00 -1.713e+00 8.403e-03 1.308e-02 7.155e-03
73 1 -1.769e+00 -3.488e+00 1.810e+00 3.644e-03 9.065e-03 -3.588e-03
74 1 -1.768e+00 3.428e+00 1.808e+00 -3.922e-04 -1.807e-02 6.990e-03
75 1 1.755e+00 3.453e+00 1.810e+00 -2.988e-03 2.387e-02 -2.422e-02
76 1 1.762e+00 -3.521e+00 -1.712e+00 -4.129e-03 4.521e-03 7.618e-03
77 1 1.752e+00 -3.511e+00 1.811e+00 4.222e-04 3.204e-02 -2.274e-02
78 1 3.554e+00 1.728e+00 -1.710e+00 -7.794e-03 -1.775e-02 8.536e-03
79 1 3.537e+00 1.725e+00 1.807e+00 7.196e-03 -2.172e-02 1.316e-02
80 1 3.535e+00 -1.778e+00 -1.713e+00 1.067e-02 -1.690e-02 8.906e-03
81 1 3.533e+00 -1.778e+00 1.809e+00 8.459e-03 -9.963e-03 3.160e-03
82 1 1.766e+00 1.718e+00 -3.461e+00 -6.959e-04 -4.907e-03 -1.232e-02
83 1 5.000e-05 -2.522e-04 3.198e-04 -9.708e-03 1.643e+00 -1.677e+00
84 1 -3.776e-04 -6.452e-04 -3.423e+00 1.159e-02 -1.607e-02 -5.909e-02
85 1 3.542e+00 -2.587e-02 -3.471e+00 7.989e-03 -4.464e-02 3.002e-02
86 1 -6.406e-03 3.431e+00 -3.457e+00 -7.048e-03 1.189e-03 -2.337e-02
87 1 1.762e+00 -1.764e+00 -3.472e+00 6.405e-03 5.036e-03 -6.342e-03
88 1 1.767e+00 1.717e+00 4.014e-02 -4.373e-03 -3.044e-02 1.294e-02
89 1 -9.104e-03 -3.503e+00 -3.478e+00 1.033e-03 4.227e-02 -7.951e-03
90 1 1.783e+00 -1.542e-02 -1.710e+00 8.651e-03 6.494e-04 -8.173e-03
91 1 1.762e+00 -1.764e+00 4.869e-02 5.052e-04 7.371e-03 -3.457e-03
92 1 -2.050e-03 -1.770e+00 -1.710e+00 -1.009e-02 5.504e-02 2.662e-02
93 1 -1.606e-02 -1.716e+00 1.808e+00 5.193e-03 7.885e-03 -3.359e-02
94 1 -1.673e-02 1.681e+00 1.809e+00 2.605e-03 -7.980e-03 -3.916e-02
95 1 -4.426e-03 3.430e+00 3.414e-02 -4.117e-03 -9.124e-03 3.278e-02
96 1 3.544e+00 -2.683e-02 4.853e-02 1.981e-02 1.104e-02 -1.488e-02
97 1 1.773e+00 -1.895e-02 1.810e+00 2.124e-02 -3.023e-02 1.032e-02
98 1 -1.093e-02 -3.503e+00 5.756e-02 2.232e-03 -1.094e-02 -5.083e-03
ITEM: TIMESTEP
0
ITEM: NUMBER OF ATOMS
53
ITEM: BOX BOUNDS xy xz yz pp pp pp
                     0.00000000000000e+00 1.06200000000000e+01 0.00000000000000e+00
0.00000000000000e+00	1.06200000000000e+01	0.00000000000000e+00
0.00000000000000e+00	1.06200000000000e+01	0.00000000000000e+00
ITEM: ATOMS id type x y z DisplacementX DisplacementY DisplacementZ
99 1 -1.753e+00 -5.169e+00 -1.022e-02 -7.038e-03 -1.722e-02 -7.654e-03
100 1 -5.232e+00 1.778e+00 -1.204e-02 -3.032e-03 1.243e-02 -3.749e-03
101 1 -1.733e+00 5.312e+00 -1.626e-02 1.576e-03 -3.447e-03 6.154e-03
102 1 4.302e-03 -5.202e+00 1.747e+00 -6.046e-03 1.944e-02 -2.946e-03
103 1 -1.141e-02 -5.144e+00 -1.772e+00 7.109e-03 -3.728e-02 -2.449e-03
104 1 5.308e+00 5.270e-02 1.748e+00 -5.091e-04 2.530e-03 -5.372e-04
105 1 5.307e+00 5.196e-02 -1.773e+00 1.745e-03 7.667e-03 -8.135e-03
106 1 2.032e-02 5.311e+00 -1.774e+00 1.951e-03 -9.286e-04 2.527e-03
107 1 2.273e-02 5.311e+00 1.746e+00 2.331e-03 1.178e-02 -8.169e-03
108 1 1.769e+00 -5.195e+00 -1.464e-02 3.168e-03 -8.612e-03 -4.982e-05
109 1 5.314e+00 -1.705e+00 -1.703e-02 1.244e-03 -7.073e-03 4.184e-03
110 1 5.303e+00 1.805e+00 -1.294e-02 3.931e-03 7.190e-03 -4.754e-03
111 1 1.780e+00 5.311e+00 -1.537e-02 4.263e-04 6.795e-03 -9.423e-04
112 1 -3.486e+00 3.544e+00 -1.418e-02 6.889e-04 5.827e-03 -2.283e-03
113 1 -1.743e+00 -1.731e+00 -6.032e-04 2.244e-02 4.829e-02 -2.021e-02
114 1 -1.745e+00 -1.731e+00 3.494e+00 -1.797e-03 7.429e-03 1.298e-02
115 1 -3.507e+00 1.165e-02 3.502e+00 8.218e-03 1.020e-02 8.562e-03
116 1 3.548e+00 -3.457e+00 -1.476e-02 -5.672e-03 2.817e-03 1.564e-03
117 1 3.532e+00 3.553e+00 -1.415e-02 -1.731e-04 4.624e-03 -2.692e-03
118 1 -3.508e+00 1.046e-02 -1.083e-02 -1.968e-02 -1.887e-03 1.307e-03
119 1 8.009e-03 -3.429e+00 3.456e+00 8.383e-05 -1.458e-02 4.850e-02
120 1 -3.503e+00 1.765e+00 1.748e+00 -2.246e-03 -7.622e-03 1.052e-02
121 1 -3.508e+00 1.765e+00 -1.773e+00 1.338e-03 1.249e-02 -1.470e-03
122 1 -1.742e+00 3.543e+00 1.746e+00 3.316e-03 -1.921e-03 -2.090e-03
123 1 -1.743e+00 3.537e+00 -1.774e+00 1.417e-03 6.315e-03 -5.347e-03
124 1 1.788e+00 -3.447e+00 1.746e+00 -4.334e-03 -6.055e-03 7.413e-04
125 1 3.560e+00 -1.703e+00 1.745e+00 -1.474e-02 -1.955e-03 -2.773e-04
126 1 3.544e+00 -1.704e+00 -1.774e+00 5.411e-04 2.025e-02 -1.159e-02
127 1 3.531e+00 1.794e+00 1.746e+00 4.655e-03 1.244e-02 -5.111e-03
128 1 3.531e+00 1.795e+00 -1.774e+00 4.865e-03 -4.102e-03 7.847e-03
129 1 1.772e+00 3.548e+00 1.746e+00 1.061e-03 -1.253e-02 6.909e-03
130 1 1.772e+00 3.545e+00 -1.771e+00 2.561e-03 1.539e-02 -1.167e-02
131 1 1.773e+00 -1.713e+00 3.497e+00 1.938e-03 8.788e-03 8.735e-03
132 1 3.539e+00 4.342e-02 3.507e+00 -2.851e-03 1.433e-02 -1.029e-02
133 1 1.158e-02 3.543e+00 3.509e+00 -4.380e-05 4.210e-03 -1.475e-02
134 1 1.780e+00 -3.451e+00 -1.773e+00 6.069e-03 4.629e-04 -2.151e-03
135 1 4.273e-03 -3.429e+00 3.517e-02 -5.502e-03 -2.467e-02 -5.811e-02
136 1 1.759e+00 2.106e-02 1.747e+00 1.681e-03 2.285e-02 -2.180e-02
137 1 1.764e+00 1.781e+00 3.507e+00 2.382e-03 -3.324e-03 8.073e-03
138 1 1.772e+00 -1.714e+00 -5.414e-03 -1.279e-02 2.412e-02 -1.574e-02
139 1 -1.747e+00 -2.555e-03 1.747e+00 -2.662e-03 3.103e-02 -1.558e-02
140 1 1.761e+00 2.314e-02 -1.773e+00 8.579e-04 6.822e-03 2.002e-02
141 1 4.895e-03 1.787e+00 1.745e+00 4.175e-03 -1.948e-02 -1.302e-02
142 1 3.223e-03 1.765e+00 -1.775e+00 4.517e-03 1.333e-02 9.723e-03
143 1 1.764e+00 1.783e+00 -1.387e-02 1.253e-03 2.569e-03 -2.319e-03
144 1 3.886e-04 -1.769e-03 2.026e-04 6.172e-03 -1.704e+00 1.725e+00
145 1 -1.499e-04 7.086e-05 3.493e+00 2.601e-03 1.939e-02 2.047e-02
146 1 -1.751e+00 1.764e+00 3.506e+00 2.944e-03 1.161e-02 2.424e-04
147 1 -7.957e-03 -1.750e+00 -1.775e+00 1.303e-02 2.132e-02 2.483e-02
148 1 -1.760e+00 1.227e-03 -1.773e+00 8.144e-03 7.965e-03 2.063e-02
149 1 3.537e+00 4.289e-02 -1.581e-02 9.524e-03 4.028e-03 -6.359e-04
150 1 1.248e-02 3.542e+00 -1.534e-02 2.794e-03 6.998e-03 6.371e-03
151 1 -1.752e+00 1.764e+00 -1.249e-02 6.754e-03 -1.253e-02 6.798e-03
