ITEM: TIMESTEP
0
ITEM: NUMBER OF ATOMS
74
ITEM: BOX BOUNDS xy xz yz pp pp pp
                     0.00000000000000e+00 1.06200000000000e+01 0.00000000000000e+00
0.00000000000000e+00	1.06200000000000e+01	0.00000000000000e+00
0.00000000000000e+00	1.06200000000000e+01	0.00000000000000e+00
ITEM: ATOMS id type x y z DisplacementX DisplacementY DisplacementZ
1 1 3.813e-03 5.268e+00 1.745e+00 2.995e-02 -5.549e-02 -3.191e-02
2 1 -5.436e-04 3.489e+00 3.491e+00 -2.250e-02 -9.223e-02 -8.324e-02
3 1 -5.284e+00 -9.791e-03 1.746e+00 1.086e-01 -6.143e-03 1.412e-02
4 1 5.292e+00 -2.394e-02 1.748e+00 6.788e-02 -2.517e-02 -1.040e-02
5 1 -5.293e+00 1.757e+00 -1.550e-02 3.565e-02 -1.471e-02 4.776e-02
6 1 5.291e+00 1.738e+00 -1.452e-02 4.462e-03 -1.368e-02 3.033e-02
7 1 2.504e-03 5.254e+00 -1.767e+00 -1.947e-02 -1.036e-02 1.890e-02
8 1 5.748e-03 -5.301e+00 1.745e+00 4.820e-02 1.397e-03 -4.028e-05
9 1 6.378e-03 -5.300e+00 -1.775e+00 1.355e-02 3.439e-02 6.271e-02
10 1 -1.752e+00 -5.301e+00 -1.557e-02 4.872e-02 1.310e-02 -2.534e-02
11 1 1.767e+00 -5.301e+00 -1.460e-02 5.109e-04 -8.492e-03 -4.942e-03
12 1 5.289e+00 -2.099e-02 -1.773e+00 4.202e-02 -4.326e-02 -9.393e-03
13 1 -5.281e+00 -6.024e-03 -1.775e+00 -3.020e-02 2.439e-02 3.455e-02
14 1 -5.276e+00 -1.773e+00 -1.248e-02 1.124e-02 1.650e-03 6.817e-03
15 1 5.289e+00 -1.780e+00 -1.392e-02 6.056e-02 -5.622e-02 -3.718e-02
16 1 -1.763e+00 5.263e+00 -1.087e-02 3.023e-02 -6.057e-02 2.306e-02
17 1 1.763e+00 5.253e+00 -8.186e-03 -2.333e-02 -2.825e-02 2.482e-02
18 1 -1.125e-04 3.505e+00 -3.536e+00 -5.229e-02 3.659e-03 3.299e-02
19 1 4.582e-03 -3.539e+00 3.506e+00 -2.316e-02 1.636e-02 -3.304e-02
20 1 6.043e-03 -3.533e+00 -3.535e+00 -1.612e-02 -7.870e-04 8.730e-02
21 1 3.525e+00 -3.538e+00 -1.381e-02 3.866e-02 -5.215e-03 -8.435e-03
22 1 -3.514e+00 -3.533e+00 -1.184e-02 4.297e-02 2.750e-02 -2.623e-02
23 1 -3.521e+00 -5.717e-03 -3.534e+00 -4.154e-02 3.576e-02 9.239e-02
24 1 3.525e+00 -2.072e-02 -3.535e+00 2.764e-02 -6.771e-03 3.201e-02
25 1 3.525e+00 3.495e+00 -1.149e-02 -4.668e-02 2.977e-02 4.340e-02
26 1 -3.530e+00 3.514e+00 -1.138e-02 6.418e-02 -1.660e-02 5.898e-02
27 1 -3.521e+00 -5.354e-03 3.503e+00 9.604e-02 3.533e-02 5.480e-02
28 1 3.524e+00 -1.753e-02 3.503e+00 2.247e-02 5.697e-02 -1.983e-02
29 1 1.752e+00 1.741e+00 3.495e+00 -5.249e-03 8.032e-03 -4.233e-02
30 1 -1.755e+00 1.750e+00 3.494e+00 6.803e-02 -8.101e-04 -1.801e-02
31 1 -1.757e+00 3.497e+00 1.747e+00 5.419e-02 -6.626e-02 -2.593e-02
32 1 1.752e+00 3.486e+00 1.747e+00 -5.498e-03 -5.468e-02 -1.662e-02
33 1 1.767e+00 1.742e+00 -3.532e+00 -2.728e-02 5.505e-02 1.944e-02
34 1 -1.767e+00 1.751e+00 -3.532e+00 -2.239e-03 4.910e-02 7.386e-02
35 1 1.762e+00 -1.775e+00 3.504e+00 -1.208e-02 7.692e-02 -2.288e-02
36 1 -1.756e+00 -1.772e+00 3.503e+00 4.306e-02 6.007e-02 2.611e-02
37 1 1.764e+00 -1.775e+00 -3.533e+00 3.695e-02 1.719e-02 6.779e-02
38 1 -1.758e+00 -1.771e+00 -3.536e+00 -3.827e-03 5.363e-02 1.133e-01
39 1 -1.762e+00 3.506e+00 -1.769e+00 -2.545e-03 -6.687e-03 5.194e-02
40 1 1.761e+00 3.495e+00 -1.770e+00 -5.690e-02 1.361e-02 4.304e-02
41 1 -1.757e+00 -3.538e+00 1.747e+00 1.519e-02 6.607e-03 1.561e-03
42 1 1.766e+00 -3.541e+00 1.745e+00 -8.847e-03 4.854e-02 -4.029e-03
43 1 -1.756e+00 -3.534e+00 -1.772e+00 -1.690e-02 3.911e-02 4.986e-02
44 1 1.764e+00 -3.536e+00 -1.774e+00 5.818e-03 4.399e-02 6.040e-02
45 1 -3.516e+00 -1.770e+00 -1.772e+00 -3.610e-02 2.625e-02 4.154e-02
46 1 3.523e+00 -1.777e+00 -1.774e+00 5.371e-02 -1.421e-02 2.504e-02
47 1 3.524e+00 1.739e+00 -1.769e+00 -2.742e-02 2.416e-02 4.703e-02
48 1 -3.525e+00 1.754e+00 -1.769e+00 -1.593e-02 -1.731e-03 1.171e-01
49 1 -3.514e+00 -1.768e+00 1.747e+00 8.055e-02 2.459e-02 1.321e-02
50 1 3.523e+00 -1.776e+00 1.748e+00 1.659e-02 3.276e-02 3.296e-04
51 1 -3.538e+00 1.756e+00 1.747e+00 1.071e-01 -1.236e-02 5.850e-02
52 1 3.537e+00 1.737e+00 1.747e+00 -1.372e-02 1.580e-02 2.588e-02
53 1 -1.425e-03 1.745e+00 5.274e+00 -8.795e-03 -9.110e-03 -8.623e-02
54 1 1.831e-03 -1.770e+00 5.261e+00 -3.332e-02 1.018e-01 2.369e-03
55 1 1.762e+00 -1.615e-02 5.262e+00 2.139e-02 3.182e-02 -7.360e-02
56 1 -1.758e+00 -6.726e-03 5.262e+00 1.739e-02 5.343e-02 -1.173e-02
57 1 -7.802e-04 -1.904e-04 1.340e-03 -2.956e-03 1.691e-01 1.143e-01
58 1 1.659e-04 2.986e-04 3.493e+00 -3.080e-02 1.185e-01 -2.446e-02
59 1 8.062e-05 3.490e+00 5.306e-04 -2.142e-03 -1.773e-02 6.015e-02
60 1 1.752e+00 -6.097e-03 1.745e+00 2.112e-02 9.867e-02 2.859e-02
61 1 -1.749e+00 1.954e-03 1.746e+00 6.143e-02 4.412e-02 5.242e-02
62 1 -1.756e+00 1.752e+00 -3.372e-03 6.858e-02 2.381e-02 1.070e-01
63 1 1.753e+00 1.740e+00 -1.762e-03 -4.723e-02 7.394e-02 6.722e-02
64 1 -3.520e+00 -6.428e-03 -1.070e-02 4.879e-02 3.212e-02 7.530e-02
65 1 3.524e+00 -1.724e-02 -1.040e-02 1.060e-02 4.591e-02 4.522e-02
66 1 -9.028e-05 -1.515e-02 -3.534e+00 3.238e-02 7.685e-02 8.983e-02
67 1 4.129e-03 -3.539e+00 -1.536e-02 3.700e-02 4.789e-02 3.360e-02
68 1 2.102e-03 -1.785e+00 1.746e+00 -5.937e-03 1.114e-01 3.984e-02
69 1 1.717e-04 1.745e+00 -1.782e+00 3.993e-03 6.472e-02 8.765e-02
70 1 1.662e-03 -1.769e+00 -1.767e+00 3.488e-02 7.370e-02 1.235e-01
71 1 1.759e+00 -1.453e-02 -1.770e+00 2.439e-02 8.847e-02 7.227e-02
72 1 -1.760e+00 -7.505e-03 -1.770e+00 -3.059e-03 8.360e-02 1.142e-01
73 1 -1.755e+00 -1.770e+00 -8.281e-03 3.496e-02 8.146e-02 5.089e-02
74 1 1.761e+00 -1.775e+00 -1.031e-02 5.859e-04 8.440e-02 4.062e-02
ITEM: TIMESTEP
0
ITEM: NUMBER OF ATOMS
74
ITEM: BOX BOUNDS xy xz yz pp pp pp
                     0.00000000000000e+00 1.06200000000000e+01 0.00000000000000e+00
0.00000000000000e+00	1.06200000000000e+01	0.00000000000000e+00
0.00000000000000e+00	1.06200000000000e+01	0.00000000000000e+00
ITEM: ATOMS id type x y z DisplacementX DisplacementY DisplacementZ
75 1 5.291e+00 -1.305e-02 1.749e+00 1.903e-03 -1.914e-02 -2.595e-02
76 1 3.505e+00 -9.805e-03 3.496e+00 3.046e-02 -5.177e-02 3.662e-03
77 1 -5.625e-04 -5.292e+00 1.749e+00 1.550e-02 1.636e-02 -2.939e-02
78 1 -4.922e-03 5.270e+00 1.748e+00 -1.189e-02 -6.438e-03 -1.035e-03
79 1 1.758e+00 -5.291e+00 -1.200e-02 -4.692e-02 1.947e-02 -1.262e-02
80 1 1.760e+00 5.267e+00 -1.300e-02 -2.419e-02 1.478e-02 2.806e-02
81 1 5.278e+00 -1.211e-02 -1.768e+00 -3.666e-02 2.190e-02 -6.095e-02
82 1 -5.292e+00 8.009e-03 1.748e+00 -7.021e-03 -9.621e-03 -6.357e-02
83 1 -5.293e+00 6.134e-03 -1.774e+00 -3.002e-02 1.672e-02 -3.972e-02
84 1 -5.284e+00 -1.762e+00 -1.322e-02 -9.211e-03 -5.115e-03 -2.734e-02
85 1 -5.302e+00 1.775e+00 -1.151e-02 -3.568e-02 -3.198e-03 -9.009e-02
86 1 -4.523e-03 5.268e+00 -1.773e+00 7.352e-03 4.876e-02 1.613e-02
87 1 2.319e-03 -5.284e+00 -1.771e+00 7.482e-03 8.165e-03 1.781e-02
88 1 -1.758e+00 -5.284e+00 -1.231e-02 3.531e-02 -2.135e-02 -1.010e-02
89 1 -1.770e+00 5.276e+00 -1.149e-02 1.927e-03 3.670e-02 -2.086e-03
90 1 5.279e+00 -1.767e+00 -8.810e-03 -3.423e-02 5.465e-02 -2.837e-02
91 1 5.279e+00 1.742e+00 -1.138e-02 -2.408e-02 -5.827e-03 -6.084e-03
92 1 3.519e+00 -1.007e-02 -3.531e+00 2.924e-03 -1.574e-03 4.132e-02
93 1 -3.536e+00 7.423e-03 3.509e+00 6.373e-02 -1.880e-02 -6.355e-02
94 1 -3.531e+00 6.777e-03 -3.530e+00 2.688e-02 -2.230e-02 1.960e-02
95 1 -3.543e+00 3.530e+00 -1.185e-02 -7.656e-03 6.531e-03 -2.881e-02
96 1 -3.520e+00 -3.522e+00 -1.093e-02 6.039e-02 5.010e-02 2.860e-02
97 1 -3.711e-03 -3.521e+00 -3.533e+00 3.838e-02 2.898e-02 1.024e-01
98 1 -6.337e-03 3.510e+00 -3.532e+00 6.272e-02 -9.117e-03 1.802e-02
99 1 3.516e+00 3.502e+00 -8.938e-03 -7.521e-03 -7.865e-02 2.439e-02
100 1 3.515e+00 -3.522e+00 -8.763e-03 -6.247e-02 2.879e-02 3.162e-03
101 1 -1.710e-03 -3.518e+00 3.505e+00 5.555e-02 3.889e-02 -2.521e-02
102 1 -7.351e-03 3.509e+00 3.505e+00 7.068e-03 -3.848e-02 2.183e-02
103 1 1.755e+00 1.737e+00 3.494e+00 -3.126e-03 -8.445e-02 4.272e-02
104 1 1.754e+00 -1.750e+00 3.493e+00 5.851e-02 5.365e-02 6.959e-03
105 1 3.507e+00 -1.759e+00 1.748e+00 -1.726e-02 5.698e-02 -3.803e-02
106 1 3.508e+00 1.737e+00 1.749e+00 -5.103e-03 -5.520e-02 2.088e-02
107 1 1.754e+00 1.754e+00 -3.533e+00 4.164e-02 -2.022e-02 1.482e-02
108 1 1.754e+00 -1.767e+00 -3.532e+00 2.064e-02 2.823e-02 1.074e-01
109 1 -1.775e+00 1.762e+00 3.507e+00 2.587e-02 1.166e-02 1.703e-03
110 1 -1.768e+00 -1.756e+00 3.506e+00 7.381e-02 2.179e-02 1.983e-03
111 1 -1.774e+00 1.763e+00 -3.531e+00 8.624e-02 -3.554e-02 -1.173e-02
112 1 -1.766e+00 -1.758e+00 -3.532e+00 8.038e-02 4.892e-02 7.627e-02
113 1 3.512e+00 -1.766e+00 -1.767e+00 -5.660e-02 1.941e-02 3.231e-02
114 1 3.516e+00 1.746e+00 -1.768e+00 -2.339e-02 -6.701e-03 1.619e-02
115 1 -3.530e+00 -1.759e+00 1.749e+00 5.608e-02 -1.638e-02 -1.671e-02
116 1 -3.541e+00 1.773e+00 1.747e+00 3.704e-02 -1.235e-02 -4.929e-02
117 1 -3.525e+00 -1.758e+00 -1.771e+00 3.605e-02 4.661e-02 4.210e-02
118 1 -3.539e+00 1.770e+00 -1.771e+00 1.461e-02 -2.214e-02 -2.422e-02
119 1 -1.765e+00 -3.522e+00 -1.771e+00 6.315e-02 7.046e-02 7.287e-02
120 1 -1.775e+00 3.521e+00 -1.770e+00 2.830e-02 -5.161e-03 -9.931e-03
121 1 1.754e+00 3.506e+00 -1.768e+00 2.489e-04 -2.087e-02 2.677e-02
122 1 1.754e+00 -3.520e+00 -1.768e+00 -2.666e-02 1.948e-02 1.106e-01
123 1 -1.759e+00 -3.518e+00 1.747e+00 9.628e-02 5.031e-03 1.483e-02
124 1 -1.774e+00 3.519e+00 1.750e+00 4.084e-02 -1.293e-02 1.473e-02
125 1 1.757e+00 -3.534e+00 1.749e+00 1.893e-02 4.531e-02 -1.277e-02
126 1 1.756e+00 3.519e+00 1.747e+00 1.169e-03 -9.047e-02 2.435e-02
127 1 1.754e+00 -3.856e-03 5.275e+00 -3.083e-02 4.875e-03 2.359e-02
128 1 -1.768e+00 4.562e-03 5.263e+00 -3.040e-02 4.665e-02 3.342e-03
129 1 -8.235e-03 1.756e+00 5.265e+00 -4.493e-02 3.979e-02 7.728e-03
130 1 -7.636e-03 -1.758e+00 5.264e+00 1.512e-03 5.281e-03 -3.381e-02
131 1 -1.726e-03 -2.446e-03 1.559e-03 1.154e-01 1.972e-02 1.617e-01
132 1 9.221e-06 -1.996e-04 3.496e+00 4.038e-02 1.898e-02 2.742e-02
133 1 3.507e+00 -9.335e-03 -1.647e-03 -1.737e-02 -2.242e-02 1.889e-02
134 1 -1.336e-03 1.748e+00 1.750e+00 6.526e-02 -5.962e-02 3.658e-02
135 1 3.468e-03 -1.748e+00 1.747e+00 9.448e-02 9.019e-02 2.870e-02
136 1 1.754e+00 -1.752e+00 2.328e-03 -4.970e-03 7.676e-02 1.046e-01
137 1 1.755e+00 1.737e+00 3.239e-03 -1.133e-02 -9.867e-02 8.129e-02
138 1 -9.057e-04 -3.520e+00 -8.840e-03 5.934e-02 6.456e-02 6.047e-02
139 1 -6.443e-03 3.510e+00 -8.250e-03 4.190e-02 -3.397e-02 6.160e-02
140 1 -1.421e-02 6.983e-04 -3.533e+00 7.528e-02 -1.449e-02 1.102e-01
141 1 -3.535e+00 6.965e-03 -1.282e-02 2.552e-02 2.196e-02 -8.130e-03
142 1 -1.785e+00 3.603e-03 1.748e+00 1.231e-01 3.685e-02 4.516e-02
143 1 1.753e+00 -4.545e-03 -1.779e+00 3.003e-03 1.082e-02 1.145e-01
144 1 -1.770e+00 5.033e-03 -1.767e+00 7.824e-02 3.149e-02 8.828e-02
145 1 -1.076e-02 1.755e+00 -1.768e+00 7.315e-02 -2.436e-02 7.326e-02
146 1 -4.822e-03 -1.759e+00 -1.769e+00 6.422e-02 3.643e-02 1.515e-01
147 1 -1.766e+00 -1.756e+00 -7.880e-03 9.464e-02 7.775e-02 9.064e-02
148 1 -1.773e+00 1.763e+00 -8.752e-03 4.885e-02 -2.094e-02 2.850e-02
ITEM: TIMESTEP
0
ITEM: NUMBER OF ATOMS
74
ITEM: BOX BOUNDS xy xz yz pp pp pp
                     0.00000000000000e+00 1.06200000000000e+01 0.00000000000000e+00
0.00000000000000e+00	1.06200000000000e+01	0.00000000000000e+00
0.00000000000000e+00	1.06200000000000e+01	0.00000000000000e+00
ITEM: ATOMS id type x y z DisplacementX DisplacementY DisplacementZ
149 1 2.498e-03 -5.273e+00 1.746e+00 4.368e-02 7.207e-02 7.258e-02
150 1 8.725e-04 -3.490e+00 3.490e+00 3.130e-03 8.656e-02 -1.898e-03
151 1 -5.298e+00 3.345e-02 1.745e+00 -8.442e-03 2.754e-02 2.723e-02
152 1 5.293e+00 7.023e-03 1.747e+00 1.751e-02 6.018e-02 -3.171e-02
153 1 -5.293e+00 -1.732e+00 -1.452e-02 -2.967e-02 1.487e-03 3.795e-02
154 1 5.293e+00 -1.752e+00 -1.493e-02 -3.274e-04 -1.142e-02 -6.195e-03
155 1 2.958e-03 -5.259e+00 -1.768e+00 -2.273e-02 -3.628e-02 -5.355e-03
156 1 7.694e-03 5.285e+00 1.744e+00 3.073e-02 -2.465e-03 -2.079e-02
157 1 7.975e-03 5.285e+00 -1.775e+00 -4.164e-02 -3.634e-02 -2.703e-02
158 1 -1.755e+00 5.287e+00 -1.430e-02 5.262e-02 1.080e-02 -9.234e-03
159 1 1.770e+00 5.283e+00 -1.388e-02 -2.304e-02 -6.476e-02 -2.986e-02
160 1 5.288e+00 5.038e-03 -1.775e+00 -1.348e-02 -2.164e-03 1.424e-02
161 1 -5.294e+00 3.250e-02 -1.775e+00 -2.657e-03 5.396e-02 -5.551e-03
162 1 -5.299e+00 1.793e+00 -1.556e-02 -1.634e-03 4.856e-02 3.108e-02
163 1 5.290e+00 1.764e+00 -1.547e-02 -1.401e-03 4.889e-02 -2.451e-03
164 1 -1.756e+00 -5.258e+00 -1.238e-02 5.270e-02 2.643e-02 1.295e-02
165 1 1.761e+00 -5.262e+00 -1.060e-02 1.999e-02 7.845e-03 5.677e-02
166 1 1.216e-04 -3.504e+00 -3.534e+00 1.764e-02 -2.546e-02 -5.779e-03
167 1 4.900e-03 3.528e+00 3.506e+00 4.317e-02 -5.786e-02 -7.240e-03
168 1 6.046e-03 3.521e+00 -3.535e+00 -6.848e-02 -6.014e-02 -1.462e-02
169 1 3.529e+00 3.521e+00 -1.281e-02 -2.815e-02 7.455e-03 -6.330e-04
170 1 -3.527e+00 3.535e+00 -1.277e-02 4.345e-02 8.112e-02 2.479e-02
171 1 -3.529e+00 2.360e-02 -3.535e+00 2.318e-02 -1.999e-03 1.789e-02
172 1 3.526e+00 6.256e-03 -3.534e+00 -4.613e-02 -1.111e-02 1.567e-02
173 1 3.523e+00 -3.508e+00 -1.226e-02 -4.656e-02 -1.857e-03 6.504e-02
174 1 -3.521e+00 -3.495e+00 -1.236e-02 1.418e-02 2.254e-02 1.639e-02
175 1 -3.528e+00 2.523e-02 3.504e+00 6.666e-02 -4.669e-02 -7.360e-02
176 1 3.525e+00 3.374e-03 3.503e+00 -1.293e-02 -6.548e-03 -1.862e-02
177 1 1.754e+00 -1.747e+00 3.495e+00 -2.486e-02 9.178e-04 -2.415e-03
178 1 -1.752e+00 -1.739e+00 3.495e+00 3.264e-02 -7.248e-03 -6.223e-02
179 1 -1.750e+00 -3.485e+00 1.746e+00 7.385e-02 6.364e-02 6.409e-02
180 1 1.753e+00 -3.494e+00 1.746e+00 1.264e-02 -6.661e-03 7.992e-02
181 1 1.765e+00 -1.748e+00 -3.534e+00 -3.975e-02 1.128e-02 5.797e-02
182 1 -1.766e+00 -1.738e+00 -3.534e+00 3.508e-02 -1.361e-02 2.275e-02
183 1 1.762e+00 1.763e+00 3.504e+00 -2.385e-02 -1.828e-02 2.348e-02
184 1 -1.760e+00 1.771e+00 3.502e+00 5.633e-02 -3.979e-02 -4.556e-02
185 1 1.766e+00 1.765e+00 -3.534e+00 -6.210e-02 -2.633e-02 -1.406e-02
186 1 -1.762e+00 1.774e+00 -3.532e+00 -1.695e-02 -5.572e-03 1.263e-02
187 1 -1.760e+00 -3.495e+00 -1.772e+00 3.128e-02 -3.642e-02 2.263e-02
188 1 1.760e+00 -3.505e+00 -1.771e+00 -3.075e-02 -4.835e-02 6.260e-02
189 1 -1.760e+00 3.533e+00 1.745e+00 7.107e-02 -1.805e-02 1.300e-03
190 1 1.768e+00 3.528e+00 1.746e+00 -2.359e-02 -6.552e-02 1.501e-02
191 1 -1.756e+00 3.527e+00 -1.773e+00 -2.268e-02 -2.436e-02 8.352e-03
192 1 1.767e+00 3.522e+00 -1.772e+00 -6.913e-02 -7.167e-02 -2.064e-02
193 1 -3.529e+00 1.782e+00 -1.773e+00 1.629e-02 2.134e-02 3.474e-02
194 1 3.527e+00 1.763e+00 -1.774e+00 -3.710e-02 -2.574e-02 1.113e-02
195 1 3.525e+00 -1.751e+00 -1.771e+00 -5.084e-02 -6.396e-03 8.336e-02
196 1 -3.522e+00 -1.734e+00 -1.769e+00 -1.485e-03 6.170e-04 2.465e-02
197 1 -3.528e+00 1.779e+00 1.745e+00 6.253e-02 5.049e-03 1.130e-02
198 1 3.523e+00 1.761e+00 1.747e+00 -3.235e-02 1.154e-02 2.391e-03
199 1 -3.538e+00 -1.734e+00 1.745e+00 1.191e-02 1.179e-02 -4.343e-03
200 1 3.539e+00 -1.751e+00 1.745e+00 -2.676e-02 3.731e-03 1.402e-03
201 1 -1.920e-03 -1.743e+00 5.273e+00 -4.710e-03 3.421e-03 -6.014e-02
202 1 2.396e-03 1.765e+00 5.259e+00 4.995e-02 -2.803e-02 -3.428e-02
203 1 1.762e+00 6.896e-03 5.261e+00 -5.490e-02 -1.327e-02 -1.140e-02
204 1 -1.763e+00 1.776e-02 5.262e+00 1.884e-02 -1.605e-02 -1.050e-01
205 1 1.524e-03 5.533e-04 7.328e-04 -3.294e-02 -1.958e-01 1.290e-01
206 1 -1.580e-03 1.927e-03 3.491e+00 1.546e-02 -1.084e-01 -3.674e-02
207 1 8.266e-04 -3.489e+00 -6.772e-04 1.555e-02 -6.018e-03 5.982e-02
208 1 1.752e+00 -3.244e-03 1.745e+00 -5.230e-02 -8.465e-02 4.470e-02
209 1 -1.756e+00 1.023e-02 1.744e+00 1.106e-02 -8.502e-02 1.459e-02
210 1 -1.752e+00 -1.739e+00 -2.547e-03 2.480e-02 -6.444e-02 1.120e-01
211 1 1.753e+00 -1.749e+00 -3.281e-03 -1.315e-02 -8.939e-02 1.317e-01
212 1 -3.529e+00 2.415e-02 -1.303e-02 -1.158e-02 -3.054e-02 4.838e-02
213 1 3.525e+00 5.942e-03 -1.081e-02 -2.180e-02 -3.627e-02 3.982e-02
214 1 1.783e-03 1.366e-02 -3.534e+00 6.637e-03 -3.625e-02 4.632e-02
215 1 4.869e-03 3.529e+00 -1.407e-02 -2.120e-02 -8.223e-02 -1.126e-03
216 1 1.518e-03 1.781e+00 1.747e+00 4.517e-03 -1.332e-01 2.304e-02
217 1 -1.023e-03 -1.744e+00 -1.782e+00 -6.990e-03 -6.486e-02 1.160e-01
218 1 2.295e-03 1.767e+00 -1.770e+00 -5.347e-02 -9.908e-02 4.025e-02
219 1 1.762e+00 7.152e-03 -1.770e+00 -5.157e-02 -6.591e-02 7.747e-02
220 1 -1.764e+00 1.803e-02 -1.771e+00 8.283e-03 -4.472e-02 9.981e-02
221 1 -1.762e+00 1.775e+00 -1.173e-02 3.166e-03 -7.747e-02 6.224e-02
222 1 1.765e+00 1.763e+00 -1.156e-02 -3.938e-02 -6.383e-02 5.668e-02
ITEM: TIMESTEP
0
ITEM: NUMBER OF ATOMS
74
ITEM: BOX BOUNDS xy xz yz pp pp pp
                     0.00000000000000e+00 1.06200000000000e+01 0.00000000000000e+00
0.00000000000000e+00	1.06200000000000e+01	0.00000000000000e+00
0.00000000000000e+00	1.06200000000000e+01	0.00000000000000e+00
ITEM: ATOMS id type x y z DisplacementX DisplacementY DisplacementZ
223 1 -5.292e+00 1.613e-02 1.749e+00 1.335e-02 -1.682e-03 -3.521e-02
224 1 -3.508e+00 9.347e-03 3.496e+00 -6.146e-03 3.834e-02 -1.810e-02
225 1 1.264e-02 -5.282e+00 1.749e+00 8.588e-02 -2.118e-02 4.072e-02
226 1 1.611e-02 5.273e+00 1.748e+00 -7.137e-03 -5.762e-03 -4.107e-03
227 1 -1.749e+00 -5.282e+00 -1.109e-02 2.020e-02 -9.330e-02 3.371e-02
228 1 -1.748e+00 5.275e+00 -1.205e-02 1.511e-02 -3.698e-02 -2.523e-02
229 1 -5.277e+00 1.354e-02 -1.769e+00 2.390e-02 4.508e-02 -7.786e-02
230 1 5.300e+00 -2.700e-03 1.749e+00 2.007e-02 2.619e-02 -5.444e-02
231 1 5.301e+00 -6.206e-03 -1.774e+00 -1.435e-02 -5.345e-02 -2.902e-02
232 1 5.301e+00 -1.764e+00 -1.213e-02 4.104e-03 -3.297e-03 -6.355e-02
233 1 5.301e+00 1.753e+00 -1.283e-02 4.039e-02 4.205e-02 -5.853e-03
234 1 1.603e-02 5.270e+00 -1.772e+00 2.590e-02 1.902e-02 -1.369e-02
235 1 1.242e-02 -5.278e+00 -1.770e+00 8.981e-02 -2.103e-02 -2.030e-03
236 1 1.772e+00 -5.280e+00 -1.158e-02 4.749e-02 -3.155e-02 4.151e-02
237 1 1.774e+00 5.270e+00 -1.085e-02 3.027e-03 -1.791e-02 3.664e-02
238 1 -5.274e+00 -1.746e+00 -9.919e-03 -1.345e-02 4.460e-02 -3.927e-02
239 1 -5.281e+00 1.772e+00 -8.589e-03 1.138e-02 -6.478e-02 -6.550e-02
240 1 -3.519e+00 1.011e-02 -3.532e+00 5.367e-02 7.312e-02 3.558e-02
241 1 3.543e+00 -4.737e-03 3.509e+00 -1.663e-02 1.046e-01 9.431e-04
242 1 3.534e+00 -7.189e-03 -3.532e+00 -5.835e-02 -4.820e-02 5.097e-03
243 1 3.538e+00 3.511e+00 -1.217e-02 -1.085e-02 2.094e-02 -2.147e-03
244 1 3.536e+00 -3.521e+00 -1.160e-02 -2.243e-02 -1.320e-02 -3.127e-02
245 1 8.333e-03 -3.516e+00 -3.534e+00 3.009e-02 -2.302e-02 -5.291e-02
246 1 1.077e-02 3.513e+00 -3.532e+00 6.171e-02 -2.719e-02 3.377e-03
247 1 -3.515e+00 3.522e+00 -9.256e-03 -1.702e-02 -8.670e-02 -5.781e-02
248 1 -3.510e+00 -3.509e+00 -8.339e-03 -1.474e-02 2.495e-02 2.221e-02
249 1 8.946e-03 -3.515e+00 3.505e+00 1.513e-02 2.005e-02 5.703e-02
250 1 1.003e-02 3.512e+00 3.504e+00 -3.295e-02 -4.557e-02 -5.309e-02
251 1 -1.752e+00 1.748e+00 3.494e+00 -2.500e-02 -4.704e-02 -1.961e-02
252 1 -1.751e+00 -1.740e+00 3.497e+00 1.511e-02 7.546e-02 4.225e-02
253 1 -3.502e+00 -1.737e+00 1.749e+00 -2.670e-02 3.385e-02 1.335e-02
254 1 -3.510e+00 1.757e+00 1.748e+00 -4.975e-03 -1.025e-01 -7.300e-02
255 1 -1.753e+00 1.762e+00 -3.531e+00 6.506e-02 1.154e-02 6.808e-02
256 1 -1.753e+00 -1.756e+00 -3.532e+00 5.390e-02 6.828e-02 2.336e-03
257 1 1.775e+00 1.755e+00 3.505e+00 -2.747e-02 2.782e-02 1.102e-02
258 1 1.771e+00 -1.760e+00 3.506e+00 -1.126e-02 6.145e-02 4.891e-02
259 1 1.773e+00 1.752e+00 -3.532e+00 -1.488e-02 -4.540e-02 3.283e-02
260 1 1.770e+00 -1.761e+00 -3.532e+00 -4.503e-02 -5.477e-02 -2.384e-03
261 1 -3.514e+00 -1.750e+00 -1.767e+00 -1.397e-02 8.061e-02 2.097e-02
262 1 -3.516e+00 1.765e+00 -1.767e+00 3.029e-02 -5.434e-03 9.802e-03
263 1 3.541e+00 -1.765e+00 1.746e+00 -3.227e-02 5.023e-02 -2.344e-03
264 1 3.541e+00 1.754e+00 1.749e+00 -9.765e-03 6.799e-02 1.325e-02
265 1 3.535e+00 -1.763e+00 -1.772e+00 -7.658e-02 -5.609e-02 -1.433e-02
266 1 3.538e+00 1.752e+00 -1.770e+00 -3.528e-02 -1.843e-02 2.390e-02
267 1 1.772e+00 -3.518e+00 -1.771e+00 -1.955e-03 -2.316e-02 -3.436e-02
268 1 1.776e+00 3.511e+00 -1.770e+00 1.488e-02 -1.006e-02 3.618e-02
269 1 -1.750e+00 3.515e+00 -1.765e+00 1.881e-02 -3.423e-02 2.820e-02
270 1 -1.752e+00 -3.510e+00 -1.766e+00 2.082e-02 -3.883e-04 7.601e-04
271 1 1.769e+00 -3.518e+00 1.749e+00 2.987e-03 4.978e-02 3.192e-02
272 1 1.773e+00 3.508e+00 1.749e+00 -4.128e-02 2.779e-03 3.527e-02
273 1 -1.751e+00 -3.526e+00 1.749e+00 1.234e-02 1.293e-02 4.679e-02
274 1 -1.748e+00 3.527e+00 1.748e+00 -5.562e-02 -1.045e-01 -4.108e-02
275 1 -1.753e+00 3.891e-03 5.274e+00 -1.738e-03 3.110e-02 8.153e-03
276 1 1.770e+00 -3.044e-03 5.264e+00 -2.174e-02 4.782e-02 5.701e-02
277 1 8.355e-03 1.755e+00 5.264e+00 -1.432e-02 4.274e-02 -7.040e-02
278 1 8.138e-03 -1.758e+00 5.264e+00 7.298e-03 4.946e-02 4.957e-02
279 1 5.759e-04 8.818e-04 -1.752e-03 -1.411e-01 5.560e-02 1.879e-01
280 1 6.932e-04 -5.686e-04 3.496e+00 -4.477e-02 5.195e-02 3.173e-02
281 1 -3.508e+00 1.066e-02 -1.157e-03 -9.831e-03 1.687e-02 1.908e-02
282 1 2.131e-04 1.746e+00 1.748e+00 -8.789e-02 -5.733e-02 2.600e-02
283 1 7.142e-04 -1.744e+00 1.748e+00 -6.469e-02 6.705e-02 7.061e-02
284 1 -1.752e+00 -1.741e+00 1.177e-03 -6.339e-02 6.701e-02 7.948e-02
285 1 -1.752e+00 1.748e+00 3.121e-03 -5.302e-02 -1.191e-01 8.330e-02
286 1 9.565e-03 -3.512e+00 -7.937e-03 2.963e-02 2.758e-02 6.809e-02
287 1 1.173e-02 3.511e+00 -9.318e-03 -4.938e-02 -3.601e-02 5.374e-02
288 1 1.307e-02 7.105e-04 -3.530e+00 1.852e-02 -1.267e-02 7.158e-02
289 1 3.538e+00 -4.526e-03 -1.372e-02 -5.126e-02 3.617e-02 -3.420e-02
290 1 1.786e+00 -2.745e-03 1.750e+00 -1.138e-01 6.529e-02 7.028e-02
291 1 -1.756e+00 3.745e-03 -1.782e+00 -2.108e-02 2.800e-02 1.031e-01
292 1 1.770e+00 -1.856e-03 -1.767e+00 -1.113e-01 -3.299e-02 6.073e-02
293 1 8.135e-03 1.754e+00 -1.767e+00 -2.486e-02 -2.667e-02 1.217e-01
294 1 7.376e-03 -1.755e+00 -1.767e+00 -4.886e-02 2.562e-02 7.198e-02
295 1 1.772e+00 -1.758e+00 -9.727e-03 -9.935e-02 2.801e-02 4.944e-02
296 1 1.774e+00 1.753e+00 -7.498e-03 -9.274e-02 -1.549e-02 1.158e-01
ITEM: TIMESTEP
0
ITEM: NUMBER OF ATOMS
74
ITEM: BOX BOUNDS xy xz yz pp pp pp
                     0.00000000000000e+00 1.06200000000000e+01 0.00000000000000e+00
0.00000000000000e+00	1.06200000000000e+01	0.00000000000000e+00
0.00000000000000e+00	1.06200000000000e+01	0.00000000000000e+00
ITEM: ATOMS id type x y z DisplacementX DisplacementY DisplacementZ
297 1 1.751e+00 5.265e+00 1.294e-05 5.918e-03 -2.760e-02 8.351e-02
298 1 5.290e+00 1.736e+00 6.362e-04 -5.457e-02 -4.112e-02 4.614e-02
299 1 3.502e+00 3.481e+00 6.878e-04 -2.599e-02 -2.899e-02 1.088e-01
300 1 -5.283e+00 -1.777e+00 -1.415e-03 -3.735e-02 -7.358e-02 -5.413e-02
301 1 -1.760e+00 -5.305e+00 7.783e-04 5.982e-03 -5.878e-03 -1.633e-02
302 1 -5.287e+00 -1.387e-02 1.760e+00 -9.601e-03 -9.122e-02 4.287e-02
303 1 -5.289e+00 -1.276e-02 -1.760e+00 -5.068e-03 -5.684e-02 -1.226e-03
304 1 -3.056e-03 -5.304e+00 1.762e+00 3.240e-02 -2.085e-02 -3.318e-02
305 1 -3.903e-03 -5.304e+00 -1.761e+00 -7.248e-02 -1.073e-02 2.540e-02
306 1 1.756e+00 -5.303e+00 -2.697e-03 -6.833e-03 -2.567e-02 2.560e-02
307 1 -5.297e+00 1.757e+00 -2.633e-04 -2.379e-02 -4.092e-02 3.539e-03
308 1 -1.779e+00 5.267e+00 -3.955e-04 9.819e-03 -2.823e-02 -2.276e-02
309 1 5.272e+00 -1.778e+00 -1.699e-04 -2.839e-02 6.428e-03 8.220e-03
310 1 -1.048e-02 5.260e+00 1.758e+00 7.186e-02 6.688e-03 -2.462e-02
311 1 -1.230e-02 5.258e+00 -1.756e+00 -7.532e-02 -2.033e-02 8.570e-02
312 1 5.272e+00 -2.187e-02 -1.757e+00 -6.888e-02 -3.804e-02 -5.857e-04
313 1 5.274e+00 -2.130e-02 1.756e+00 -3.397e-02 -4.472e-02 -5.847e-02
314 1 -3.519e+00 -3.540e+00 2.246e-03 3.288e-02 3.370e-03 1.434e-02
315 1 -3.546e+00 3.519e+00 2.810e-04 4.516e-02 -1.311e-02 1.847e-03
316 1 3.515e+00 -3.542e+00 -1.399e-03 -1.836e-02 3.520e-02 2.334e-02
317 1 -3.529e+00 -9.675e-03 3.517e+00 -7.579e-03 1.199e-02 3.167e-02
318 1 -3.529e+00 -1.112e-02 -3.520e+00 -1.055e-02 1.106e-02 -6.848e-03
319 1 -3.170e-03 -3.537e+00 3.520e+00 5.223e-02 -9.597e-03 -3.784e-02
320 1 -4.535e-03 -3.536e+00 -3.519e+00 -2.280e-02 -1.159e-02 4.892e-02
321 1 -1.399e-02 3.504e+00 3.517e+00 2.841e-02 2.059e-02 -7.975e-02
322 1 -1.241e-02 3.503e+00 -3.517e+00 -1.259e-01 -5.550e-02 4.558e-02
323 1 3.512e+00 -1.791e-02 3.515e+00 -3.347e-03 -1.823e-02 -9.813e-02
324 1 3.510e+00 -1.834e-02 -3.516e+00 -1.493e-02 -5.389e-02 1.129e-02
325 1 1.750e+00 3.486e+00 -1.745e+00 -9.995e-02 -2.731e-02 1.417e-01
326 1 1.751e+00 3.486e+00 1.745e+00 4.875e-02 -1.655e-02 6.919e-03
327 1 3.501e+00 1.738e+00 1.748e+00 1.796e-02 -7.391e-02 -5.862e-02
328 1 3.504e+00 1.738e+00 -1.750e+00 -4.069e-02 -6.099e-02 5.277e-02
329 1 -3.524e+00 -1.776e+00 1.760e+00 2.140e-02 3.483e-03 4.621e-02
330 1 -3.526e+00 -1.776e+00 -1.759e+00 4.083e-02 -3.381e-03 -1.657e-02
331 1 -1.763e+00 -3.537e+00 -1.758e+00 -8.770e-03 3.187e-02 2.775e-02
332 1 -1.763e+00 -3.538e+00 1.759e+00 6.207e-02 2.702e-04 8.497e-03
333 1 -3.543e+00 1.756e+00 1.758e+00 3.444e-02 3.360e-02 -1.299e-02
334 1 -3.541e+00 1.755e+00 -1.763e+00 1.930e-02 -4.024e-03 4.636e-03
335 1 1.756e+00 -3.541e+00 -1.761e+00 -4.060e-02 2.364e-02 8.043e-02
336 1 1.752e+00 -3.541e+00 1.761e+00 3.259e-02 3.288e-02 -4.411e-02
337 1 -1.779e+00 3.510e+00 -1.758e+00 -5.392e-02 -1.023e-02 2.862e-03
338 1 -1.779e+00 3.510e+00 1.755e+00 6.406e-02 2.163e-02 -7.003e-02
339 1 3.512e+00 -1.778e+00 1.757e+00 1.866e-02 4.307e-02 -6.913e-02
340 1 3.513e+00 -1.779e+00 -1.757e+00 1.832e-02 2.359e-02 6.469e-03
341 1 -1.764e+00 -1.772e+00 -3.517e+00 2.313e-02 2.408e-02 7.502e-03
342 1 -1.767e+00 -1.773e+00 3.518e+00 5.345e-02 3.444e-02 4.442e-02
343 1 -1.773e+00 1.753e+00 -3.516e+00 -5.288e-02 1.546e-02 2.017e-02
344 1 -1.775e+00 1.750e+00 3.517e+00 3.494e-02 7.255e-02 -3.628e-03
345 1 1.752e+00 -1.773e+00 3.515e+00 2.594e-02 2.984e-03 -8.347e-02
346 1 1.751e+00 -1.774e+00 -3.513e+00 2.356e-02 -1.474e-02 7.135e-03
347 1 1.749e+00 1.744e+00 -3.528e+00 -5.986e-02 -3.075e-02 7.992e-03
348 1 1.750e+00 1.741e+00 3.529e+00 2.292e-02 -2.428e-02 -8.516e-02
349 1 -1.605e-02 1.746e+00 5.279e+00 -9.449e-03 3.593e-02 1.770e-02
350 1 1.751e+00 -1.995e-02 5.282e+00 -3.227e-02 -3.620e-03 -6.719e-03
351 1 -1.772e+00 -1.074e-02 5.279e+00 -1.289e-02 2.150e-02 7.282e-02
352 1 -6.867e-03 -1.773e+00 -5.281e+00 8.951e-03 -2.178e-02 1.764e-03
353 1 6.025e-04 3.415e-04 3.080e-04 1.094e-01 2.113e-01 -6.819e-02
354 1 -6.745e-03 3.493e+00 -1.487e-03 3.580e-02 1.262e-02 -2.255e-02
355 1 3.502e+00 -8.836e-03 1.098e-03 -4.747e-02 2.533e-02 -6.272e-02
356 1 -2.466e-03 1.749e+00 1.747e+00 8.123e-02 9.734e-02 -1.113e-01
357 1 -5.330e-03 1.747e+00 -1.747e+00 -1.540e-02 2.724e-02 -8.127e-03
358 1 1.750e+00 -2.677e-03 -1.747e+00 1.636e-02 6.166e-02 6.336e-03
359 1 1.751e+00 -3.795e-03 1.745e+00 2.107e-02 7.838e-02 -9.465e-02
360 1 -1.113e-02 -1.098e-02 3.515e+00 -8.743e-04 9.015e-02 -5.113e-02
361 1 -9.880e-03 -1.030e-02 -3.517e+00 3.487e-02 2.158e-02 3.896e-03
362 1 -3.534e+00 -1.159e-02 -5.308e-04 3.548e-02 -1.357e-04 -2.262e-02
363 1 -6.182e-03 -3.542e+00 -1.780e-03 2.002e-02 6.347e-02 -1.216e-03
364 1 -1.764e+00 -1.769e+00 1.230e-03 9.482e-02 1.290e-01 1.921e-02
365 1 -1.772e+00 -7.487e-03 -1.757e+00 7.032e-02 1.061e-01 1.440e-02
366 1 -1.771e+00 -8.454e-03 1.757e+00 8.344e-02 1.072e-01 5.047e-03
367 1 -5.018e-03 -1.772e+00 1.757e+00 6.962e-02 1.351e-01 -2.348e-02
368 1 -6.074e-03 -1.773e+00 -1.757e+00 5.124e-02 1.248e-01 2.171e-02
369 1 -1.789e+00 1.752e+00 -5.552e-04 8.340e-02 8.264e-02 -3.710e-02
370 1 1.752e+00 -1.788e+00 -3.458e-04 3.360e-02 1.031e-01 -7.553e-03
ITEM: TIMESTEP
0
ITEM: NUMBER OF ATOMS
74
ITEM: BOX BOUNDS xy xz yz pp pp pp
                     0.00000000000000e+00 1.06200000000000e+01 0.00000000000000e+00
0.00000000000000e+00	1.06200000000000e+01	0.00000000000000e+00
0.00000000000000e+00	1.06200000000000e+01	0.00000000000000e+00
ITEM: ATOMS id type x y z DisplacementX DisplacementY DisplacementZ
371 1 1.615e-03 5.268e+00 -1.746e+00 2.168e-02 -9.027e-02 -1.913e-02
372 1 -2.166e-03 3.491e+00 -3.492e+00 3.238e-03 -8.284e-02 -2.170e-02
373 1 -5.284e+00 -7.945e-03 -1.745e+00 1.740e-02 -1.800e-02 9.170e-02
374 1 5.290e+00 -2.345e-02 -1.746e+00 -4.901e-02 -7.890e-02 3.778e-02
375 1 -5.291e+00 1.758e+00 1.205e-02 1.894e-02 1.397e-02 7.367e-02
376 1 5.290e+00 1.736e+00 1.424e-02 -4.689e-02 -5.453e-02 4.770e-02
377 1 3.170e-03 5.254e+00 1.767e+00 -7.976e-03 -2.932e-03 -2.381e-02
378 1 8.004e-03 -5.300e+00 -1.747e+00 3.813e-02 -2.961e-02 2.174e-02
379 1 7.002e-03 -5.299e+00 1.774e+00 -7.180e-02 3.532e-02 4.985e-02
380 1 -1.752e+00 -5.301e+00 1.226e-02 -5.801e-02 -2.830e-02 -8.910e-03
381 1 1.767e+00 -5.302e+00 1.438e-02 1.343e-02 -3.908e-02 6.128e-02
382 1 5.289e+00 -2.150e-02 1.774e+00 -1.569e-02 -5.913e-02 5.942e-02
383 1 -5.280e+00 -7.100e-03 1.774e+00 -3.337e-02 -4.036e-02 2.801e-03
384 1 -5.273e+00 -1.771e+00 1.381e-02 1.283e-02 -6.812e-02 -1.586e-03
385 1 5.288e+00 -1.780e+00 1.532e-02 5.356e-02 -1.152e-01 1.310e-02
386 1 -1.761e+00 5.260e+00 1.038e-02 1.799e-02 4.241e-03 -5.284e-03
387 1 1.765e+00 5.252e+00 1.042e-02 2.001e-02 -6.555e-02 -4.238e-02
388 1 1.700e-03 3.504e+00 3.535e+00 -5.874e-02 4.670e-02 -4.380e-02
389 1 2.426e-03 -3.538e+00 -3.509e+00 -1.933e-02 -5.890e-02 -4.576e-02
390 1 5.088e-03 -3.533e+00 3.535e+00 -2.972e-02 -1.931e-03 -1.245e-02
391 1 3.526e+00 -3.538e+00 1.418e-02 1.007e-01 -5.788e-02 -7.375e-03
392 1 -3.511e+00 -3.535e+00 1.387e-02 -2.729e-03 -2.746e-02 -8.203e-02
393 1 -3.523e+00 -5.572e-03 3.531e+00 -1.395e-02 -5.396e-02 -5.018e-02
394 1 3.525e+00 -1.973e-02 3.534e+00 4.058e-02 1.672e-02 2.625e-02
395 1 3.525e+00 3.494e+00 1.127e-02 -3.432e-03 -5.711e-02 2.884e-02
396 1 -3.531e+00 3.513e+00 1.213e-02 1.614e-02 3.627e-02 -1.140e-02
397 1 -3.520e+00 -5.881e-03 -3.505e+00 8.030e-02 3.439e-02 7.340e-02
398 1 3.525e+00 -2.068e-02 -3.502e+00 -7.769e-02 7.361e-02 5.877e-02
399 1 1.753e+00 1.741e+00 -3.493e+00 -1.021e-01 2.881e-02 -1.813e-03
400 1 -1.754e+00 1.749e+00 -3.495e+00 3.394e-02 -4.652e-03 9.407e-03
401 1 -1.757e+00 3.498e+00 -1.746e+00 2.121e-02 -6.371e-02 -4.300e-02
402 1 1.752e+00 3.486e+00 -1.746e+00 -2.371e-02 -9.422e-02 1.812e-02
403 1 1.764e+00 1.741e+00 3.533e+00 1.959e-03 5.645e-02 -5.924e-03
404 1 -1.766e+00 1.752e+00 3.534e+00 -8.987e-03 1.391e-02 -4.206e-02
405 1 1.760e+00 -1.774e+00 -3.505e+00 -6.166e-02 4.335e-02 -2.261e-02