ITEM: TIMESTEP
0
ITEM: NUMBER OF ATOMS
49
ITEM: BOX BOUNDS xy xz yz pp pp pp
                     0.00000000000000e+00 1.06200000000000e+01 0.00000000000000e+00
0.00000000000000e+00	1.06200000000000e+01	0.00000000000000e+00
0.00000000000000e+00	1.06200000000000e+01	0.00000000000000e+00
ITEM: ATOMS id type x y z DisplacementX DisplacementY DisplacementZ
1 1 -3.521e+00 -3.505e+00 -4.961e-02 1.069e-03 9.348e-03 1.057e-02
2 1 -3.514e+00 3.441e+00 -4.641e-02 3.113e-04 4.083e-02 -5.147e-03
3 1 -1.752e+00 1.698e+00 3.460e+00 1.069e-03 9.348e-03 1.057e-02
4 1 -8.860e-04 5.218e+00 1.709e+00 1.069e-03 9.348e-03 1.057e-02
5 1 -2.631e-03 5.196e+00 -1.809e+00 1.069e-03 9.348e-03 1.057e-02
6 1 -4.907e-03 -5.267e+00 -1.808e+00 1.069e-03 9.348e-03 1.057e-02
7 1 -5.042e-03 -5.262e+00 1.711e+00 1.069e-03 9.348e-03 1.057e-02
8 1 1.757e+00 5.211e+00 -4.783e-02 1.069e-03 9.348e-03 1.057e-02
9 1 1.759e+00 -5.273e+00 -4.932e-02 1.069e-03 9.348e-03 1.057e-02
10 1 5.306e+00 -3.243e-02 1.710e+00 2.301e-01 6.320e-02 -9.110e-02
11 1 5.306e+00 -2.901e-02 -1.809e+00 9.055e-01 2.206e-01 -3.964e-01
12 1 5.306e+00 1.728e+00 -5.213e-02 3.113e-01 8.229e-02 -1.271e-01
13 1 5.304e+00 -1.783e+00 -4.897e-02 8.384e-01 2.049e-01 -3.662e-01
14 1 -1.751e+00 1.700e+00 -3.632e-02 4.287e-04 3.596e-02 -2.714e-03
15 1 -1.760e+00 -1.738e+00 3.468e+00 1.069e-03 9.348e-03 1.057e-02
16 1 -1.758e+00 5.198e+00 -4.846e-02 4.287e-04 3.596e-02 -2.714e-03
17 1 -1.765e+00 -5.260e+00 -4.966e-02 1.069e-03 9.348e-03 1.057e-02
18 1 3.533e+00 3.473e+00 -4.883e-02 1.069e-03 9.348e-03 1.057e-02
19 1 3.526e+00 -3.528e+00 -5.012e-02 4.942e-01 1.240e-01 -2.131e-01
20 1 -1.756e+00 -1.739e+00 -4.516e-02 1.069e-03 9.348e-03 1.057e-02
21 1 -1.752e+00 3.427e+00 1.711e+00 4.700e-04 3.424e-02 -1.856e-03
22 1 1.755e+00 3.454e+00 1.711e+00 1.069e-03 9.348e-03 1.057e-02
23 1 -1.773e+00 -3.499e+00 1.712e+00 1.069e-03 9.348e-03 1.057e-02
24 1 -1.770e+00 -3.489e+00 -1.809e+00 1.069e-03 9.348e-03 1.057e-02
25 1 -1.766e+00 3.430e+00 -1.810e+00 4.287e-04 3.596e-02 -2.714e-03
26 1 1.755e+00 3.453e+00 -1.810e+00 1.069e-03 9.348e-03 1.057e-02
27 1 1.761e+00 -3.519e+00 1.709e+00 1.069e-03 9.348e-03 1.057e-02
28 1 1.753e+00 -3.510e+00 -1.807e+00 2.799e-01 7.367e-02 -1.180e-01
29 1 3.553e+00 1.728e+00 1.711e+00 1.069e-03 9.348e-03 1.057e-02
30 1 3.536e+00 1.727e+00 -1.810e+00 2.912e-01 7.758e-02 -1.182e-01
31 1 3.533e+00 -1.776e+00 1.712e+00 1.927e-01 5.440e-02 -7.450e-02
32 1 3.537e+00 -1.779e+00 -1.808e+00 7.843e-01 1.923e-01 -3.419e-01
33 1 1.767e+00 1.718e+00 3.461e+00 1.069e-03 9.348e-03 1.057e-02
34 1 -1.592e-03 -1.837e-03 -2.111e-03 1.069e-03 9.348e-03 1.057e-02
35 1 -1.266e-04 -2.493e-04 3.422e+00 1.069e-03 9.348e-03 1.057e-02
36 1 3.544e+00 -2.563e-02 3.470e+00 1.069e-03 9.348e-03 1.057e-02
37 1 -5.602e-03 3.431e+00 3.458e+00 1.069e-03 9.348e-03 1.057e-02
38 1 1.762e+00 -1.763e+00 3.472e+00 1.069e-03 9.348e-03 1.057e-02
39 1 1.767e+00 1.717e+00 -3.921e-02 1.069e-03 9.348e-03 1.057e-02
40 1 -8.517e-03 -3.504e+00 3.479e+00 1.069e-03 9.348e-03 1.057e-02
41 1 1.784e+00 -1.515e-02 1.709e+00 1.069e-03 9.348e-03 1.057e-02
42 1 1.760e+00 -1.764e+00 -4.964e-02 2.198e-01 5.980e-02 -9.029e-02
43 1 -1.734e-03 -1.770e+00 1.711e+00 1.069e-03 9.348e-03 1.057e-02
44 1 -1.697e-02 -1.717e+00 -1.809e+00 1.069e-03 9.348e-03 1.057e-02
45 1 -1.557e-02 1.679e+00 -1.809e+00 1.069e-03 9.348e-03 1.057e-02
46 1 -8.009e-03 3.428e+00 -3.652e-02 1.069e-03 9.348e-03 1.057e-02
47 1 3.542e+00 -2.597e-02 -4.960e-02 6.155e-01 1.528e-01 -2.659e-01
48 1 1.774e+00 -1.914e-02 -1.809e+00 2.640e-01 6.999e-02 -1.106e-01
49 1 -1.088e-02 -3.503e+00 -5.753e-02 1.069e-03 9.348e-03 1.057e-02
ITEM: TIMESTEP
0
ITEM: NUMBER OF ATOMS
49
ITEM: BOX BOUNDS xy xz yz pp pp pp
                     0.00000000000000e+00 1.06200000000000e+01 0.00000000000000e+00
0.00000000000000e+00	1.06200000000000e+01	0.00000000000000e+00
0.00000000000000e+00	1.06200000000000e+01	0.00000000000000e+00
ITEM: ATOMS id type x y z DisplacementX DisplacementY DisplacementZ
50 1 -3.520e+00 -3.505e+00 4.924e-02 1.069e-03 9.348e-03 1.057e-02
51 1 -3.512e+00 3.442e+00 4.485e-02 -2.360e-02 -5.791e-03 -1.426e-02
52 1 -1.749e+00 1.697e+00 -3.457e+00 -7.869e-01 -4.742e-01 -7.823e-01
53 1 -2.415e-03 5.218e+00 -1.709e+00 -3.737e-01 -7.693e-02 6.143e-02
54 1 -2.940e-03 5.196e+00 1.810e+00 -4.210e-01 2.692e-01 1.131e+00
55 1 -4.429e-03 -5.269e+00 1.810e+00 1.069e-03 9.348e-03 1.057e-02
56 1 -4.730e-03 -5.263e+00 -1.712e+00 1.069e-03 9.348e-03 1.057e-02
57 1 1.759e+00 5.213e+00 5.161e-02 -6.138e-01 3.879e-01 1.643e+00
58 1 1.758e+00 -5.274e+00 5.176e-02 1.069e-03 9.348e-03 1.057e-02
59 1 5.308e+00 -2.933e-02 -1.712e+00 -6.666e-03 3.308e-01 -1.499e-01
60 1 5.308e+00 -2.961e-02 1.809e+00 -1.923e-01 8.942e-01 8.638e-02
61 1 5.309e+00 1.726e+00 5.264e-02 -4.021e-01 9.666e-01 6.759e-01
62 1 5.301e+00 -1.784e+00 4.790e-02 -4.492e-03 2.405e-01 -1.048e-01
63 1 -1.749e+00 1.698e+00 3.803e-02 -8.250e-02 3.517e-02 1.561e-01
64 1 -1.758e+00 -1.740e+00 -3.464e+00 1.069e-03 9.348e-03 1.057e-02
65 1 -1.757e+00 5.196e+00 4.924e-02 -5.129e-02 1.595e-02 7.323e-02
66 1 -1.764e+00 -5.258e+00 4.984e-02 1.069e-03 9.348e-03 1.057e-02
67 1 3.531e+00 3.472e+00 4.911e-02 -7.889e-01 9.460e-01 1.851e+00
68 1 3.529e+00 -3.529e+00 4.836e-02 1.069e-03 9.348e-03 1.057e-02
69 1 -1.759e+00 -1.740e+00 4.375e-02 1.069e-03 9.348e-03 1.057e-02
70 1 -1.753e+00 3.427e+00 -1.710e+00 -5.561e-01 -3.326e-01 -5.501e-01
71 1 1.754e+00 3.452e+00 -1.710e+00 -5.861e-01 1.139e-01 8.043e-01
72 1 -1.774e+00 -3.497e+00 -1.711e+00 1.069e-03 9.348e-03 1.057e-02
73 1 -1.774e+00 -3.490e+00 1.810e+00 1.069e-03 9.348e-03 1.057e-02
74 1 -1.767e+00 3.430e+00 1.807e+00 -9.315e-02 6.736e-02 2.607e-01
75 1 1.755e+00 3.453e+00 1.808e+00 -8.698e-01 6.996e-01 2.235e+00
76 1 1.761e+00 -3.522e+00 -1.710e+00 1.069e-03 9.348e-03 1.057e-02
77 1 1.754e+00 -3.510e+00 1.811e+00 1.069e-03 9.348e-03 1.057e-02
78 1 3.554e+00 1.728e+00 -1.712e+00 -2.664e-01 4.390e-01 5.692e-01
79 1 3.535e+00 1.727e+00 1.810e+00 -6.848e-01 1.095e+00 1.453e+00
80 1 3.537e+00 -1.778e+00 -1.712e+00 1.069e-03 9.348e-03 1.057e-02
81 1 3.535e+00 -1.776e+00 1.810e+00 -4.132e-03 2.255e-01 -9.731e-02
82 1 1.767e+00 1.718e+00 -3.462e+00 -2.360e-01 -1.361e-01 -2.280e-01
83 1 -8.336e-04 8.600e-04 -6.923e-04 -1.248e-01 8.686e-02 3.448e-01
84 1 4.970e-04 -4.734e-04 -3.422e+00 -3.367e-01 -1.979e-01 -3.293e-01
85 1 3.542e+00 -2.657e-02 -3.472e+00 1.069e-03 9.348e-03 1.057e-02
86 1 -4.985e-03 3.429e+00 -3.457e+00 -6.423e-01 -3.855e-01 -6.368e-01
87 1 1.761e+00 -1.765e+00 -3.472e+00 1.069e-03 9.348e-03 1.057e-02
88 1 1.765e+00 1.717e+00 4.132e-02 -5.967e-01 5.031e-01 1.526e+00
89 1 -9.021e-03 -3.504e+00 -3.480e+00 1.069e-03 9.348e-03 1.057e-02
90 1 1.782e+00 -1.531e-02 -1.711e+00 -6.595e-02 5.061e-02 1.885e-01
91 1 1.761e+00 -1.764e+00 5.038e-02 1.069e-03 9.348e-03 1.057e-02
92 1 -1.518e-03 -1.769e+00 -1.712e+00 1.069e-03 9.348e-03 1.057e-02
93 1 -1.555e-02 -1.715e+00 1.808e+00 1.069e-03 9.348e-03 1.057e-02
94 1 -1.680e-02 1.681e+00 1.809e+00 -3.663e-01 2.356e-01 9.861e-01
95 1 -5.913e-03 3.431e+00 3.487e-02 -4.282e-01 2.541e-01 1.092e+00
96 1 3.542e+00 -2.536e-02 4.861e-02 -1.947e-01 6.501e-01 2.330e-01
97 1 1.774e+00 -1.950e-02 1.810e+00 -2.778e-01 3.262e-01 6.680e-01
98 1 -9.969e-03 -3.504e+00 5.590e-02 1.069e-03 9.348e-03 1.057e-02
ITEM: TIMESTEP
0
ITEM: NUMBER OF ATOMS
53
ITEM: BOX BOUNDS xy xz yz pp pp pp
                     0.00000000000000e+00 1.06200000000000e+01 0.00000000000000e+00
0.00000000000000e+00	1.06200000000000e+01	0.00000000000000e+00
0.00000000000000e+00	1.06200000000000e+01	0.00000000000000e+00
ITEM: ATOMS id type x y z DisplacementX DisplacementY DisplacementZ
99 1 -1.753e+00 -5.170e+00 -8.112e-03 2.593e+00 5.677e-01 -1.335e+00
100 1 -5.232e+00 1.779e+00 -1.272e-02 1.069e-03 9.348e-03 1.057e-02
101 1 -1.732e+00 5.316e+00 -1.219e-02 1.069e-03 9.348e-03 1.057e-02
102 1 4.531e-03 -5.200e+00 1.748e+00 2.404e+00 5.274e-01 -1.236e+00
103 1 -1.061e-02 -5.146e+00 -1.774e+00 1.951e+00 4.520e-01 -1.080e+00
104 1 5.312e+00 5.406e-02 1.747e+00 -3.650e-01 2.549e-01 -3.908e-01
105 1 5.309e+00 5.205e-02 -1.774e+00 -5.601e-01 3.857e-01 -6.046e-01
106 1 2.032e-02 5.311e+00 -1.773e+00 1.069e-03 9.348e-03 1.057e-02
107 1 2.203e-02 5.310e+00 1.745e+00 1.069e-03 9.348e-03 1.057e-02
108 1 1.768e+00 -5.191e+00 -1.470e-02 1.281e+00 4.067e-01 -7.216e-01
109 1 5.312e+00 -1.703e+00 -1.577e-02 -6.423e-01 4.409e-01 -6.948e-01
110 1 5.303e+00 1.804e+00 -1.449e-02 -3.377e-01 2.366e-01 -3.608e-01
111 1 1.778e+00 5.310e+00 -1.378e-02 1.069e-03 9.348e-03 1.057e-02
112 1 -3.488e+00 3.545e+00 -1.482e-02 1.069e-03 9.348e-03 1.057e-02
113 1 -1.744e+00 -1.732e+00 -3.208e-03 4.763e-01 1.164e-01 -2.185e-01
114 1 -1.745e+00 -1.733e+00 3.495e+00 6.634e-02 -2.598e-01 -1.108e+00
115 1 -3.509e+00 1.078e-02 3.501e+00 -5.325e-01 -3.863e-01 -7.880e-01
116 1 3.550e+00 -3.456e+00 -1.451e-02 -1.977e-01 2.940e-01 -4.646e-01
117 1 3.535e+00 3.552e+00 -1.614e-02 -5.383e-02 4.617e-02 -4.962e-02
118 1 -3.508e+00 1.124e-02 -1.037e-02 1.572e-01 4.165e-02 -7.567e-02
119 1 6.354e-03 -3.430e+00 3.456e+00 9.734e-01 8.993e-02 -9.882e-01
120 1 -3.503e+00 1.768e+00 1.746e+00 -2.513e-01 -1.455e-01 -2.434e-01
121 1 -3.507e+00 1.766e+00 -1.774e+00 1.069e-03 9.348e-03 1.057e-02
122 1 -1.742e+00 3.541e+00 1.747e+00 1.069e-03 9.348e-03 1.057e-02
123 1 -1.740e+00 3.539e+00 -1.774e+00 1.069e-03 9.348e-03 1.057e-02
124 1 1.789e+00 -3.446e+00 1.745e+00 1.230e+00 3.577e-01 -6.603e-01
125 1 3.561e+00 -1.701e+00 1.747e+00 -3.220e-01 2.261e-01 -3.436e-01
126 1 3.543e+00 -1.706e+00 -1.777e+00 -5.297e-01 3.653e-01 -5.713e-01
127 1 3.530e+00 1.791e+00 1.745e+00 -1.499e-01 1.106e-01 -1.549e-01
128 1 3.532e+00 1.793e+00 -1.773e+00 -2.198e-01 1.575e-01 -2.315e-01
129 1 1.773e+00 3.548e+00 1.747e+00 1.069e-03 9.348e-03 1.057e-02
130 1 1.770e+00 3.544e+00 -1.775e+00 1.069e-03 9.348e-03 1.057e-02
131 1 1.771e+00 -1.714e+00 3.498e+00 5.061e-01 1.170e-01 -2.612e-01
132 1 3.539e+00 4.444e-02 3.506e+00 -1.027e-01 7.894e-02 -1.032e-01
133 1 1.062e-02 3.542e+00 3.509e+00 1.069e-03 9.348e-03 1.057e-02
134 1 1.780e+00 -3.449e+00 -1.775e+00 6.735e-01 3.415e-01 -5.838e-01
135 1 6.129e-03 -3.430e+00 3.514e-02 1.916e+00 4.485e-01 -9.989e-01
136 1 1.761e+00 2.072e-02 1.746e+00 -2.843e-02 1.098e-02 -2.050e-02
137 1 1.765e+00 1.782e+00 3.506e+00 -1.624e-02 -1.270e-03 -6.847e-03
138 1 1.773e+00 -1.713e+00 -5.043e-03 6.431e-02 1.802e-01 -2.828e-01
139 1 -1.747e+00 -3.704e-03 1.747e+00 -2.303e-01 -2.328e-01 -6.062e-01
140 1 1.760e+00 2.328e-02 -1.774e+00 -1.029e-01 7.911e-02 -1.035e-01
141 1 6.453e-03 1.787e+00 1.747e+00 -2.166e-02 -4.597e-03 -1.230e-02
142 1 3.626e-03 1.767e+00 -1.773e+00 1.069e-03 9.348e-03 1.057e-02
143 1 1.765e+00 1.780e+00 -1.369e-02 -1.292e-02 1.873e-02 -4.770e-03
144 1 3.754e-04 2.974e-03 -5.938e-05 1.286e-01 3.572e-02 -5.985e-02
145 1 -5.503e-04 1.263e-03 3.493e+00 -1.820e-01 -1.570e-01 -3.806e-01
146 1 -1.751e+00 1.765e+00 3.505e+00 -2.839e-01 -1.655e-01 -2.762e-01
147 1 -9.289e-03 -1.751e+00 -1.774e+00 4.313e-01 1.340e-01 -2.204e-01
148 1 -1.760e+00 2.456e-03 -1.773e+00 1.689e-01 4.881e-02 -6.393e-02
149 1 3.540e+00 4.422e-02 -1.472e-02 -4.563e-01 3.161e-01 -4.908e-01
150 1 1.186e-02 3.543e+00 -1.512e-02 1.069e-03 9.348e-03 1.057e-02
151 1 -1.753e+00 1.767e+00 -1.380e-02 -8.083e-03 3.733e-03 1.357e-03
