ITEM: TIMESTEP
0
ITEM: NUMBER OF ATOMS
61
ITEM: BOX BOUNDS xy xz yz pp pp pp
                     0.00000000000000e+00 1.06200000000000e+01 0.00000000000000e+00
0.00000000000000e+00	1.06200000000000e+01	0.00000000000000e+00
0.00000000000000e+00	1.06200000000000e+01	0.00000000000000e+00
ITEM: ATOMS id type x y z DisplacementX DisplacementY DisplacementZ
1 1 1.919e-02 5.263e+00 -1.761e+00 3.771e-02 -4.959e-02 -1.322e-01
2 1 -5.285e+00 -2.236e-02 1.741e+00 -3.611e-02 3.283e-02 -8.765e-02
3 1 5.280e+00 -1.177e-02 1.766e+00 -3.983e-02 -4.270e-02 -3.816e-02
4 1 5.251e+00 -1.954e-02 -1.766e+00 3.437e-02 -3.911e-02 5.120e-03
5 1 -5.277e+00 -3.751e-02 -1.771e+00 6.350e-03 -7.065e-02 -6.984e-02
6 1 -1.604e-03 -5.294e+00 -1.750e+00 1.697e-02 -3.741e-02 -2.707e-02
7 1 -2.908e-03 -5.301e+00 1.751e+00 1.885e-03 -9.309e-03 -5.538e-02
8 1 1.279e-02 5.274e+00 1.749e+00 -3.008e-02 8.339e-02 7.673e-02
9 1 -5.272e+00 1.746e+00 -1.280e-02 -3.777e-02 -5.036e-02 -1.407e-01
10 1 5.292e+00 1.760e+00 -3.236e-03 -1.887e-02 -1.513e-02 -8.076e-02
11 1 -1.773e+00 -5.301e+00 -6.457e-03 -1.656e-02 -4.160e-02 -9.418e-02
12 1 1.742e+00 -5.299e+00 -2.216e-02 2.502e-03 -4.655e-02 -6.097e-02
13 1 -5.273e+00 -1.773e+00 -1.465e-03 -1.882e-02 -1.955e-02 -8.363e-02
14 1 5.271e+00 -1.772e+00 -4.024e-02 -1.560e-02 -5.831e-02 -1.036e-01
15 1 -1.723e+00 5.262e+00 -1.294e-02 5.940e-03 -8.296e-03 -9.395e-02
16 1 1.774e+00 5.283e+00 -2.379e-02 3.712e-02 -1.806e-02 -4.861e-02
17 1 3.512e+00 -3.530e+00 -2.825e-02 -9.987e-03 -7.139e-02 -6.599e-02
18 1 -3.515e+00 -3.532e+00 -2.184e-02 -3.004e-02 -3.091e-02 -1.128e-01
19 1 3.526e+00 3.513e+00 -2.056e-02 -2.660e-02 -3.491e-02 -9.184e-02
20 1 -3.522e+00 3.491e+00 -3.881e-03 -6.834e-02 -2.806e-02 -9.740e-02
21 1 -1.737e+00 3.505e+00 1.752e+00 -1.316e-02 1.180e-03 2.129e-02
22 1 1.743e+00 3.512e+00 1.743e+00 9.511e-03 -4.175e-02 -1.408e-02
23 1 -3.356e-03 3.520e+00 3.484e+00 -4.854e-03 -1.971e-02 -5.611e-02
24 1 -1.747e+00 3.495e+00 -1.772e+00 2.881e-02 7.388e-03 5.177e-03
25 1 1.770e+00 3.490e+00 -1.775e+00 3.523e-02 -8.689e-03 1.219e-03
26 1 -1.777e+00 -3.525e+00 -1.766e+00 -8.745e-03 -1.989e-02 -5.740e-02
27 1 1.757e+00 -3.538e+00 -1.756e+00 -1.740e-02 9.277e-03 -1.866e-02
28 1 -1.760e+00 -3.534e+00 1.740e+00 -4.439e-02 -3.766e-02 2.468e-02
29 1 1.754e+00 -3.534e+00 1.739e+00 3.079e-02 -1.640e-03 -1.875e-02
30 1 3.511e+00 -1.764e+00 -1.765e+00 -1.079e-02 -1.627e-03 -2.050e-02
31 1 -3.538e+00 -1.768e+00 -1.789e+00 4.930e-03 -2.820e-02 -1.246e-02
32 1 -3.516e+00 -1.793e+00 1.737e+00 -4.509e-02 -1.623e-02 3.995e-02
33 1 3.487e+00 -1.770e+00 1.721e+00 -2.852e-02 -3.781e-03 1.765e-02
34 1 3.511e+00 1.759e+00 -1.777e+00 -1.070e-02 -2.449e-03 -4.479e-02
35 1 -3.526e+00 1.753e+00 -1.770e+00 -1.759e-02 -3.781e-02 4.994e-03
36 1 -3.529e+00 1.750e+00 1.748e+00 2.132e-02 -5.873e-03 1.116e-01
37 1 3.535e+00 1.760e+00 1.762e+00 -9.037e-03 -2.185e-02 1.000e-01
38 1 -3.513e+00 -4.497e-03 3.512e+00 -4.543e-02 -8.183e-03 -1.718e-02
39 1 3.510e+00 -1.773e-02 3.503e+00 -1.262e-02 2.449e-02 -1.932e-02
40 1 -1.120e-02 -3.530e+00 3.510e+00 -5.852e-02 3.048e-02 -8.130e-02
41 1 1.744e+00 1.759e+00 3.484e+00 -1.521e-02 -3.042e-02 2.285e-02
42 1 -1.743e+00 1.753e+00 3.493e+00 2.031e-02 -4.975e-02 -5.749e-02
43 1 4.417e-03 6.390e-03 7.402e-03 2.375e-02 4.842e-01 7.941e-01
44 1 4.432e-03 -2.246e-02 3.490e+00 3.515e-02 2.496e-02 -3.059e-04
45 1 1.740e+00 -2.387e-03 1.751e+00 -3.243e-02 -6.025e-03 -4.782e-02
46 1 -1.742e+00 1.330e-02 1.747e+00 -3.903e-02 -3.534e-02 8.160e-03
47 1 1.765e+00 -1.751e+00 3.519e+00 3.499e-02 3.473e-02 4.035e-02
48 1 -1.762e+00 -1.769e+00 3.512e+00 2.958e-03 -3.195e-02 3.949e-02
49 1 1.210e-02 3.513e+00 -7.876e-03 1.402e-02 1.124e-02 4.384e-02
50 1 -1.738e+00 1.740e+00 -1.953e-03 -2.362e-02 -1.859e-02 1.901e-01
51 1 1.759e+00 1.773e+00 1.695e-03 -2.510e-02 5.001e-03 1.339e-01
52 1 1.728e-02 1.754e+00 -1.775e+00 -8.096e-02 1.609e-01 1.214e-01
53 1 -1.760e+00 -9.477e-03 -1.768e+00 -6.545e-02 1.668e-01 1.575e-01
54 1 1.753e+00 -1.610e-03 -1.771e+00 -8.410e-02 1.789e-01 7.495e-02
55 1 -4.229e-03 -1.757e+00 -1.775e+00 -1.043e-01 1.814e-01 3.446e-02
56 1 2.465e-03 -1.809e+00 1.749e+00 -3.284e-02 5.103e-02 9.700e-02
57 1 -3.510e+00 -1.218e-02 5.636e-03 4.452e-02 2.145e-02 2.056e-01
58 1 3.498e+00 -1.630e-02 -2.815e-02 5.221e-03 5.787e-03 1.261e-01
59 1 -6.580e-03 -3.543e+00 -3.954e-04 2.160e-02 6.779e-03 1.095e-01
60 1 -1.754e+00 -1.777e+00 1.751e-03 4.079e-02 2.530e-02 2.763e-01
61 1 1.748e+00 -1.765e+00 -5.310e-03 1.428e-02 1.176e-02 2.717e-01
ITEM: TIMESTEP
0
ITEM: NUMBER OF ATOMS
61
ITEM: BOX BOUNDS xy xz yz pp pp pp
                     0.00000000000000e+00 1.06200000000000e+01 0.00000000000000e+00
0.00000000000000e+00	1.06200000000000e+01	0.00000000000000e+00
0.00000000000000e+00	1.06200000000000e+01	0.00000000000000e+00
ITEM: ATOMS id type x y z DisplacementX DisplacementY DisplacementZ
62 1 4.401e-03 -5.282e+00 1.754e+00 4.781e-02 -3.121e-02 1.114e-02
63 1 5.285e+00 -5.415e-04 1.755e+00 6.076e-02 -2.721e-02 3.918e-02
64 1 5.270e+00 -9.832e-03 -1.766e+00 4.733e-02 4.536e-03 5.938e-02
65 1 1.880e-02 -5.300e+00 -1.768e+00 1.186e-02 -2.216e-02 -2.659e-02
66 1 -5.264e+00 -8.044e-03 1.746e+00 -1.713e-03 4.439e-02 2.819e-02
67 1 -5.269e+00 -1.987e-02 -1.767e+00 5.916e-02 -1.127e-01 1.992e-02
68 1 2.744e-02 5.296e+00 1.758e+00 2.664e-02 1.263e-02 -1.060e-02
69 1 2.742e-02 5.277e+00 -1.773e+00 1.395e-01 -6.631e-02 2.881e-03
70 1 -1.734e+00 5.292e+00 -3.002e-02 1.662e-02 1.307e-03 2.994e-03
71 1 -5.277e+00 1.758e+00 -5.410e-03 -2.425e-02 5.611e-02 -2.396e-02
72 1 -3.478e+00 3.500e+00 3.002e-03 6.049e-02 -5.777e-02 6.761e-03
73 1 1.752e+00 -5.280e+00 7.168e-03 2.809e-02 -4.111e-02 -8.254e-03
74 1 5.293e+00 -1.773e+00 -1.576e-02 3.373e-02 -5.426e-03 6.322e-02
75 1 -1.755e+00 -5.303e+00 5.513e-03 1.838e-02 -2.398e-02 -1.532e-02
76 1 5.290e+00 1.733e+00 2.760e-03 7.537e-02 -4.148e-02 4.530e-02
77 1 -5.270e+00 -1.767e+00 1.124e-02 5.245e-02 -3.816e-02 4.043e-02
78 1 1.805e+00 5.263e+00 -4.889e-03 8.174e-02 -7.715e-03 1.570e-02
79 1 3.511e+00 -3.530e+00 -6.968e-04 5.436e-02 -4.095e-02 4.221e-02
80 1 3.538e+00 3.529e+00 -2.963e-03 9.400e-02 -3.573e-02 2.867e-02
81 1 -3.525e+00 -3.529e+00 -1.340e-02 3.659e-02 -6.490e-02 4.121e-02
82 1 -1.748e+00 3.497e+00 -1.729e+00 3.697e-02 9.604e-03 -6.484e-02
83 1 -1.730e+00 3.512e+00 1.756e+00 2.729e-02 -7.064e-02 2.856e-02
84 1 -3.481e+00 1.762e+00 -1.744e+00 3.307e-02 -6.112e-03 2.696e-02
85 1 -3.485e+00 1.751e+00 1.742e+00 3.061e-03 -2.973e-02 9.494e-03
86 1 -3.511e+00 -1.789e+00 -1.755e+00 2.397e-02 -7.730e-02 6.370e-02
87 1 -3.513e+00 -1.772e+00 1.756e+00 -3.031e-02 1.462e-03 -3.801e-02
88 1 1.795e+00 3.518e+00 -1.765e+00 -1.468e-02 -5.778e-02 4.848e-03
89 1 1.763e+00 3.503e+00 1.774e+00 -2.885e-02 1.180e-02 -2.681e-02
90 1 1.763e+00 -3.530e+00 1.764e+00 -5.613e-02 6.684e-02 4.731e-02
91 1 3.524e+00 -1.772e+00 -1.764e+00 8.223e-02 -1.470e-01 2.414e-02
92 1 3.533e+00 -1.775e+00 1.776e+00 -7.395e-02 6.798e-02 6.987e-02
93 1 1.750e+00 -3.537e+00 -1.745e+00 7.201e-02 -1.733e-01 -1.319e-02
94 1 -1.728e+00 -3.545e+00 1.763e+00 6.048e-02 -9.606e-02 4.229e-03
95 1 3.530e+00 1.748e+00 1.747e+00 8.087e-02 -1.125e-01 1.134e-02
96 1 3.525e+00 1.752e+00 -1.750e+00 4.221e-04 3.053e-02 6.431e-02
97 1 -1.739e+00 -3.546e+00 -1.781e+00 -2.988e-02 6.912e-02 4.143e-03
98 1 -3.800e-03 -3.528e+00 3.508e+00 5.128e-02 1.204e-02 -1.004e-03
99 1 3.529e+00 -2.403e-02 3.510e+00 2.788e-02 -3.534e-02 1.828e-02
100 1 -3.501e+00 1.645e-02 -3.512e+00 2.446e-02 -3.930e-02 6.838e-02
101 1 3.117e-02 3.521e+00 -3.516e+00 2.915e-02 -2.489e-02 -2.918e-02
102 1 1.055e-02 3.735e-03 3.853e-03 -6.912e-01 5.312e-01 3.380e-02
103 1 -1.731e+00 -1.756e+00 3.520e+00 4.611e-02 -6.596e-02 -8.669e-02
104 1 1.763e+00 1.763e+00 3.529e+00 8.042e-02 -2.756e-02 -1.003e-01
105 1 1.754e+00 -1.769e+00 -3.525e+00 3.286e-02 -3.272e-02 6.541e-03
106 1 -1.748e+00 -6.214e-04 1.754e+00 -4.532e-02 6.008e-02 1.411e-02
107 1 -1.733e+00 7.398e-04 -1.753e+00 -1.739e-01 1.480e-01 6.221e-02
108 1 1.120e-02 1.761e+00 1.748e+00 -6.218e-02 6.134e-02 4.478e-02
109 1 1.853e-02 1.748e+00 -1.744e+00 -1.464e-01 1.422e-01 9.209e-02
110 1 -3.500e+00 8.915e-03 -8.149e-03 -1.385e-01 1.401e-02 1.096e-02
111 1 2.093e-02 3.512e+00 1.846e-03 -1.196e-01 5.116e-02 5.116e-03
112 1 -1.728e+00 1.740e+00 3.513e+00 2.654e-02 -2.212e-02 2.869e-02
113 1 8.888e-03 -9.109e-03 3.516e+00 -3.546e-03 7.400e-02 -6.234e-02
114 1 1.955e-03 -1.788e+00 -1.771e+00 -1.452e-01 1.619e-01 3.579e-02
115 1 1.514e-03 -1.772e+00 1.767e+00 -1.613e-01 9.540e-02 -2.140e-02
116 1 1.763e+00 -1.002e-02 1.762e+00 -1.862e-01 9.694e-02 -7.698e-03
117 1 1.767e+00 -1.083e-02 -1.759e+00 -1.834e-01 1.677e-01 3.674e-02
118 1 1.065e-02 -3.549e+00 -2.214e-02 -7.237e-02 3.426e-03 6.197e-03
119 1 3.529e+00 -6.429e-03 1.571e-03 -8.022e-02 3.420e-02 7.682e-02
120 1 1.755e+00 -1.774e+00 -3.980e-03 -1.956e-01 1.172e-01 8.774e-02
121 1 -1.764e+00 -1.782e+00 -6.443e-03 -2.681e-01 1.104e-01 4.993e-02
122 1 1.787e+00 1.747e+00 2.616e-03 -2.258e-01 1.427e-01 6.631e-02
ITEM: TIMESTEP
0
ITEM: NUMBER OF ATOMS
61
ITEM: BOX BOUNDS xy xz yz pp pp pp
                     0.00000000000000e+00 1.06200000000000e+01 0.00000000000000e+00
0.00000000000000e+00	1.06200000000000e+01	0.00000000000000e+00
0.00000000000000e+00	1.06200000000000e+01	0.00000000000000e+00
ITEM: ATOMS id type x y z DisplacementX DisplacementY DisplacementZ
123 1 5.251e+00 -7.142e-03 -1.773e+00 -5.212e-02 1.609e-02 -4.967e-02
124 1 -3.320e-02 -5.286e+00 1.754e+00 -3.334e-02 3.530e-02 -7.090e-02
125 1 3.179e-03 5.289e+00 1.742e+00 -7.408e-02 8.058e-02 -6.289e-02
126 1 1.851e-02 5.287e+00 -1.760e+00 -1.950e-02 5.460e-02 -7.640e-02
127 1 -1.836e-02 -5.292e+00 -1.754e+00 -1.029e-01 -4.147e-02 -1.970e-01
128 1 -5.289e+00 -2.210e-03 -1.782e+00 -8.625e-02 1.886e-02 -9.876e-02
129 1 -5.292e+00 2.451e-03 1.744e+00 -2.121e-02 -2.624e-03 -2.973e-02
130 1 5.292e+00 -1.311e-02 1.752e+00 6.229e-02 3.983e-02 2.849e-02
131 1 1.745e+00 -5.297e+00 -9.061e-03 -9.156e-02 7.907e-03 -1.614e-01
132 1 1.745e+00 5.288e+00 -8.116e-03 -4.899e-02 5.457e-02 -8.285e-02
133 1 -5.307e+00 -1.761e+00 -1.987e-02 -3.586e-02 -3.949e-02 -2.558e-02
134 1 -5.288e+00 1.761e+00 -2.090e-02 1.664e-03 2.955e-02 -3.741e-02
135 1 -1.792e+00 -5.294e+00 -2.412e-02 -7.055e-02 1.580e-02 -9.933e-02
136 1 -1.759e+00 5.288e+00 -9.539e-03 -1.343e-02 4.064e-02 -9.588e-02
137 1 5.233e+00 -1.759e+00 -6.123e-03 -3.721e-02 1.428e-02 -2.858e-02
138 1 5.261e+00 1.764e+00 -2.036e-02 -1.129e-01 -4.648e-03 -1.237e-01
139 1 -3.539e+00 3.507e+00 -1.938e-02 -3.967e-02 3.120e-02 -9.126e-02
140 1 -3.551e+00 -3.529e+00 -1.199e-02 -9.944e-02 -7.855e-03 -1.145e-01
141 1 3.512e+00 3.523e+00 -1.138e-02 -9.173e-02 8.012e-02 -4.017e-02
142 1 3.509e+00 -3.517e+00 -2.336e-02 -8.363e-02 8.237e-02 -6.550e-02
143 1 3.474e+00 -1.739e+00 1.751e+00 5.570e-02 -6.193e-02 8.885e-04
144 1 3.498e+00 1.760e+00 1.754e+00 6.721e-02 -2.686e-02 4.612e-02
145 1 3.465e+00 -1.748e-02 3.498e+00 -1.131e-01 4.710e-02 -8.477e-02
146 1 3.503e+00 -1.751e+00 -1.780e+00 1.476e-02 -4.178e-02 -4.108e-02
147 1 3.507e+00 1.737e+00 -1.776e+00 -1.464e-02 -1.944e-02 -5.107e-02
148 1 -3.536e+00 -1.746e+00 -1.781e+00 -3.129e-03 -2.743e-02 5.254e-03
149 1 -3.535e+00 1.761e+00 -1.783e+00 5.878e-02 1.812e-02 3.497e-02
150 1 -3.533e+00 -1.760e+00 1.742e+00 5.338e-02 -3.337e-03 1.312e-02
151 1 -3.540e+00 1.759e+00 1.750e+00 3.498e-02 3.888e-02 -3.871e-02
152 1 -1.771e+00 3.528e+00 -1.782e+00 8.795e-03 -2.257e-02 -3.461e-02
153 1 -1.776e+00 -3.542e+00 -1.770e+00 -2.979e-02 -2.319e-02 -6.655e-02
154 1 -1.774e+00 -3.538e+00 1.756e+00 1.130e-01 -5.399e-03 4.538e-02
155 1 -1.788e+00 3.501e+00 1.747e+00 7.660e-02 -2.518e-02 -4.552e-02
156 1 1.755e+00 3.539e+00 -1.785e+00 -9.774e-03 8.016e-03 -9.222e-02
157 1 1.755e+00 -3.515e+00 -1.770e+00 3.195e-02 -3.113e-02 -2.448e-02
158 1 1.743e+00 -3.549e+00 1.764e+00 2.666e-02 1.918e-03 1.224e-01
159 1 1.755e+00 3.541e+00 1.734e+00 2.945e-02 2.840e-02 7.257e-02
160 1 -3.461e-02 -3.524e+00 3.510e+00 -4.476e-02 1.972e-02 -7.216e-02
161 1 -7.789e-03 3.524e+00 3.501e+00 2.526e-02 6.907e-03 -2.026e-03
162 1 -3.535e+00 -8.494e-03 3.494e+00 7.795e-03 4.816e-02 -1.325e-01
163 1 1.748e+00 1.766e+00 3.507e+00 -6.545e-02 -3.600e-02 -6.378e-02
164 1 1.758e+00 -1.748e+00 3.493e+00 -4.709e-02 1.195e-02 2.251e-03
165 1 -3.245e-04 -1.212e-02 6.724e-03 6.195e-01 3.394e-02 7.154e-01
166 1 8.734e-03 5.045e-03 3.479e+00 2.856e-02 -3.654e-02 4.970e-02
167 1 8.265e-03 1.749e+00 1.745e+00 1.437e-02 -1.108e-02 5.686e-02
168 1 -1.615e-03 -1.760e+00 1.746e+00 2.891e-02 -2.841e-02 5.792e-02
169 1 -1.765e+00 1.733e+00 3.511e+00 -4.126e-02 -1.092e-02 -7.857e-02
170 1 -1.784e+00 -1.770e+00 3.499e+00 -6.000e-02 1.235e-02 -1.358e-01
171 1 3.491e+00 1.307e-02 3.260e-03 8.237e-02 -4.704e-02 1.136e-01
172 1 1.738e+00 -1.750e+00 -7.042e-03 1.551e-01 5.108e-02 2.019e-01
173 1 1.765e+00 1.772e+00 1.429e-02 1.184e-01 -4.684e-02 8.647e-02
174 1 1.735e+00 -7.859e-03 -1.775e+00 2.327e-01 -4.749e-03 2.397e-01
175 1 -1.140e-02 -1.777e+00 -1.778e+00 1.335e-01 2.121e-02 1.175e-01
176 1 -1.808e-02 1.753e+00 -1.782e+00 1.564e-01 1.961e-03 1.298e-01
177 1 -1.756e+00 1.552e-03 -1.758e+00 8.494e-02 7.208e-02 1.062e-01
178 1 -1.803e+00 -5.661e-03 1.758e+00 2.042e-01 2.936e-03 1.508e-01
179 1 -1.077e-02 -3.521e+00 -2.859e-02 1.883e-01 -6.049e-02 1.387e-01
180 1 -1.417e-02 3.513e+00 -2.548e-02 2.027e-01 -8.903e-02 1.068e-01
181 1 -3.531e+00 1.784e-03 -1.442e-02 1.046e-01 -6.099e-02 8.780e-02
182 1 -1.771e+00 -1.777e+00 -1.222e-02 1.820e-01 7.439e-02 2.137e-01
183 1 -1.761e+00 1.750e+00 -1.462e-02 2.181e-01 -2.029e-02 1.766e-01
ITEM: TIMESTEP
0
ITEM: NUMBER OF ATOMS
61
ITEM: BOX BOUNDS xy xz yz pp pp pp
                     0.00000000000000e+00 1.06200000000000e+01 0.00000000000000e+00
0.00000000000000e+00	1.06200000000000e+01	0.00000000000000e+00
0.00000000000000e+00	1.06200000000000e+01	0.00000000000000e+00
ITEM: ATOMS id type x y z DisplacementX DisplacementY DisplacementZ
184 1 -5.252e+00 -1.186e-03 -1.766e+00 9.009e-02 6.352e-02 -1.660e-01
185 1 7.697e-03 -5.294e+00 1.760e+00 5.296e-02 3.287e-02 -8.844e-02
186 1 3.256e-02 5.307e+00 1.744e+00 2.164e-02 3.182e-02 -7.380e-02
187 1 4.519e-02 5.290e+00 -1.781e+00 9.759e-02 2.830e-02 -9.338e-02
188 1 1.164e-02 -5.275e+00 -1.775e+00 1.236e-01 2.679e-02 -9.697e-02
189 1 5.293e+00 -9.211e-03 -1.777e+00 6.023e-02 -3.125e-02 5.998e-02
190 1 5.291e+00 -1.132e-02 1.751e+00 -2.288e-02 7.209e-02 -2.964e-02
191 1 -5.284e+00 1.799e-03 1.749e+00 -2.650e-02 6.247e-02 3.857e-02
192 1 -1.755e+00 -5.269e+00 -2.136e-02 7.645e-02 1.145e-02 -1.324e-01
193 1 -1.731e+00 5.269e+00 -2.849e-02 7.698e-02 3.237e-02 -7.428e-02
194 1 5.254e+00 -1.784e+00 -2.993e-02 3.852e-02 1.884e-02 5.216e-02
195 1 5.281e+00 1.756e+00 -1.886e-02 3.509e-02 2.400e-02 4.905e-02
196 1 1.775e+00 -5.273e+00 -1.524e-02 4.397e-02 -4.547e-03 -7.694e-02
197 1 1.793e+00 5.275e+00 -1.295e-02 3.280e-02 2.666e-02 -5.853e-02
198 1 -5.259e+00 -1.776e+00 -2.419e-02 8.337e-02 4.540e-02 -9.029e-02
199 1 -5.236e+00 1.753e+00 -2.176e-02 9.359e-02 3.825e-02 -7.528e-02
200 1 3.512e+00 3.504e+00 -3.645e-02 2.698e-03 -2.272e-02 1.588e-04
201 1 3.502e+00 -3.530e+00 -1.130e-02 1.239e-02 -3.847e-02 -2.269e-02
202 1 -3.494e+00 3.508e+00 4.800e-03 1.293e-02 -3.160e-02 -2.160e-02
203 1 -3.511e+00 -3.521e+00 -1.826e-02 5.012e-03 -8.988e-03 -1.642e-02
204 1 -3.512e+00 -1.772e+00 1.739e+00 -5.407e-03 -2.022e-02 3.124e-02
205 1 -3.486e+00 1.738e+00 1.745e+00 -1.741e-02 -1.721e-02 3.303e-02
206 1 -3.477e+00 -1.124e-02 3.488e+00 4.451e-02 -1.888e-02 -1.020e-01
207 1 -3.494e+00 -1.757e+00 -1.781e+00 1.724e-02 -2.157e-02 -4.712e-03
208 1 -3.485e+00 1.777e+00 -1.785e+00 -2.187e-02 -1.289e-02 -1.515e-02
209 1 3.516e+00 -1.801e+00 -1.769e+00 -5.953e-03 -5.854e-02 -7.297e-03
210 1 3.513e+00 1.747e+00 -1.795e+00 6.348e-03 -2.674e-02 5.639e-02
211 1 3.518e+00 -1.759e+00 1.756e+00 -7.492e-02 -6.776e-02 -7.556e-03
212 1 3.517e+00 1.742e+00 1.747e+00 -7.623e-02 -5.960e-02 -7.268e-03
213 1 1.781e+00 3.509e+00 -1.783e+00 -1.315e-02 2.597e-02 5.202e-02
214 1 1.753e+00 -3.535e+00 -1.781e+00 -1.141e-02 -3.063e-03 8.573e-03
215 1 1.743e+00 -3.522e+00 1.750e+00 -2.217e-02 -3.517e-02 5.372e-02
216 1 1.771e+00 3.531e+00 1.727e+00 -2.375e-02 -4.452e-02 5.715e-02
217 1 -1.727e+00 3.528e+00 -1.763e+00 4.010e-02 -1.679e-02 3.738e-03
218 1 -1.749e+00 -3.506e+00 -1.766e+00 7.004e-02 -2.569e-02 5.756e-03
219 1 -1.748e+00 -3.546e+00 1.761e+00 -1.993e-02 9.107e-03 4.195e-02
220 1 -1.716e+00 3.526e+00 1.755e+00 -1.084e-02 -2.883e-03 7.242e-02
221 1 -2.000e-02 -3.541e+00 3.513e+00 -2.670e-02 -2.777e-02 2.691e-02
222 1 3.870e-02 3.503e+00 3.503e+00 -4.010e-02 3.251e-03 2.912e-02
223 1 3.524e+00 -1.333e-02 3.511e+00 -1.235e-01 -4.137e-02 3.879e-03
224 1 -1.745e+00 1.769e+00 3.495e+00 5.510e-02 5.315e-02 -7.763e-02
225 1 -1.751e+00 -1.746e+00 3.479e+00 4.516e-02 8.171e-02 -7.130e-02
226 1 3.472e-04 8.366e-03 1.010e-02 -5.038e-01 1.706e-01 5.417e-01
227 1 4.674e-03 1.548e-02 3.501e+00 4.891e-02 -9.702e-04 5.715e-02
228 1 1.712e-02 1.745e+00 1.743e+00 -5.089e-02 -2.622e-02 4.611e-02
229 1 4.859e-03 -1.743e+00 1.753e+00 -3.640e-02 -2.744e-02 4.594e-02
230 1 1.766e+00 1.761e+00 3.492e+00 4.822e-02 -1.142e-02 -3.678e-02
231 1 1.757e+00 -1.762e+00 3.511e+00 3.300e-02 1.161e-02 -3.825e-02
232 1 -3.489e+00 6.693e-03 -7.646e-03 -5.427e-02 -5.857e-02 7.750e-02
233 1 -1.741e+00 -1.756e+00 -1.616e-02 -2.063e-01 -4.566e-02 1.856e-01
234 1 -1.747e+00 1.754e+00 6.406e-03 -1.572e-01 -9.654e-02 1.641e-01
235 1 -1.733e+00 6.285e-03 -1.781e+00 -2.509e-01 -1.615e-02 2.374e-01
236 1 8.138e-03 -1.766e+00 -1.779e+00 -2.273e-01 2.617e-02 1.666e-01
237 1 9.947e-03 1.757e+00 -1.768e+00 -2.354e-01 1.846e-02 1.667e-01
238 1 1.761e+00 -2.318e-03 -1.771e+00 -2.103e-01 3.081e-02 1.703e-01
239 1 1.775e+00 1.706e-03 1.737e+00 -1.476e-01 -4.146e-02 1.220e-01
240 1 -1.978e-02 -3.520e+00 -1.016e-02 -9.677e-02 -3.602e-02 1.009e-01
241 1 3.163e-02 3.521e+00 -7.725e-03 -6.639e-02 -4.352e-02 1.061e-01
242 1 3.528e+00 -8.154e-03 -7.682e-03 -3.720e-02 -5.397e-02 5.310e-02
243 1 1.761e+00 -1.768e+00 -8.200e-03 -1.957e-01 -4.256e-02 1.711e-01
244 1 1.765e+00 1.758e+00 -2.106e-02 -1.554e-01 -5.221e-02 1.870e-01
ITEM: TIMESTEP
0
ITEM: NUMBER OF ATOMS
61
ITEM: BOX BOUNDS xy xz yz pp pp pp
                     0.00000000000000e+00 1.06200000000000e+01 0.00000000000000e+00
0.00000000000000e+00	1.06200000000000e+01	0.00000000000000e+00
0.00000000000000e+00	1.06200000000000e+01	0.00000000000000e+00
ITEM: ATOMS id type x y z DisplacementX DisplacementY DisplacementZ
245 1 -5.321e+00 4.833e-04 1.767e+00 4.862e-02 -2.092e-02 4.824e-02
246 1 -2.196e-03 5.291e+00 1.760e+00 -5.792e-02 5.732e-02 4.510e-02
247 1 -2.823e-02 5.289e+00 -1.759e+00 -4.520e-02 6.557e-02 -4.010e-02
248 1 -5.319e+00 -4.445e-03 -1.763e+00 -5.670e-02 1.043e-01 -4.221e-02
249 1 -1.567e-02 -5.283e+00 1.765e+00 -7.201e-02 6.018e-03 6.506e-02
250 1 -2.647e-02 -5.278e+00 -1.757e+00 -3.911e-02 2.933e-02 -1.204e-02
251 1 5.260e+00 7.072e-03 1.749e+00 -4.265e-02 2.947e-02 -5.262e-04
252 1 5.272e+00 9.784e-03 -1.747e+00 -7.537e-02 7.647e-02 -4.967e-02
253 1 5.290e+00 -1.751e+00 5.581e-03 -1.551e-02 -9.311e-03 1.820e-02
254 1 1.721e+00 -5.301e+00 -1.306e-03 -6.819e-02 -1.054e-02 6.726e-02
255 1 3.484e+00 -3.494e+00 -2.303e-03 -2.039e-02 3.870e-02 1.371e-02
256 1 -5.292e+00 1.764e+00 5.139e-04 5.289e-03 1.335e-02 2.173e-03
257 1 -1.788e+00 5.278e+00 6.809e-03 -3.025e-02 4.035e-02 3.671e-02
258 1 -5.284e+00 -1.758e+00 -3.114e-03 1.935e-03 4.164e-02 1.175e-02
259 1 1.766e+00 5.288e+00 -8.466e-03 -3.947e-02 2.722e-02 2.149e-02
260 1 -1.784e+00 -5.274e+00 -1.811e-02 -7.674e-02 3.710e-02 4.534e-02
261 1 5.259e+00 1.785e+00 -1.836e-02 -4.990e-02 2.536e-02 1.049e-02
262 1 -3.539e+00 3.525e+00 -1.243e-02 -4.321e-02 6.024e-02 -1.831e-02
263 1 3.515e+00 3.542e+00 -6.522e-03 -6.595e-02 5.026e-02 -1.596e-02
264 1 -3.547e+00 -3.516e+00 -1.847e-03 -2.242e-02 5.635e-02 -4.777e-02
265 1 3.483e+00 -1.763e+00 -1.759e+00 -1.735e-02 1.208e-02 1.291e-03
266 1 3.489e+00 -1.744e+00 1.740e+00 3.481e-02 -8.566e-03 1.004e-02
267 1 1.724e+00 -3.492e+00 -1.738e+00 -4.525e-02 -3.118e-02 -5.577e-02
268 1 1.744e+00 -3.507e+00 1.740e+00 -8.143e-02 1.530e-02 -2.124e-02
269 1 -1.785e+00 -3.501e+00 -1.754e+00 -5.657e-03 -4.006e-02 -8.962e-02
270 1 -1.774e+00 -3.519e+00 1.759e+00 -4.917e-02 2.839e-02 -2.907e-02
271 1 3.514e+00 1.786e+00 -1.758e+00 1.253e-02 -4.554e-02 -2.400e-03
272 1 3.517e+00 1.766e+00 1.740e+00 -1.808e-02 2.645e-02 4.624e-04
273 1 -3.558e+00 1.757e+00 1.755e+00 3.140e-02 -4.045e-02 -1.747e-02
274 1 -1.790e+00 3.536e+00 -1.748e+00 1.721e-02 -1.258e-02 -8.355e-03
275 1 -1.768e+00 3.534e+00 1.757e+00 3.781e-02 -3.303e-03 1.611e-03
276 1 -3.524e+00 1.753e+00 -1.770e+00 -1.774e-02 2.690e-02 -1.963e-02
277 1 -3.529e+00 -1.758e+00 1.750e+00 4.353e-02 4.922e-03 -2.255e-02
278 1 1.743e+00 3.542e+00 1.764e+00 2.005e-03 1.847e-02 -4.367e-03
279 1 1.762e+00 3.528e+00 -1.763e+00 4.935e-02 -1.080e-01 1.763e-03
280 1 -3.536e+00 -1.762e+00 -1.762e+00 -3.433e-03 2.013e-02 -4.368e-02
281 1 -3.544e+00 1.620e-02 3.523e+00 2.804e-03 1.255e-01 -1.056e-02
282 1 -1.247e-02 3.524e+00 -3.524e+00 -2.512e-02 8.332e-02 -2.482e-02
283 1 -1.263e-02 -3.520e+00 -3.526e+00 5.402e-03 1.195e-01 -1.619e-02
284 1 3.493e+00 -9.419e-03 -3.524e+00 -2.812e-02 8.042e-02 -1.943e-02
285 1 -6.639e-03 4.376e-03 -2.009e-03 6.276e-01 -6.720e-01 2.183e-01
286 1 -1.768e+00 -1.753e+00 3.509e+00 4.657e-02 1.749e-01 -3.247e-02
287 1 1.743e+00 1.765e+00 -3.521e+00 -3.856e-02 1.013e-01 -2.938e-02
288 1 -1.774e+00 1.787e+00 3.516e+00 1.049e-02 1.182e-01 -1.002e-01
289 1 -1.090e-02 -1.756e+00 1.748e+00 1.586e-01 -7.721e-02 -3.847e-02
290 1 -2.652e-03 -1.739e+00 -1.747e+00 1.812e-01 -2.288e-01 6.277e-02
291 1 1.739e+00 -8.306e-03 1.748e+00 1.488e-01 -7.511e-02 -7.424e-02
292 1 1.741e+00 2.175e-03 -1.744e+00 1.131e-01 -2.114e-01 2.325e-02
293 1 -1.887e-02 -3.497e+00 1.189e-02 7.216e-02 -1.923e-01 -4.862e-03
294 1 3.512e+00 -5.226e-03 4.396e-03 1.400e-01 -1.692e-01 9.019e-02
295 1 1.744e+00 -1.750e+00 3.523e+00 7.812e-02 1.247e-01 -4.666e-02
296 1 -1.357e-02 1.039e-02 3.521e+00 1.831e-01 -3.510e-02 -1.075e-01
297 1 -1.769e+00 1.603e-02 -1.761e+00 2.430e-01 -3.171e-01 6.125e-02
298 1 -1.776e+00 1.161e-02 1.745e+00 2.090e-01 -1.458e-01 -4.821e-02
299 1 -5.502e-03 1.756e+00 1.771e+00 9.761e-02 -4.230e-02 -8.747e-02
300 1 -1.736e-02 1.759e+00 -1.734e+00 7.653e-02 -1.422e-01 1.381e-02
301 1 -3.528e+00 -2.300e-03 -1.856e-03 1.249e-01 -2.274e-01 -3.007e-02
302 1 -3.610e-03 3.536e+00 7.529e-03 1.301e-01 -2.177e-01 6.822e-02
303 1 -1.773e+00 1.772e+00 2.903e-03 5.148e-02 -9.082e-02 -3.868e-02
304 1 -1.785e+00 -1.746e+00 5.169e-03 1.706e-01 -1.367e-01 1.186e-02
305 1 1.756e+00 1.792e+00 1.937e-04 -1.133e-02 -9.491e-04 -6.178e-02
ITEM: TIMESTEP
0
ITEM: NUMBER OF ATOMS
61
ITEM: BOX BOUNDS xy xz yz pp pp pp
                     0.00000000000000e+00 1.06200000000000e+01 0.00000000000000e+00
0.00000000000000e+00	1.06200000000000e+01	0.00000000000000e+00
0.00000000000000e+00	1.06200000000000e+01	0.00000000000000e+00
ITEM: ATOMS id type x y z DisplacementX DisplacementY DisplacementZ
306 1 -1.463e-02 -5.265e+00 -1.765e+00 -6.513e-02 2.298e-02 -1.437e-01
307 1 -5.299e+00 -8.974e-03 1.731e+00 -9.987e-03 1.244e-02 -8.652e-02
308 1 5.261e+00 -1.314e-03 1.747e+00 -2.621e-02 -2.052e-03 -7.940e-02
309 1 5.261e+00 1.175e-02 -1.766e+00 -4.303e-02 3.263e-02 -9.487e-02
310 1 -5.272e+00 1.796e-02 -1.772e+00 -4.091e-02 2.908e-02 -9.318e-02
311 1 -3.079e-03 5.305e+00 -1.794e+00 -3.409e-02 5.582e-02 -6.210e-02
312 1 1.170e-02 5.292e+00 1.746e+00 -7.207e-02 -1.482e-02 -1.099e-01
313 1 -8.017e-03 -5.288e+00 1.738e+00 -1.923e-02 -6.387e-03 5.626e-02
314 1 -5.288e+00 -1.760e+00 -2.556e-02 -3.488e-02 5.698e-02 -8.087e-02
315 1 5.250e+00 -1.764e+00 -7.163e-03 -2.766e-02 3.939e-02 -1.016e-01
316 1 -1.764e+00 5.287e+00 -2.293e-02 -3.453e-02 7.536e-02 -8.363e-02
317 1 1.759e+00 5.300e+00 -1.081e-02 -2.751e-02 7.374e-02 -7.711e-02
318 1 -5.272e+00 1.754e+00 2.234e-03 -5.463e-02 6.469e-02 -1.197e-01
319 1 5.271e+00 1.750e+00 -1.216e-03 -3.486e-02 4.523e-02 -1.037e-01
320 1 -1.763e+00 -5.270e+00 -1.922e-03 -3.658e-02 4.626e-02 -6.737e-02
321 1 1.749e+00 -5.271e+00 -2.032e-02 -4.637e-02 5.741e-02 -7.323e-02
322 1 3.519e+00 3.549e+00 -2.319e-02 2.569e-03 2.904e-02 -5.478e-02
323 1 -3.546e+00 3.512e+00 -1.330e-02 5.410e-03 2.679e-02 -6.924e-02
324 1 3.491e+00 -3.501e+00 -8.423e-03 6.046e-03 6.925e-02 -3.672e-02
325 1 -3.508e+00 -3.515e+00 -7.268e-03 -1.959e-02 6.777e-02 -2.566e-02
326 1 -1.771e+00 -3.510e+00 1.754e+00 -1.446e-02 -5.540e-02 1.160e-02
327 1 1.734e+00 -3.503e+00 1.731e+00 3.101e-02 -5.488e-02 2.128e-02
328 1 -7.574e-03 -3.515e+00 3.497e+00 -6.920e-02 3.965e-02 -7.427e-02
329 1 -1.748e+00 -3.518e+00 -1.765e+00 3.576e-02 -3.534e-02 5.271e-02
330 1 1.751e+00 -3.496e+00 -1.779e+00 5.294e-02 -4.962e-02 3.099e-02
331 1 -1.746e+00 3.521e+00 -1.770e+00 4.133e-02 1.377e-04 2.674e-02
332 1 1.784e+00 3.535e+00 -1.790e+00 2.608e-02 6.009e-03 3.346e-02
333 1 -1.740e+00 3.527e+00 1.744e+00 -4.283e-02 -3.325e-02 3.832e-02
334 1 1.767e+00 3.542e+00 1.736e+00 -1.149e-02 -3.080e-02 3.074e-02
335 1 3.529e+00 1.777e+00 -1.754e+00 5.421e-03 8.651e-03 6.279e-02
336 1 -3.522e+00 1.755e+00 -1.773e+00 4.456e-02 -9.462e-03 3.567e-02
337 1 -3.512e+00 1.763e+00 1.758e+00 3.482e-02 -2.293e-02 5.445e-02
338 1 3.517e+00 1.774e+00 1.738e+00 2.363e-02 -2.272e-02 4.726e-02
339 1 3.483e+00 -1.738e+00 -1.766e+00 3.402e-03 -1.926e-02 1.416e-04
340 1 -3.508e+00 -1.770e+00 -1.770e+00 1.122e-02 -2.030e-02 1.512e-03
341 1 -3.538e+00 -1.760e+00 1.759e+00 -2.428e-02 -1.678e-02 1.013e-01
342 1 3.526e+00 -1.753e+00 1.744e+00 -2.466e-02 -1.577e-02 1.108e-01
343 1 -3.516e+00 1.427e-03 3.496e+00 -2.817e-02 8.318e-02 1.401e-02
344 1 3.499e+00 3.821e-03 3.495e+00 -2.769e-04 7.656e-02 6.019e-03
345 1 9.964e-03 3.525e+00 3.521e+00 7.372e-04 7.087e-02 -2.389e-02
346 1 1.743e+00 -1.732e+00 3.495e+00 2.037e-02 3.559e-02 -2.122e-02
347 1 -1.748e+00 -1.760e+00 3.495e+00 4.961e-02 2.035e-02 -3.504e-02
348 1 7.883e-04 -3.859e-03 -9.477e-03 1.255e-01 -4.693e-01 7.926e-01
349 1 9.037e-03 -1.746e-02 3.497e+00 7.674e-02 2.623e-02 3.975e-02
350 1 1.751e+00 -4.904e-03 1.753e+00 -2.763e-03 -1.262e-01 -3.817e-02
351 1 -1.743e+00 -3.901e-04 1.747e+00 -3.132e-02 -1.269e-01 -3.921e-02
352 1 1.764e+00 1.777e+00 3.501e+00 -8.985e-03 5.806e-02 2.542e-03
353 1 -1.760e+00 1.754e+00 3.510e+00 -9.889e-03 5.332e-02 1.382e-02
354 1 -2.928e-02 -3.523e+00 2.535e-03 8.073e-02 -1.011e-01 7.294e-02
355 1 -1.752e+00 -1.750e+00 1.484e-03 -1.055e-01 -1.327e-01 9.730e-02
356 1 1.740e+00 -1.757e+00 9.461e-03 -1.144e-01 -1.168e-01 1.038e-01
357 1 -8.048e-03 -1.761e+00 -1.762e+00 -1.368e-02 -1.776e-01 1.493e-01
358 1 -1.761e+00 9.819e-03 -1.774e+00 1.342e-02 -1.884e-01 1.382e-01
359 1 1.743e+00 1.003e-02 -1.789e+00 -7.259e-04 -1.850e-01 1.557e-01
360 1 1.563e-02 1.739e+00 -1.769e+00 -7.725e-03 -1.818e-01 1.385e-01
361 1 3.370e-03 1.793e+00 1.762e+00 -7.483e-03 -1.751e-01 8.737e-02
362 1 -3.516e+00 -1.296e-02 -4.477e-02 7.207e-02 -1.958e-01 1.419e-01
363 1 3.522e+00 2.908e-04 -4.071e-03 6.748e-02 -1.974e-01 1.592e-01
364 1 4.166e-03 3.531e+00 -1.227e-02 7.578e-02 -2.110e-01 1.205e-01
365 1 -1.748e+00 1.759e+00 -2.251e-02 -1.197e-01 -1.982e-01 1.428e-01
366 1 1.770e+00 1.765e+00 -1.208e-02 -1.529e-01 -1.759e-01 1.689e-01
ITEM: TIMESTEP
0
ITEM: NUMBER OF ATOMS
61
ITEM: BOX BOUNDS xy xz yz pp pp pp
                     0.00000000000000e+00 1.06200000000000e+01 0.00000000000000e+00
0.00000000000000e+00	1.06200000000000e+01	0.00000000000000e+00
0.00000000000000e+00	1.06200000000000e+01	0.00000000000000e+00
ITEM: ATOMS id type x y z DisplacementX DisplacementY DisplacementZ
367 1 4.596e-03 5.268e+00 1.809e+00 3.900e-03 -1.128e-01 1.208e-01
368 1 -5.272e+00 -2.968e-02 -1.748e+00 -4.443e-02 -3.034e-02 3.626e-02
369 1 5.273e+00 9.691e-03 -1.747e+00 4.772e-02 -5.534e-03 1.117e-01
370 1 5.266e+00 -1.089e-02 1.767e+00 -1.894e-02 -8.121e-02 3.928e-02
371 1 -5.291e+00 -2.155e-02 1.765e+00 -1.957e-03 -1.018e-01 8.736e-02
372 1 6.081e-03 -5.316e+00 1.763e+00 -7.553e-03 -6.585e-02 4.313e-03
373 1 -7.784e-03 -5.294e+00 -1.748e+00 -8.802e-03 -1.131e-02 1.431e-02
374 1 8.991e-03 5.294e+00 -1.739e+00 -5.949e-02 6.045e-02 -3.116e-02
375 1 -5.270e+00 1.744e+00 3.117e-02 -5.209e-03 -7.908e-02 1.411e-01
376 1 5.262e+00 1.768e+00 1.374e-02 -2.371e-02 -7.945e-02 7.686e-02
377 1 -1.771e+00 -5.305e+00 3.550e-02 -2.954e-02 -7.045e-02 4.082e-02
378 1 1.753e+00 -5.293e+00 -2.174e-03 -4.397e-03 -5.568e-02 1.896e-02
379 1 -5.297e+00 -1.785e+00 7.266e-03 -3.296e-02 -8.015e-02 5.535e-02
380 1 5.265e+00 -1.774e+00 -3.039e-03 -1.128e-02 -4.612e-02 6.580e-02
381 1 -1.743e+00 5.282e+00 1.313e-02 -2.977e-02 -7.605e-02 7.913e-02
382 1 1.788e+00 5.289e+00 1.400e-02 -2.832e-02 -5.550e-02 9.044e-02
383 1 3.513e+00 -3.527e+00 -3.610e-05 2.375e-02 -4.611e-02 2.756e-02
384 1 -3.521e+00 -3.536e+00 2.961e-02 8.782e-03 -4.963e-02 3.291e-02
385 1 3.533e+00 3.512e+00 7.935e-03 3.348e-02 -2.061e-02 3.924e-02
386 1 -3.515e+00 3.536e+00 1.539e-02 -1.568e-02 -4.433e-02 3.746e-02
387 1 -1.747e+00 3.505e+00 -1.739e+00 -2.972e-02 1.870e-03 -6.583e-02
388 1 1.754e+00 3.497e+00 -1.748e+00 1.868e-02 -1.775e-02 2.360e-02
389 1 -7.171e-03 3.501e+00 -3.492e+00 6.628e-03 -5.842e-02 1.065e-01
390 1 -1.734e+00 3.509e+00 1.782e+00 2.592e-02 -3.276e-02 -1.437e-02
391 1 1.778e+00 3.507e+00 1.773e+00 -2.762e-03 6.996e-04 -4.320e-02
392 1 -1.774e+00 -3.545e+00 1.783e+00 1.115e-02 7.718e-03 -1.779e-02
393 1 1.746e+00 -3.530e+00 1.771e+00 2.688e-02 3.592e-02 -3.111e-02
394 1 -1.778e+00 -3.544e+00 -1.734e+00 3.723e-03 1.011e-02 1.446e-02
395 1 1.730e+00 -3.537e+00 -1.736e+00 -5.850e-03 -3.075e-02 1.358e-02
396 1 3.513e+00 -1.766e+00 1.778e+00 1.953e-02 -8.876e-03 -1.829e-02
397 1 -3.523e+00 -1.769e+00 1.774e+00 -3.335e-02 -1.745e-02 -6.190e-02
398 1 -3.510e+00 -1.763e+00 -1.754e+00 1.918e-02 1.195e-02 -2.102e-02
399 1 3.495e+00 -1.769e+00 -1.748e+00 -7.049e-03 2.237e-02 -3.853e-02